INSANE! Membrane UpperLeaflet>loPI:POPI:DPPI:PYPI:ERGO=180.0:5.0:3.0:2.0:10.0 LowerLeaflet>loPI:POPI:DPPI:PYPI:ERGO=180.0:5.0:3.0:2.0:10.0
49303
    1loPI    C1    1   5.322  17.401  10.027  0.0551 -0.2921  0.1077
    1loPI    C2    2   5.706  17.334  10.118  0.0929  0.0509  0.2155
    1loPI    C3    3   5.512  17.642  10.284 -0.2272 -0.1123  0.1524
    1loPI   PO4    4   5.381  17.353   9.667  0.0248  0.1199 -0.1442
    1loPI   GL1    5   5.509  17.563   9.245  0.2168 -0.2384 -0.2323
    1loPI   GL2    6   5.236  17.217   9.197 -0.1053  0.0130  0.3368
    1loPI   C1A    7   5.724  17.614   8.920 -0.2010 -0.1927  0.0038
    1loPI   C2A    8   5.898  17.738   8.567  0.0323  0.0001 -0.1000
    1loPI   C3A    9   5.883  17.688   8.110 -0.0799 -0.0982  0.2313
    1loPI   C4A   10   5.953  17.662   7.590  0.2448  0.1422 -0.2206
    1loPI   C5A   11   5.941  17.458   7.219  0.0163  0.4822  0.1969
    1loPI   C6A   12   6.017  17.223   6.903 -0.0385 -0.0316  0.1521
    1loPI   C1B   13   5.329  17.302   8.798 -0.0307 -0.0941  0.1018
    1loPI   C2B   14   5.415  17.439   8.491  0.1010 -0.0727 -0.1793
    1loPI   C3B   15   5.412  17.441   8.066  0.0891 -0.0477 -0.0335
    1loPI   C4B   16   5.501  17.478   7.552 -0.1182 -0.2117  0.0635
    2loPI    C1   17  10.429   4.122   9.962  0.1091 -0.0949  0.0997
    2loPI    C2   18  10.685   3.820   9.903  0.0807 -0.0819 -0.0945
    2loPI    C3   19  10.753   4.084  10.195  0.2572 -0.1130 -0.1060
    2loPI   PO4   20  10.389   4.200   9.713 -0.1470  0.2689 -0.4674
    2loPI   GL1   21  10.572   4.106   9.403 -0.0534 -0.1089 -0.1281
    2loPI   GL2   22  10.679   3.788   9.361 -0.2540  0.0575 -0.3084
    2loPI   C1A   23  10.233   4.241   9.062 -0.2100 -0.1709 -0.1064
    2loPI   C2A   24  10.031   4.294   8.688 -0.2696  0.2121  0.1513
    2loPI   C3A   25   9.819   4.040   8.352 -0.0230  0.0840 -0.1334
    2loPI   C4A   26   9.642   3.877   7.945 -0.0515  0.1809  0.1379
    2loPI   C5A   27   9.261   4.087   7.640  0.0741 -0.0703 -0.0184
    2loPI   C6A   28   9.022   4.101   7.215 -0.1201  0.2564  0.1337
    2loPI   C1B   29  10.984   4.035   8.994  0.0300  0.0283 -0.2153
    2loPI   C2B   30  11.032   4.180   8.624 -0.1630 -0.0388  0.3037
    2loPI   C3B   31  11.101   4.002   8.191 -0.1225 -0.0829  0.3704
    2loPI   C4B   32  11.315   4.126   7.822 -0.3549  0.2568  0.3417
    3loPI    C1   33   5.911   1.664   9.975  0.1405  0.0686  0.1629
    3loPI    C2   34   5.515   1.663   9.922  0.1458  0.0878  0.1223
    3loPI    C3   35   5.668   1.715  10.288  0.1104  0.0525  0.1421
    3loPI   PO4   36   5.997   1.557   9.808  0.3582 -0.1040 -0.2613
    3loPI   GL1   37   5.668   1.605   9.454 -0.0455 -0.1176  0.1610
    3loPI   GL2   38   5.695   1.914   9.530  0.0218  0.2842 -0.1399
    3loPI   C1A   39   5.753   1.679   8.994  0.1407  0.1812  0.0526
    3loPI   C2A   40   5.587   1.715   8.546  0.0062 -0.0956  0.1074
    3loPI   C3A   41   5.252   1.867   8.333 -0.0697  0.2293 -0.0079
    3loPI   C4A   42   4.842   1.796   8.188  0.0273  0.1679 -0.2098
    3loPI   C5A   43   4.896   1.542   7.786  0.0283 -0.1928  0.0107
    3loPI   C6A   44   4.764   1.179   7.725  0.2988 -0.2274 -0.0992
    3loPI   C1B   45   5.498   2.047   9.134  0.0981 -0.0730 -0.0618
    3loPI   C2B   46   5.439   2.194   8.753 -0.2409  0.3162 -0.0099
    3loPI   C3B   47   5.598   2.285   8.332 -0.0274 -0.1154  0.1512
    3loPI   C4B   48   5.823   2.467   7.987 -0.1151  0.3919 -0.1031
    4loPI    C1   49  11.607  13.121   9.772 -0.1295 -0.2705  0.1492
    4loPI    C2   50  11.549  13.008  10.152  0.0640  0.1610  0.3139
    4loPI    C3   51  11.892  12.918   9.966  0.0159  0.0496  0.2780
    4loPI   PO4   52  11.456  12.944   9.650  0.0405 -0.0968  0.3833
    4loPI   GL1   53  11.446  12.979   9.136 -0.0400  0.1818  0.0320
    4loPI   GL2   54  11.630  13.314   9.130 -0.1150 -0.0279 -0.2164
    4loPI   C1A   55  11.406  12.743   8.681 -0.1359  0.2387 -0.0042
    4loPI   C2A   56  11.756  12.616   8.348  0.0985 -0.1455 -0.2213
    4loPI   C3A   57  12.003  12.661   7.917  0.1515 -0.3357 -0.1249
    4loPI   C4A   58  12.302  12.504   7.657 -0.6463  0.1478  0.3778
    4loPI   C5A   59  12.679  12.590   7.547  0.0717  0.0264 -0.1588
    4loPI   C6A   60  13.102  12.522   7.504  0.0179  0.2894  0.1816
    4loPI   C1B   61  11.531  13.234   8.719  0.2813 -0.0783 -0.0028
    4loPI   C2B   62  11.258  13.395   8.499 -0.1113  0.0914  0.1027
    4loPI   C3B   63  11.194  13.339   8.099  0.0219  0.1008 -0.1706
    4loPI   C4B   64  11.253  13.409   7.707 -0.0829 -0.2420  0.2489
    5loPI    C1   65  15.213   9.330   9.677  0.3154 -0.0241 -0.0805
    5loPI    C2   66  15.422   9.637   9.826  0.1296  0.0850 -0.0420
    5loPI    C3   67  15.137   9.463  10.047 -0.0290  0.1358 -0.2048
    5loPI   PO4   68  15.359   9.176   9.552 -0.3707 -0.1574 -0.1946
    5loPI   GL1   69  15.292   9.155   9.129 -0.0282 -0.3965  0.3672
    5loPI   GL2   70  14.979   9.287   9.208 -0.1904 -0.0522 -0.1286
    5loPI   C1A   71  15.253   8.942   8.756  0.0507 -0.1164  0.1604
    5loPI   C2A   72  15.513   8.665   8.513  0.2151 -0.0275 -0.3147
    5loPI   C3A   73  15.679   8.715   8.082  0.0984  0.2463 -0.0739
    5loPI   C4A   74  16.097   8.828   7.916 -0.2614  0.2409  0.0127
    5loPI   C5A   75  16.408   8.759   7.541 -0.1536  0.0803  0.1641
    5loPI   C6A   76  16.507   8.895   7.062 -0.2026 -0.0664  0.0225
    5loPI   C1B   77  14.913   9.279   8.730 -0.0452  0.0640  0.0600
    5loPI   C2B   78  14.979   9.437   8.228  0.1157 -0.1746  0.3026
    5loPI   C3B   79  15.093   9.258   7.901  0.1340 -0.3785 -0.1221
    5loPI   C4B   80  15.290   8.869   7.660 -0.1108  0.0255  0.0415
    6loPI    C1   81   2.591   8.053  10.011 -0.1749 -0.1248  0.0842
    6loPI    C2   82   2.400   7.940  10.344 -0.1951 -0.1869  0.0518
    6loPI    C3   83   2.779   8.067  10.364 -0.1880 -0.2142  0.0951
    6loPI   PO4   84   2.339   8.163   9.858 -0.1581 -0.2477 -0.1063
    6loPI   GL1   85   2.094   8.430   9.540 -0.1632  0.0290 -0.0274
    6loPI   GL2   86   2.176   8.115   9.395  0.0209 -0.0470 -0.1672
    6loPI   C1A   87   2.289   8.559   9.227  0.0777 -0.0482  0.1630
    6loPI   C2A   88   2.195   8.449   8.803  0.0892  0.1658 -0.1130
    6loPI   C3A   89   2.167   8.296   8.322 -0.0741  0.0307 -0.3356
    6loPI   C4A   90   2.174   8.255   7.849 -0.0348 -0.1642  0.1610
    6loPI   C5A   91   2.291   8.286   7.452 -0.4052  0.1210  0.0092
    6loPI   C6A   92   2.222   8.423   7.103  0.2216 -0.2540  0.2817
    6loPI   C1B   93   2.273   7.913   8.934  0.2312 -0.2660  0.0342
    6loPI   C2B   94   2.254   7.788   8.485  0.0550 -0.2088 -0.0247
    6loPI   C3B   95   2.310   7.752   8.096 -0.4028 -0.3630 -0.2392
    6loPI   C4B   96   2.245   7.841   7.625 -0.2512 -0.0727  0.1390
    7loPI    C1   97   0.852   7.408  10.237  0.1742  0.2928 -0.3562
    7loPI    C2   98   1.250   7.440  10.208  0.2235  0.3516  0.2456
    7loPI    C3   99   1.074   7.455  10.567 -0.2958 -0.0276  0.0201
    7loPI   PO4  100   0.848   7.159  10.060 -0.1285  0.2899  0.1923
    7loPI   GL1  101   1.054   7.178   9.707 -0.0977  0.1741  0.3208
    7loPI   GL2  102   1.341   7.414   9.620  0.0292 -0.2747  0.3428
    7loPI   C1A  103   0.962   7.064   9.246 -0.0939 -0.0822 -0.1441
    7loPI   C2A  104   0.931   6.920   8.859  0.0711 -0.2533 -0.2056
    7loPI   C3A  105   0.973   7.044   8.328  0.4129  0.4198 -0.0784
    7loPI   C4A  106   0.780   7.260   8.069  0.1791  0.1740  0.0963
    7loPI   C5A  107   0.497   7.384   7.645  0.1361 -0.4223  0.1720
    7loPI   C6A  108   0.400   7.715   7.287 -0.0052 -0.1404  0.0790
    7loPI   C1B  109   1.371   7.291   9.200 -0.2317  0.0141 -0.0422
    7loPI   C2B  110   1.297   7.255   8.759 -0.1890  0.0700  0.0556
    7loPI   C3B  111   1.438   7.293   8.358  0.0550 -0.4128  0.0934
    7loPI   C4B  112   1.241   7.475   8.050 -0.0609 -0.0719  0.1948
    8loPI    C1  113   5.298  11.700   9.899  0.0498 -0.0913  0.1923
    8loPI    C2  114   4.909  11.608   9.904  0.0861 -0.2715 -0.0979
    8loPI    C3  115   5.171  11.378  10.100  0.0263 -0.0342  0.2695
    8loPI   PO4  116   5.383  11.767   9.599 -0.1143 -0.1403 -0.0740
    8loPI   GL1  117   5.488  11.737   9.191 -0.0926 -0.1273  0.2009
    8loPI   GL2  118   5.709  12.010   9.174 -0.0451  0.2560  0.0945
    8loPI   C1A  119   5.571  11.511   8.813  0.0143 -0.0951 -0.3613
    8loPI   C2A  120   5.426  11.403   8.358  0.0219 -0.0243 -0.1634
    8loPI   C3A  121   5.168  11.216   8.120  0.1146 -0.0240 -0.0053
    8loPI   C4A  122   5.051  10.813   8.000  0.0241  0.0604 -0.1359
    8loPI   C5A  123   4.734  10.641   7.761 -0.1714 -0.0622  0.0969
    8loPI   C6A  124   4.598  10.666   7.325 -0.4530  0.0762  0.0413
    8loPI   C1B  125   5.936  11.921   8.775  0.1970 -0.1667  0.0568
    8loPI   C2B  126   6.300  11.713   8.644 -0.2046 -0.1785 -0.1225
    8loPI   C3B  127   6.631  11.632   8.296  0.1597 -0.2169 -0.0265
    8loPI   C4B  128   6.759  11.543   7.832 -0.3269 -0.3969  0.2793
    9loPI    C1  129   4.976   8.481   9.648 -0.0690 -0.1802  0.2844
    9loPI    C2  130   4.709   8.624   9.387  0.0342 -0.2897  0.1172
    9loPI    C3  131   4.725   8.773   9.758 -0.0152 -0.0303  0.0175
    9loPI   PO4  132   5.186   8.457   9.486 -0.0482  0.1370 -0.4986
    9loPI   GL1  133   5.047   8.384   9.080 -0.5131  0.3626  0.2437
    9loPI   GL2  134   4.820   8.585   8.867  0.0177  0.3618 -0.0872
    9loPI   C1A  135   5.294   8.522   8.734 -0.1956 -0.1049  0.2343
    9loPI   C2A  136   5.393   8.391   8.332 -0.0892 -0.1675 -0.3209
    9loPI   C3A  137   5.640   8.324   8.011  0.0686 -0.1432  0.1230
    9loPI   C4A  138   5.750   8.177   7.699  0.2865  0.2371  0.1839
    9loPI   C5A  139   5.370   7.868   7.549 -0.2203 -0.6108 -0.1566
    9loPI   C6A  140   5.155   7.940   7.164  0.0086 -0.0293  0.0002
    9loPI   C1B  141   4.955   8.876   8.502 -0.2283 -0.0675 -0.0251
    9loPI   C2B  142   5.095   9.109   8.109  0.2256 -0.1537 -0.2582
    9loPI   C3B  143   5.046   9.422   7.714  0.0629  0.0523 -0.2141
    9loPI   C4B  144   5.116   9.481   7.297  0.0947 -0.0596  0.1000
   10loPI    C1  145   1.554   7.848  10.160 -0.0466 -0.0911 -0.0734
   10loPI    C2  146   1.507   7.681  10.521 -0.0162 -0.2718 -0.1519
   10loPI    C3  147   1.788   7.543  10.272  0.0251 -0.0867 -0.2096
   10loPI   PO4  148   1.458   7.806   9.873  0.3751 -0.1311 -0.3093
   10loPI   GL1  149   1.696   7.955   9.557 -0.2268 -0.0050 -0.0353
   10loPI   GL2  150   1.776   7.673   9.431  0.3150 -0.1560 -0.1216
   10loPI   C1A  151   1.749   8.057   9.058  0.0336  0.0978 -0.1383
   10loPI   C2A  152   1.872   8.012   8.626 -0.0302  0.3292 -0.3104
   10loPI   C3A  153   1.838   7.918   8.180 -0.1010  0.1082 -0.0875
   10loPI   C4A  154   1.730   7.997   7.777 -0.2784 -0.1594 -0.0902
   10loPI   C5A  155   1.830   8.056   7.346 -0.0277  0.1665  0.1453
   10loPI   C6A  156   1.609   8.342   7.025 -0.1117  0.2093 -0.0815
   10loPI   C1B  157   1.788   7.552   9.003  0.1807  0.0633  0.0989
   10loPI   C2B  158   1.767   7.488   8.652  0.0290 -0.1725 -0.0748
   10loPI   C3B  159   1.916   7.450   8.285 -0.0426 -0.2437  0.1113
   10loPI   C4B  160   1.936   7.533   7.810  0.0451  0.1898 -0.1386
   11loPI    C1  161  18.810  10.535   9.651  0.2743 -0.0685  0.0067
   11loPI    C2  162  18.564  10.546   9.967  0.0490  0.0291 -0.1691
   11loPI    C3  163  18.860  10.813   9.935  0.1269 -0.0352  0.0011
   11loPI   PO4  164  18.787  10.280   9.559 -0.0680 -0.0291 -0.2239
   11loPI   GL1  165  18.986  10.132   9.264  0.1881 -0.1077  0.1489
   11loPI   GL2  166  19.343  10.057   9.123  0.4720  0.0539  0.1753
   11loPI   C1A  167  18.899   9.923   8.823 -0.1116 -0.2353 -0.2130
   11loPI   C2A  168  18.977   9.743   8.384 -0.2651 -0.2385  0.0584
   11loPI   C3A  169  18.980   9.902   8.034  0.0940  0.0463  0.0982
   11loPI   C4A  170  18.852   9.983   7.602  0.0659  0.2149  0.1661
   11loPI   C5A  171  18.506  10.014   7.404 -0.0689 -0.1032  0.1947
   11loPI   C6A  172  18.281  10.133   7.014 -0.0695 -0.0519 -0.1301
   11loPI   C1B  173  19.374   9.808   8.734 -0.3030  0.0075 -0.1798
   11loPI   C2B  174  19.602   9.682   8.459  0.1352  0.1064  0.2884
   11loPI   C3B  175  19.562   9.563   8.084 -0.1609 -0.4637 -0.2664
   11loPI   C4B  176  19.590   9.516   7.780 -0.0080 -0.0769 -0.3192
   12loPI    C1  177  12.667   2.389   9.763  0.0045  0.1085  0.1524
   12loPI    C2  178  12.523   2.503  10.119 -0.2224  0.1336  0.0545
   12loPI    C3  179  12.715   2.766   9.887 -0.1799  0.1483  0.1062
   12loPI   PO4  180  12.622   2.123   9.783 -0.0787 -0.0105 -0.3787
   12loPI   GL1  181  12.892   1.848   9.485  0.0670 -0.0033  0.1394
   12loPI   GL2  182  12.920   2.115   9.329  0.2713 -0.2429  0.0580
   12loPI   C1A  183  12.861   1.521   9.252 -0.1148  0.1384  0.1524
   12loPI   C2A  184  12.661   1.335   8.943  0.0113 -0.1157 -0.3110
   12loPI   C3A  185  12.266   1.192   8.885  0.3014  0.0480  0.3063
   12loPI   C4A  186  11.980   0.862   8.978 -0.3886 -0.3507  0.1880
   12loPI   C5A  187  11.893   0.664   8.541  0.1461  0.0745 -0.0183
   12loPI   C6A  188  11.723   0.712   8.047  0.2219 -0.0501  0.0826
   12loPI   C1B  189  12.828   1.976   8.944 -0.0923 -0.0176  0.0653
   12loPI   C2B  190  12.896   1.917   8.517  0.2119 -0.1257  0.3641
   12loPI   C3B  191  12.697   1.997   8.246  0.0877 -0.0952 -0.2417
   12loPI   C4B  192  12.503   1.823   7.898 -0.0211  0.0254  0.0111
   13loPI    C1  193  17.745  10.964   9.703  0.0120 -0.1571  0.1149
   13loPI    C2  194  17.635  11.184  10.019 -0.0522 -0.2000  0.1228
   13loPI    C3  195  17.628  10.784  10.041  0.0446 -0.2031  0.1020
   13loPI   PO4  196  17.519  11.012   9.501  0.2903 -0.1763 -0.0326
   13loPI   GL1  197  17.516  10.908   9.035 -0.0449  0.3544 -0.1813
   13loPI   GL2  198  17.701  11.246   9.065 -0.1823 -0.0542 -0.0228
   13loPI   C1A  199  17.585  10.870   8.662 -0.0617 -0.1639 -0.0303
   13loPI   C2A  200  17.847  10.724   8.333 -0.1605 -0.1351 -0.1079
   13loPI   C3A  201  17.982  10.963   8.011 -0.0549 -0.0815  0.1046
   13loPI   C4A  202  18.049  10.848   7.589  0.2629 -0.3333 -0.0105
   13loPI   C5A  203  18.022  10.412   7.392 -0.1633 -0.0010 -0.3506
   13loPI   C6A  204  17.743  10.295   7.102 -0.1992 -0.0069 -0.1566
   13loPI   C1B  205  17.684  11.561   8.756 -0.2407 -0.2921  0.4188
   13loPI   C2B  206  17.820  11.690   8.402 -0.0698  0.0046  0.1463
   13loPI   C3B  207  18.004  11.820   8.035 -0.0617 -0.1047  0.0108
   13loPI   C4B  208  18.205  12.057   8.175 -0.0981 -0.2165  0.0663
   14loPI    C1  209  14.402   8.685   9.855  0.1099 -0.2256 -0.1130
   14loPI    C2  210  14.292   8.553  10.216  0.0048  0.0703 -0.0341
   14loPI    C3  211  14.289   8.304   9.903  0.0313 -0.1709  0.1541
   14loPI   PO4  212  14.392   8.925   9.854 -0.0887 -0.1721 -0.1730
   14loPI   GL1  213  14.493   9.157   9.541 -0.1388  0.0360  0.2291
   14loPI   GL2  214  14.619   8.956   9.380 -0.2011 -0.0533  0.0486
   14loPI   C1A  215  14.390   9.276   9.119  0.4074 -0.1835 -0.0540
   14loPI   C2A  216  14.441   9.503   8.800  0.1107 -0.0879 -0.0848
   14loPI   C3A  217  14.419   9.535   8.337 -0.1123 -0.1047  0.2847
   14loPI   C4A  218  14.579   9.441   7.908  0.1610 -0.1129 -0.1747
   14loPI   C5A  219  14.505   9.502   7.446 -0.1360  0.1214  0.4009
   14loPI   C6A  220  14.349   9.408   7.019 -0.2241 -0.0153  0.1218
   14loPI   C1B  221  14.427   8.696   8.934 -0.1241 -0.0017  0.0741
   14loPI   C2B  222  14.322   8.672   8.528 -0.0837 -0.0203 -0.1507
   14loPI   C3B  223  14.151   8.462   8.144 -0.0818  0.1714 -0.2265
   14loPI   C4B  224  13.788   8.204   7.941 -0.1070 -0.0329 -0.0514
   15loPI    C1  225  11.949  15.413   9.667  0.3769 -0.0413  0.0056
   15loPI    C2  226  11.726  15.158   9.880  0.0413  0.1457 -0.1143
   15loPI    C3  227  12.002  15.384  10.062  0.0234  0.0281  0.0610
   15loPI   PO4  228  12.092  15.342   9.493 -0.0673  0.1201 -0.2437
   15loPI   GL1  229  12.087  15.478   9.063 -0.0262 -0.2826 -0.3540
   15loPI   GL2  230  12.062  15.842   8.962 -0.2704  0.0179 -0.2318
   15loPI   C1A  231  11.866  15.286   8.718  0.2859 -0.0221  0.2223
   15loPI   C2A  232  11.730  15.234   8.346 -0.2701  0.2701  0.1102
   15loPI   C3A  233  11.704  15.140   7.886  0.2336 -0.2291  0.3671
   15loPI   C4A  234  11.533  15.240   7.523 -0.0698  0.0926 -0.0176
   15loPI   C5A  235  11.254  15.215   7.173  0.0420 -0.0595  0.2464
   15loPI   C6A  236  11.186  15.234   6.645 -0.1714  0.1355 -0.3354
   15loPI   C1B  237  11.850  15.718   8.651  0.5027 -0.0528 -0.0558
   15loPI   C2B  238  11.902  15.728   8.285  0.1342  0.2982 -0.1057
   15loPI   C3B  239  11.999  16.100   8.063  0.0365 -0.0772  0.0552
   15loPI   C4B  240  11.919  16.164   7.547 -0.0645  0.1657 -0.0514
   16loPI    C1  241  11.148   9.671   9.937  0.0573 -0.0315  0.1121
   16loPI    C2  242  10.846   9.462  10.097 -0.0535  0.0861  0.0587
   16loPI    C3  243  10.821   9.860  10.069  0.0679  0.0881 -0.0314
   16loPI   PO4  244  11.301   9.572   9.749  0.2319 -0.1195 -0.2416
   16loPI   GL1  245  11.363   9.750   9.376  0.0114 -0.3950 -0.2575
   16loPI   GL2  246  11.703   9.765   9.375  0.0331  0.0176 -0.0755
   16loPI   C1A  247  11.215   9.849   8.914 -0.0337 -0.0091  0.1397
   16loPI   C2A  248  11.003  10.063   8.715  0.1026  0.1622  0.0597
   16loPI   C3A  249  10.773  10.338   8.419  0.1697 -0.0530 -0.1204
   16loPI   C4A  250  10.456  10.391   8.173 -0.1379  0.3635  0.2982
   16loPI   C5A  251  10.423  10.273   7.743 -0.2482  0.0089  0.0316
   16loPI   C6A  252  10.627  10.019   7.388  0.0252 -0.1037 -0.2124
   16loPI   C1B  253  11.615   9.475   8.994  0.2377 -0.5640 -0.0877
   16loPI   C2B  254  11.788   9.046   8.768  0.1865 -0.3160  0.0897
   16loPI   C3B  255  12.091   8.886   8.526  0.2547  0.2530 -0.2341
   16loPI   C4B  256  12.149   8.507   8.226  0.0092  0.0352  0.1148
   17loPI    C1  257  12.524   9.083   9.926 -0.3217  0.1982 -0.0235
   17loPI    C2  258  12.253   9.024  10.215 -0.0249 -0.2306  0.1777
   17loPI    C3  259  12.632   9.109  10.311 -0.0497  0.2281 -0.0997
   17loPI   PO4  260  12.419   9.267   9.728  0.1810 -0.0922  0.0135
   17loPI   GL1  261  12.437   9.442   9.306  0.0578 -0.1948  0.3358
   17loPI   GL2  262  12.224   9.662   9.193 -0.1421  0.0885 -0.1334
   17loPI   C1A  263  12.295   9.159   9.002 -0.0777 -0.1669 -0.4036
   17loPI   C2A  264  12.441   9.242   8.659  0.1903 -0.0067  0.1746
   17loPI   C3A  265  12.388   9.222   8.255 -0.0261 -0.2720 -0.2000
   17loPI   C4A  266  12.479   9.347   7.825 -0.1975  0.2405 -0.1022
   17loPI   C5A  267  12.413   9.370   7.362  0.0035  0.1237 -0.2206
   17loPI   C6A  268  12.209   9.674   7.207  0.2769  0.2417  0.2564
   17loPI   C1B  269  12.128   9.624   8.821 -0.0703  0.1593  0.0127
   17loPI   C2B  270  11.840   9.470   8.501 -0.2625 -0.0154  0.1517
   17loPI   C3B  271  11.594   9.211   8.307 -0.0419 -0.0135  0.0505
   17loPI   C4B  272  11.938   8.964   8.056  0.2719 -0.0362 -0.0784
   18loPI    C1  273   6.041   0.875   9.689  0.1075  0.1065  0.1531
   18loPI    C2  274   6.233   0.665   9.407  0.0602  0.2354  0.0240
   18loPI    C3  275   6.220   0.529   9.783  0.3332  0.1839  0.0171
   18loPI   PO4  276   6.062   1.115   9.569 -0.0025  0.0197  0.2642
   18loPI   GL1  277   6.016   1.204   9.162 -0.3429 -0.0508 -0.2354
   18loPI   GL2  278   6.167   1.510   9.221 -0.0308 -0.0113 -0.0966
   18loPI   C1A  279   5.812   1.150   8.760 -0.2730  0.0441 -0.0826
   18loPI   C2A  280   5.621   1.186   8.353 -0.1926 -0.0368  0.0150
   18loPI   C3A  281   5.528   1.404   8.054 -0.0656  0.1297  0.0492
   18loPI   C4A  282   5.347   1.231   7.652  0.1476 -0.1051 -0.3887
   18loPI   C5A  283   5.149   0.906   7.523  0.1456  0.0089 -0.1025
   18loPI   C6A  284   5.279   0.491   7.175  0.0780  0.1388  0.1045
   18loPI   C1B  285   6.273   1.645   8.863 -0.1910  0.0613  0.2808
   18loPI   C2B  286   6.051   1.462   8.453 -0.1004  0.1548 -0.1295
   18loPI   C3B  287   6.115   1.539   7.981 -0.1179 -0.2628 -0.1984
   18loPI   C4B  288   5.853   1.594   7.620 -0.3165  0.4541  0.0149
   19loPI    C1  289  12.933  13.303   9.990 -0.1559 -0.1317 -0.0610
   19loPI    C2  290  13.213  13.027  10.066  0.0828  0.1195 -0.0100
   19loPI    C3  291  12.924  13.098  10.333 -0.0079 -0.1118 -0.0445
   19loPI   PO4  292  13.088  13.428   9.807 -0.0706 -0.0738 -0.3954
   19loPI   GL1  293  13.152  13.426   9.342  0.1149 -0.2606 -0.0582
   19loPI   GL2  294  13.127  13.614   9.059  0.5121 -0.0715 -0.1315
   19loPI   C1A  295  13.472  13.245   8.964  0.1805 -0.0152 -0.3325
   19loPI   C2A  296  13.743  13.208   8.671 -0.0813  0.2327  0.0329
   19loPI   C3A  297  13.895  13.251   8.185 -0.1555  0.1729  0.1895
   19loPI   C4A  298  14.012  13.130   7.719  0.2012  0.2957  0.1576
   19loPI   C5A  299  13.842  13.208   7.322  0.0574 -0.1175 -0.0555
   19loPI   C6A  300  13.773  13.540   7.002  0.0566 -0.1497 -0.1679
   19loPI   C1B  301  12.967  13.624   8.682  0.1840  0.0705 -0.4657
   19loPI   C2B  302  12.922  13.500   8.232  0.0800 -0.1575 -0.1665
   19loPI   C3B  303  12.767  13.333   7.969 -0.0015  0.2928 -0.0347
   19loPI   C4B  304  12.482  13.485   7.588  0.1877  0.1046  0.1885
   20loPI    C1  305  17.676  16.912   9.632 -0.1025 -0.0549  0.1714
   20loPI    C2  306  18.064  16.928   9.726 -0.1041  0.1381  0.1488
   20loPI    C3  307  17.801  16.780   9.989 -0.0143 -0.0051  0.1591
   20loPI   PO4  308  17.661  16.791   9.474 -0.0731  0.0463  0.0724
   20loPI   GL1  309  17.523  16.688   9.087 -0.2805 -0.1280 -0.2937
   20loPI   GL2  310  17.511  16.581   8.845 -0.0507  0.0273  0.3934
   20loPI   C1A  311  17.687  17.066   8.834 -0.0834  0.0280 -0.0949
   20loPI   C2A  312  17.665  17.150   8.330 -0.0590 -0.4263 -0.0546
   20loPI   C3A  313  17.954  17.438   8.094  0.1472  0.0053 -0.0793
   20loPI   C4A  314  18.288  17.376   7.824 -0.0357  0.1911 -0.0889
   20loPI   C5A  315  18.455  17.283   7.386 -0.0129  0.1456  0.3821
   20loPI   C6A  316  18.136  17.323   7.014 -0.1854  0.2356  0.1034
   20loPI   C1B  317  17.438  16.283   8.426 -0.1703  0.1510 -0.2221
   20loPI   C2B  318  17.272  16.056   8.192  0.1505 -0.0658 -0.1924
   20loPI   C3B  319  17.221  16.076   7.792 -0.1550  0.0748 -0.0846
   20loPI   C4B  320  17.110  16.386   7.460  0.0274  0.2321 -0.1854
   21loPI    C1  321  14.510  11.083   9.887 -0.0989  0.1681 -0.1982
   21loPI    C2  322  14.900  11.173   9.878 -0.0920  0.1462 -0.1303
   21loPI    C3  323  14.712  11.134  10.229 -0.0991 -0.0862 -0.1582
   21loPI   PO4  324  14.517  10.995   9.578 -0.0303 -0.1878 -0.0264
   21loPI   GL1  325  14.616  10.754   9.265  0.1884 -0.0715 -0.2642
   21loPI   GL2  326  14.698  10.459   9.258  0.1118 -0.1402  0.1659
   21loPI   C1A  327  14.244  10.541   9.080 -0.1618 -0.1020 -0.0712
   21loPI   C2A  328  13.940  10.271   8.905  0.1304  0.0737 -0.0908
   21loPI   C3A  329  13.782  10.289   8.600 -0.0512 -0.3911  0.0258
   21loPI   C4A  330  13.817  10.543   8.147 -0.2495  0.0749 -0.0103
   21loPI   C5A  331  13.569  10.503   7.817  0.1162 -0.0214  0.1813
   21loPI   C6A  332  13.613  10.461   7.372  0.3354  0.2727  0.0326
   21loPI   C1B  333  14.738  10.645   8.810 -0.0208  0.0550  0.1947
   21loPI   C2B  334  14.961  10.519   8.458 -0.2781 -0.1905 -0.1055
   21loPI   C3B  335  15.081  10.348   8.119  0.1602  0.1992 -0.2891
   21loPI   C4B  336  15.138  10.275   7.735  0.1220  0.4193  0.0436
   22loPI    C1  337   8.249   1.836   9.766  0.1137  0.0317  0.0236
   22loPI    C2  338   8.196   1.590  10.077 -0.1382 -0.0780 -0.1031
   22loPI    C3  339   8.155   1.985  10.125 -0.0544 -0.0845  0.0290
   22loPI   PO4  340   8.121   1.800   9.555  0.0461 -0.1889  0.1241
   22loPI   GL1  341   8.257   1.742   9.154  0.1538  0.0370 -0.3256
   22loPI   GL2  342   8.608   1.670   9.078  0.1487  0.0787 -0.2427
   22loPI   C1A  343   8.046   1.901   8.737  0.0065  0.0408 -0.0854
   22loPI   C2A  344   7.732   1.928   8.411  0.2200 -0.1094  0.2552
   22loPI   C3A  345   7.545   2.000   8.042 -0.0411  0.1169 -0.1806
   22loPI   C4A  346   7.493   1.831   7.574  0.1717  0.5596 -0.2064
   22loPI   C5A  347   7.313   1.536   7.212 -0.2518  0.1512 -0.0977
   22loPI   C6A  348   7.151   1.491   6.778 -0.4009  0.3632 -0.2032
   22loPI   C1B  349   8.543   1.612   8.697  0.2083 -0.2696  0.2237
   22loPI   C2B  350   8.509   1.264   8.448 -0.0013 -0.1571  0.0124
   22loPI   C3B  351   8.636   1.354   8.091  0.0568  0.1904 -0.1057
   22loPI   C4B  352   8.431   1.207   7.691  0.1621  0.1124 -0.0981
   23loPI    C1  353   9.074   5.871   9.870  0.1794  0.1032 -0.0996
   23loPI    C2  354   9.122   6.266   9.905  0.2310  0.0833  0.0589
   23loPI    C3  355   9.127   6.034  10.231 -0.0404 -0.0216 -0.0087
   23loPI   PO4  356   8.893   5.908   9.669  0.0366  0.0381 -0.0950
   23loPI   GL1  357   9.051   5.660   9.303  0.1285  0.1333  0.2461
   23loPI   GL2  358   9.006   5.846   9.015  0.0780 -0.0098  0.0166
   23loPI   C1A  359   8.786   5.413   8.970  0.1492 -0.1198  0.1429
   23loPI   C2A  360   8.800   5.166   8.573 -0.1647 -0.1592 -0.2991
   23loPI   C3A  361   9.024   5.241   8.204 -0.0671 -0.3683 -0.0593
   23loPI   C4A  362   9.289   5.329   7.901 -0.1065 -0.2720  0.2190
   23loPI   C5A  363   9.366   5.625   7.649  0.0026  0.2712  0.1893
   23loPI   C6A  364   9.476   5.959   7.323 -0.0438  0.3587 -0.0557
   23loPI   C1B  365   9.058   5.729   8.554  0.0147  0.0553 -0.1792
   23loPI   C2B  366   9.265   5.761   8.136 -0.1217 -0.0893 -0.1914
   23loPI   C3B  367   9.680   5.963   7.983 -0.0157 -0.1165 -0.2658
   23loPI   C4B  368  10.002   5.912   7.641  0.3192  0.1047  0.2428
   24loPI    C1  369  14.549   3.036   9.942 -0.0734  0.0682  0.0400
   24loPI    C2  370  14.867   3.083  10.180  0.1833  0.1486 -0.3105
   24loPI    C3  371  14.727   2.716  10.103  0.0361  0.1276  0.0378
   24loPI   PO4  372  14.562   3.209   9.702 -0.2365  0.2809  0.0956
   24loPI   GL1  373  14.790   3.240   9.262 -0.3206 -0.1775 -0.4117
   24loPI   GL2  374  14.992   3.542   9.310  0.1119 -0.2706 -0.0371
   24loPI   C1A  375  14.919   3.251   8.885  0.2873 -0.0015 -0.1512
   24loPI   C2A  376  15.209   2.981   8.716 -0.2008  0.0068 -0.0594
   24loPI   C3A  377  15.394   2.841   8.355  0.0684  0.2726 -0.2372
   24loPI   C4A  378  15.345   2.777   7.865 -0.0901 -0.0977 -0.0308
   24loPI   C5A  379  15.424   2.921   7.555 -0.0276  0.0611  0.3594
   24loPI   C6A  380  15.196   2.969   7.301 -0.2420  0.0390 -0.1222
   24loPI   C1B  381  15.254   3.674   9.022 -0.0875 -0.0644 -0.1028
   24loPI   C2B  382  15.092   3.662   8.602  0.0489  0.3337  0.1409
   24loPI   C3B  383  15.024   3.299   8.372 -0.2844 -0.1499 -0.0300
   24loPI   C4B  384  15.043   3.188   7.871 -0.0257 -0.0207 -0.3061
   25loPI    C1  385   7.854  14.116   9.723 -0.0473  0.0098  0.0492
   25loPI    C2  386   8.190  14.132   9.940  0.0470 -0.1387 -0.0837
   25loPI    C3  387   7.849  14.007  10.108  0.0431  0.0689  0.0675
   25loPI   PO4  388   7.903  13.966   9.535 -0.1472 -0.1997  0.1779
   25loPI   GL1  389   8.151  14.094   9.183  0.1014  0.2985 -0.0401
   25loPI   GL2  390   8.065  14.300   9.240 -0.4271  0.2644  0.3170
   25loPI   C1A  391   8.323  13.944   8.816 -0.0178 -0.0010 -0.1930
   25loPI   C2A  392   8.356  13.937   8.420  0.3826  0.0802  0.2382
   25loPI   C3A  393   8.355  14.068   8.034 -0.1071  0.1447  0.0377
   25loPI   C4A  394   8.260  14.273   7.672 -0.0457  0.1907  0.2533
   25loPI   C5A  395   7.932  14.310   7.372 -0.0857  0.1659  0.0013
   25loPI   C6A  396   7.462  14.221   7.432 -0.0120  0.0835 -0.0348
   25loPI   C1B  397   7.790  14.374   8.858 -0.0823 -0.0324  0.1377
   25loPI   C2B  398   7.876  14.338   8.493 -0.3841  0.2923  0.1514
   25loPI   C3B  399   7.871  14.322   8.025  0.1671 -0.2333  0.1633
   25loPI   C4B  400   7.814  13.945   7.697  0.0999 -0.2815 -0.1658
   26loPI    C1  401   4.939   7.309   9.971  0.0509 -0.1975 -0.0197
   26loPI    C2  402   5.092   7.678   9.950 -0.1647 -0.1141 -0.1580
   26loPI    C3  403   4.963   7.534  10.301  0.1500 -0.1547 -0.0559
   26loPI   PO4  404   5.128   7.109   9.793 -0.4878  0.1715 -0.0804
   26loPI   GL1  405   5.223   7.025   9.324  0.1212 -0.3071 -0.2050
   26loPI   GL2  406   5.507   7.169   9.093 -0.0635 -0.0741 -0.2563
   26loPI   C1A  407   5.063   7.140   8.988  0.0951 -0.1888  0.1900
   26loPI   C2A  408   4.969   6.905   8.636  0.1697 -0.4276  0.0160
   26loPI   C3A  409   4.889   6.601   8.306 -0.2306 -0.3733 -0.1217
   26loPI   C4A  410   4.891   6.498   7.872 -0.1665 -0.0631 -0.0008
   26loPI   C5A  411   4.902   6.350   7.545 -0.0504 -0.1287  0.2443
   26loPI   C6A  412   4.779   6.212   7.191  0.2181 -0.2138  0.0208
   26loPI   C1B  413   5.486   7.118   8.536 -0.2968  0.1009  0.1062
   26loPI   C2B  414   5.590   7.186   8.151  0.2588 -0.1620  0.0692
   26loPI   C3B  415   5.627   7.455   7.819 -0.1173 -0.0115 -0.0227
   26loPI   C4B  416   5.524   7.400   7.392 -0.0101  0.1507 -0.1123
   27loPI    C1  417   4.733  14.189   9.836  0.0911  0.2787  0.1261
   27loPI    C2  418   4.545  13.969  10.111  0.0392  0.0376 -0.0979
   27loPI    C3  419   4.358  14.279   9.941  0.0206  0.0989  0.0329
   27loPI   PO4  420   4.835  14.057   9.632 -0.0949  0.2533 -0.4618
   27loPI   GL1  421   5.040  13.709   9.287  0.0555  0.0646 -0.1586
   27loPI   GL2  422   5.031  13.335   9.246  0.1344 -0.1369 -0.1282
   27loPI   C1A  423   5.104  13.689   8.918  0.0450 -0.1539  0.3385
   27loPI   C2A  424   5.120  13.373   8.590 -0.2338 -0.1839 -0.1328
   27loPI   C3A  425   5.201  13.166   8.206 -0.0932  0.0240 -0.0270
   27loPI   C4A  426   5.333  13.054   7.824 -0.3677 -0.1124  0.0775
   27loPI   C5A  427   5.279  13.340   7.521 -0.0435 -0.0364  0.3470
   27loPI   C6A  428   5.189  13.746   7.485  0.2508 -0.0387 -0.1387
   27loPI   C1B  429   4.768  13.302   8.930  0.0957 -0.4523 -0.0665
   27loPI   C2B  430   4.667  13.576   8.625  0.0544 -0.0423 -0.1411
   27loPI   C3B  431   4.420  13.877   8.271  0.3849 -0.0902 -0.1874
   27loPI   C4B  432   4.306  14.264   8.274 -0.0131  0.0766 -0.3315
   28loPI    C1  433  16.997  10.417   9.434  0.0660  0.1025  0.1033
   28loPI    C2  434  17.365  10.552   9.352  0.1927 -0.0991  0.3252
   28loPI    C3  435  17.206  10.611   9.715 -0.0839  0.1770  0.1646
   28loPI   PO4  436  17.006  10.191   9.338 -0.0303 -0.1711 -0.0183
   28loPI   GL1  437  17.162  10.087   8.882  0.3454 -0.2085 -0.2319
   28loPI   GL2  438  17.083  10.433   8.915  0.0649 -0.0129 -0.3238
   28loPI   C1A  439  17.458  10.061   8.658 -0.3720  0.2783 -0.1375
   28loPI   C2A  440  17.726  10.243   8.528 -0.1900  0.0637  0.3196
   28loPI   C3A  441  17.892  10.047   8.212  0.0130  0.3086  0.1544
   28loPI   C4A  442  17.661  10.006   7.863 -0.2560 -0.0673 -0.0779
   28loPI   C5A  443  17.789   9.933   7.401  0.0152  0.1834 -0.1338
   28loPI   C6A  444  17.912   9.791   6.949 -0.1236  0.0385 -0.0621
   28loPI   C1B  445  17.193  10.415   8.455 -0.1538  0.0289  0.0948
   28loPI   C2B  446  17.528  10.440   8.079  0.2170  0.0264 -0.1994
   28loPI   C3B  447  17.515  10.587   7.643  0.2431  0.0279 -0.1081
   28loPI   C4B  448  17.405  10.850   7.380 -0.1332  0.1495  0.3372
   29loPI    C1  449   5.357  18.896  10.333 -0.1591 -0.0044 -0.1693
   29loPI    C2  450   4.996  18.953  10.496 -0.0955 -0.2265  0.0553
   29loPI    C3  451   5.202  18.620  10.577  0.0128 -0.2625 -0.3472
   29loPI   PO4  452   5.436  18.937  10.025 -0.0380 -0.2040  0.0963
   29loPI   GL1  453   5.396  18.854   9.581 -0.1174 -0.3234 -0.2078
   29loPI   GL2  454   5.033  18.896   9.430  0.0367 -0.0129 -0.1649
   29loPI   C1A  455   5.471  19.040   9.179  0.0118  0.0303  0.0753
   29loPI   C2A  456   5.447  19.042   8.721 -0.2829 -0.2603  0.0578
   29loPI   C3A  457   5.450  19.223   8.272  0.0658 -0.1562 -0.3521
   29loPI   C4A  458   5.548  19.174   7.929 -0.0144  0.2344  0.1522
   29loPI   C5A  459   5.837  19.188   7.609  0.0104  0.0843  0.0390
   29loPI   C6A  460   6.126  19.497   7.479  0.0438  0.2734 -0.0694
   29loPI   C1B  461   5.014  18.834   8.929  0.0721  0.1703 -0.2964
   29loPI   C2B  462   5.036  18.961   8.460 -0.3647 -0.0951  0.1636
   29loPI   C3B  463   5.058  18.949   8.073  0.1833  0.0788 -0.0041
   29loPI   C4B  464   4.999  18.839   7.655  0.3311 -0.3684 -0.1007
   30loPI    C1  465  19.495   0.309  10.053  0.0191 -0.1025  0.0931
   30loPI    C2  466  19.254   0.587   9.896  0.2002  0.0488  0.0812
   30loPI    C3  467  19.415   0.643  10.259  0.1763 -0.0752  0.1111
   30loPI   PO4  468  19.629   0.206   9.848  0.1916 -0.0829 -0.0455
   30loPI   GL1  469  19.638   0.285   9.419 -0.1487 -0.2590 -0.0485
   30loPI   GL2  470  19.560   0.609   9.502 -0.3298  0.0324  0.0077
   30loPI   C1A  471  19.917   0.194   9.032 -0.2563 -0.0328  0.0769
   30loPI   C2A  472  19.951   0.188   8.571  0.1967 -0.0703 -0.0364
   30loPI   C3A  473  19.807   0.294   8.089  0.4542  0.0230 -0.0893
   30loPI   C4A  474  19.535   0.452   7.929  0.0030  0.2245 -0.1244
   30loPI   C5A  475  19.333   0.664   7.733  0.3804  0.2695  0.0895
   30loPI   C6A  476  19.185   0.875   7.403 -0.3156 -0.0101 -0.0028
   30loPI   C1B  477  19.533   0.856   9.236  0.0021 -0.0682 -0.1075
   30loPI   C2B  478  19.459   0.966   8.800  0.0086 -0.2097  0.1227
   30loPI   C3B  479  19.216   0.879   8.396 -0.0363 -0.0408 -0.0344
   30loPI   C4B  480  18.933   0.821   8.014  0.3477 -0.0542  0.1647
   31loPI    C1  481  15.147  18.372   9.200 -0.0887  0.0313 -0.1116
   31loPI    C2  482  15.346  18.385   9.547 -0.2057  0.0438 -0.0443
   31loPI    C3  483  15.249  18.724   9.359 -0.1893  0.0387 -0.0623
   31loPI   PO4  484  15.316  18.179   9.052  0.2965 -0.2865 -0.2470
   31loPI   GL1  485  15.765  18.107   8.958  0.1566  0.1657 -0.0769
   31loPI   GL2  486  15.919  17.963   8.773  0.2030 -0.0097  0.1376
   31loPI   C1A  487  15.575  18.109   8.477  0.1786  0.2447  0.0730
   31loPI   C2A  488  15.506  17.958   8.163  0.1856  0.1978 -0.0874
   31loPI   C3A  489  15.252  17.995   7.845 -0.3349 -0.1082 -0.1984
   31loPI   C4A  490  15.113  17.997   7.453 -0.0578 -0.1298  0.1843
   31loPI   C5A  491  15.066  18.155   7.053 -0.1016 -0.1401  0.0021
   31loPI   C6A  492  14.791  18.077   6.854  0.2101  0.1073 -0.3283
   31loPI   C1B  493  16.074  18.132   8.486  0.2236  0.0059 -0.1458
   31loPI   C2B  494  16.175  18.113   8.038  0.2527  0.1722  0.0364
   31loPI   C3B  495  16.135  18.063   7.624  0.1311 -0.3184  0.1644
   31loPI   C4B  496  16.102  17.711   7.287  0.1020 -0.1173 -0.1504
   32loPI    C1  497  18.579   6.304   9.840 -0.0101 -0.3009  0.1255
   32loPI    C2  498  18.388   6.325  10.191 -0.0127 -0.0050  0.1088
   32loPI    C3  499  18.788   6.333  10.180 -0.0162  0.2101  0.0933
   32loPI   PO4  500  18.408   6.473   9.710 -0.0816 -0.1792 -0.4061
   32loPI   GL1  501  18.503   6.565   9.245  0.1076 -0.6468  0.1214
   32loPI   GL2  502  18.176   6.381   9.192 -0.2016 -0.0851  0.0707
   32loPI   C1A  503  18.461   6.424   8.785  0.1328  0.2251  0.3671
   32loPI   C2A  504  18.765   6.452   8.416  0.0156 -0.1302 -0.0098
   32loPI   C3A  505  18.868   6.267   7.994  0.2861 -0.2001  0.0483
   32loPI   C4A  506  19.271   6.278   7.759 -0.1323  0.3942 -0.0024
   32loPI   C5A  507  19.679   6.386   7.858 -0.5090  0.1481 -0.2348
   32loPI   C6A  508  20.080   6.336   7.756 -0.2352  0.1020  0.3542
   32loPI   C1B  509  18.041   6.691   8.903  0.2789  0.0729  0.0130
   32loPI   C2B  510  17.925   6.987   8.644 -0.0877  0.1887 -0.1760
   32loPI   C3B  511  18.012   7.206   8.257 -0.0343 -0.0340  0.4146
   32loPI   C4B  512  18.129   7.562   8.041 -0.1253 -0.0914 -0.5862
   33loPI    C1  513  11.891   6.126  10.249  0.1620  0.0546 -0.1746
   33loPI    C2  514  11.497   6.066  10.270  0.1758  0.0011 -0.0591
   33loPI    C3  515  11.665   6.362  10.479  0.2257 -0.1140  0.0661
   33loPI   PO4  516  11.981   6.145   9.986 -0.0997  0.0119 -0.0880
   33loPI   GL1  517  12.094   6.220   9.567  0.0406 -0.1549  0.0797
   33loPI   GL2  518  11.792   6.344   9.346  0.0178 -0.1087  0.0933
   33loPI   C1A  519  12.193   5.925   9.285 -0.1872 -0.1847  0.1775
   33loPI   C2A  520  12.226   5.686   8.920  0.1292  0.1839 -0.0621
   33loPI   C3A  521  12.397   5.382   8.547 -0.0285  0.0013 -0.0102
   33loPI   C4A  522  12.543   5.548   8.149  0.1501 -0.1613 -0.0423
   33loPI   C5A  523  12.782   5.671   7.830  0.2655  0.3555  0.1885
   33loPI   C6A  524  12.694   5.772   7.424  0.0687 -0.0833  0.1722
   33loPI   C1B  525  12.155   6.411   9.013 -0.1359 -0.2260 -0.0909
   33loPI   C2B  526  12.417   6.421   8.482 -0.0362  0.0733  0.1318
   33loPI   C3B  527  12.428   6.464   8.121  0.0438  0.0036  0.1399
   33loPI   C4B  528  12.404   6.546   7.658  0.1629  0.0216  0.1710
   34loPI    C1  529   7.666  18.670  10.243 -0.3561  0.1872 -0.2915
   34loPI    C2  530   7.784  19.052  10.261  0.1584  0.0422 -0.4053
   34loPI    C3  531   7.417  18.950  10.385  0.0740  0.5436 -0.2162
   34loPI   PO4  532   7.736  18.651   9.937  0.0116  0.2495  0.1553
   34loPI   GL1  533   7.526  18.528   9.594  0.1272  0.0577 -0.0449
   34loPI   GL2  534   7.124  18.631   9.492 -0.0117  0.2598 -0.3123
   34loPI   C1A  535   7.469  18.611   9.177 -0.2940  0.0835 -0.2685
   34loPI   C2A  536   7.367  18.361   8.838 -0.0530  0.0887  0.1025
   34loPI   C3A  537   7.259  18.235   8.470 -0.0893 -0.0416 -0.0735
   34loPI   C4A  538   7.020  18.216   8.018  0.1037 -0.2289 -0.4221
   34loPI   C5A  539   6.981  18.337   7.630 -0.3672 -0.3460  0.0637
   34loPI   C6A  540   7.034  18.125   7.188 -0.1996 -0.3066 -0.0990
   34loPI   C1B  541   6.992  18.716   9.036 -0.0722  0.2703 -0.1106
   34loPI   C2B  542   6.900  18.651   8.627 -0.1796  0.4603 -0.0486
   34loPI   C3B  543   6.876  18.653   8.242 -0.0864 -0.0193  0.2241
   34loPI   C4B  544   6.535  18.432   7.940 -0.1487  0.1627 -0.1145
   35loPI    C1  545   3.692   5.029   9.719  0.0516  0.0801 -0.1024
   35loPI    C2  546   3.974   4.746   9.733 -0.0616 -0.0163  0.4203
   35loPI    C3  547   3.588   4.646   9.767 -0.1277  0.1670  0.2324
   35loPI   PO4  548   3.795   5.176   9.522  0.0709  0.2237 -0.1798
   35loPI   GL1  549   3.772   5.170   9.133 -0.0764 -0.0626 -0.0536
   35loPI   GL2  550   3.423   5.276   9.122 -0.2930 -0.0544 -0.0378
   35loPI   C1A  551   3.891   5.345   8.846 -0.1407  0.0662  0.1020
   35loPI   C2A  552   4.103   5.325   8.541 -0.0285  0.0496  0.1622
   35loPI   C3A  553   4.122   5.110   8.155  0.1681  0.1724  0.1791
   35loPI   C4A  554   4.144   4.859   7.812  0.1573 -0.1578 -0.0491
   35loPI   C5A  555   3.918   4.801   7.377 -0.3474  0.1291  0.1289
   35loPI   C6A  556   3.923   4.298   7.175 -0.0256  0.2588 -0.1262
   35loPI   C1B  557   3.441   5.193   8.719 -0.0137 -0.2503  0.3096
   35loPI   C2B  558   3.302   5.210   8.277  0.1050  0.0666 -0.0622
   35loPI   C3B  559   3.221   4.931   7.933 -0.0038 -0.1332  0.2340
   35loPI   C4B  560   3.052   4.475   7.945  0.3010  0.3443 -0.0060
   36loPI    C1  561   6.987  11.078  10.090 -0.2053  0.0018 -0.0978
   36loPI    C2  562   7.260  11.371  10.087 -0.2348  0.0300 -0.0376
   36loPI    C3  563   7.078  11.270  10.429 -0.0240 -0.2454 -0.0031
   36loPI   PO4  564   6.800  11.157   9.850 -0.1991 -0.0289  0.1306
   36loPI   GL1  565   6.909  11.249   9.330 -0.0152  0.1086  0.2527
   36loPI   GL2  566   6.709  10.998   9.374  0.2040  0.6279 -0.0986
   36loPI   C1A  567   7.316  11.407   9.271 -0.1053  0.3153 -0.0773
   36loPI   C2A  568   7.759  11.486   9.187 -0.1382  0.2399  0.1229
   36loPI   C3A  569   7.962  11.617   8.759 -0.0164  0.0696 -0.2544
   36loPI   C4A  570   7.857  11.742   8.493  0.0469 -0.1642 -0.0126
   36loPI   C5A  571   7.719  12.005   8.159 -0.3682  0.0899 -0.1232
   36loPI   C6A  572   7.440  12.046   8.008  0.0375 -0.1128 -0.3951
   36loPI   C1B  573   6.538  11.115   8.959  0.0080  0.4077  0.2849
   36loPI   C2B  574   6.419  11.246   8.562  0.2379 -0.2894 -0.3007
   36loPI   C3B  575   6.490  11.175   8.057  0.3138  0.3572  0.0641
   36loPI   C4B  576   6.154  11.021   7.731  0.0008  0.0777 -0.0597
   37loPI    C1  577   8.903   4.391   9.801 -0.0836 -0.0157  0.0439
   37loPI    C2  578   9.108   4.106   9.993  0.2022  0.0728 -0.1245
   37loPI    C3  579   9.080   4.473  10.150 -0.2011 -0.0540  0.1129
   37loPI   PO4  580   8.974   4.401   9.549 -0.0907  0.3024 -0.0585
   37loPI   GL1  581   8.837   4.511   9.186  0.0330 -0.0202  0.1741
   37loPI   GL2  582   8.718   4.157   9.102  0.0013 -0.0949  0.1046
   37loPI   C1A  583   9.052   4.360   8.800  0.2993  0.1134  0.0318
   37loPI   C2A  584   9.025   4.365   8.475  0.3735  0.1811  0.0809
   37loPI   C3A  585   8.773   4.289   8.241 -0.1993  0.1798  0.0276
   37loPI   C4A  586   8.319   4.417   8.163  0.8060 -0.1636 -0.0178
   37loPI   C5A  587   8.020   4.382   7.794 -0.1720  0.0325 -0.1663
   37loPI   C6A  588   7.982   4.177   7.354 -0.0335 -0.1206 -0.1135
   37loPI   C1B  589   8.888   3.850   8.759  0.2470 -0.1250 -0.0905
   37loPI   C2B  590   8.782   3.551   8.364  0.4326 -0.3020  0.0235
   37loPI   C3B  591   8.505   3.566   8.051 -0.0128  0.0846 -0.1027
   37loPI   C4B  592   8.134   3.706   7.763 -0.0792 -0.0051  0.1179
   38loPI    C1  593  16.313  18.175   9.635 -0.1731  0.0542 -0.0398
   38loPI    C2  594  16.319  18.572   9.684  0.0025  0.0356  0.1006
   38loPI    C3  595  16.248  18.332   9.997  0.1410 -0.0514  0.0658
   38loPI   PO4  596  16.462  18.133   9.348 -0.3170  0.2969 -0.0137
   38loPI   GL1  597  16.426  18.105   8.921 -0.1817 -0.0635 -0.2143
   38loPI   GL2  598  16.274  18.325   8.923  0.2845  0.0286 -0.1560
   38loPI   C1A  599  16.547  17.830   8.541  0.0400  0.0089  0.0803
   38loPI   C2A  600  16.644  17.879   8.096 -0.1027  0.0441  0.1116
   38loPI   C3A  601  16.986  17.817   7.660  0.2276 -0.0802 -0.0972
   38loPI   C4A  602  16.764  17.766   7.220 -0.0213  0.2454 -0.3023
   38loPI   C5A  603  16.454  17.584   6.965 -0.3663  0.1623  0.0177
   38loPI   C6A  604  16.047  17.590   6.805  0.0516 -0.2480 -0.1739
   38loPI   C1B  605  16.280  18.593   8.673  0.1880  0.1430 -0.3450
   38loPI   C2B  606  16.376  18.866   8.408 -0.0840 -0.0552  0.2956
   38loPI   C3B  607  16.145  19.066   8.014  0.0970  0.2338 -0.0546
   38loPI   C4B  608  15.889  19.289   7.684 -0.1968  0.1009 -0.1728
   39loPI    C1  609  18.300   2.122  10.113 -0.3051 -0.0365  0.1013
   39loPI    C2  610  18.604   2.247  10.342 -0.1347 -0.1480 -0.0613
   39loPI    C3  611  18.230   2.367  10.422  0.0238  0.4929 -0.2287
   39loPI   PO4  612  18.432   2.077   9.901 -0.0354  0.2185 -0.2546
   39loPI   GL1  613  18.571   2.294   9.621  0.2234 -0.1026 -0.0209
   39loPI   GL2  614  18.750   1.966   9.522  0.0603  0.0745 -0.0823
   39loPI   C1A  615  18.507   2.133   9.192 -0.4641 -0.1818 -0.0243
   39loPI   C2A  616  18.567   2.118   8.790 -0.1012  0.0575 -0.0920
   39loPI   C3A  617  18.733   2.069   8.397  0.1933  0.2987  0.1224
   39loPI   C4A  618  18.602   2.119   7.919 -0.1724  0.0238 -0.2918
   39loPI   C5A  619  18.574   2.337   7.530  0.1220  0.1939 -0.1765
   39loPI   C6A  620  18.855   2.690   7.393 -0.2498  0.0085  0.2545
   39loPI   C1B  621  19.006   1.995   9.130 -0.2679 -0.0281  0.0480
   39loPI   C2B  622  19.159   1.892   8.646  0.2092 -0.0166 -0.1032
   39loPI   C3B  623  19.188   1.929   8.128  0.0280  0.1737 -0.1484
   39loPI   C4B  624  19.078   2.184   7.748  0.2640  0.1868 -0.1118
   40loPI    C1  625   6.924   9.563  10.155 -0.0053  0.1214  0.1193
   40loPI    C2  626   6.657   9.370  10.382  0.0193 -0.0284  0.0220
   40loPI    C3  627   6.803   9.723  10.501 -0.1187 -0.0110  0.1415
   40loPI   PO4  628   6.819   9.509   9.891  0.2144 -0.0279 -0.1808
   40loPI   GL1  629   6.836   9.803   9.565  0.0149 -0.2373 -0.3001
   40loPI   GL2  630   6.519   9.826   9.698 -0.1694  0.0876 -0.1853
   40loPI   C1A  631   6.805   9.501   9.242  0.1450 -0.1980 -0.1111
   40loPI   C2A  632   6.969   9.367   8.868  0.0369  0.0152 -0.2611
   40loPI   C3A  633   7.088   9.531   8.516  0.0711  0.0564 -0.1242
   40loPI   C4A  634   7.374   9.603   8.219 -0.2138 -0.0526  0.2577
   40loPI   C5A  635   7.268   9.566   7.723  0.0475  0.0994  0.0952
   40loPI   C6A  636   7.057   9.311   7.494  0.0861 -0.0928  0.2034
   40loPI   C1B  637   6.425   9.843   9.245 -0.3319 -0.0987 -0.0006
   40loPI   C2B  638   6.620   9.798   8.789  0.2348  0.0400 -0.2016
   40loPI   C3B  639   6.666   9.707   8.389 -0.1860  0.1874  0.0169
   40loPI   C4B  640   6.808   9.757   7.914 -0.1677  0.2765  0.0623
   41loPI    C1  641  14.761  13.215   9.747 -0.0352 -0.3325  0.0432
   41loPI    C2  642  14.565  13.556   9.821  0.0400 -0.2258 -0.2353
   41loPI    C3  643  14.870  13.446  10.055  0.0737 -0.0553 -0.1980
   41loPI   PO4  644  14.825  13.205   9.441 -0.0399  0.1280 -0.2321
   41loPI   GL1  645  15.028  13.372   9.085  0.1704 -0.0492 -0.0564
   41loPI   GL2  646  15.019  13.002   9.009  0.2054 -0.1469  0.1755
   41loPI   C1A  647  15.231  13.496   8.744  0.3514  0.1529 -0.0907
   41loPI   C2A  648  15.383  13.221   8.453 -0.0128  0.0869 -0.1257
   41loPI   C3A  649  15.514  13.091   8.060 -0.2020 -0.1630  0.0452
   41loPI   C4A  650  15.579  13.252   7.637 -0.3245 -0.0223 -0.4134
   41loPI   C5A  651  15.668  13.205   7.235 -0.1800 -0.0643 -0.1400
   41loPI   C6A  652  15.535  12.887   6.956 -0.3699 -0.0111 -0.0566
   41loPI   C1B  653  14.955  13.002   8.542 -0.1743 -0.1083  0.1759
   41loPI   C2B  654  14.977  13.003   8.126 -0.0901  0.3370  0.0944
   41loPI   C3B  655  15.032  12.902   7.730  0.0036  0.1259 -0.0707
   41loPI   C4B  656  15.322  12.790   7.485 -0.2309 -0.1143  0.0582
   42loPI    C1  657   3.586   2.982   9.893  0.3012 -0.1962  0.2860
   42loPI    C2  658   3.371   2.852  10.204 -0.1793  0.0705  0.0773
   42loPI    C3  659   3.637   3.146  10.254 -0.0096 -0.1164  0.2966
   42loPI   PO4  660   3.322   2.965   9.642 -0.1512 -0.2050  0.4529
   42loPI   GL1  661   3.347   3.244   9.298  0.0449  0.1715  0.3870
   42loPI   GL2  662   3.082   3.205   9.223 -0.2214  0.2063 -0.1294
   42loPI   C1A  663   3.367   3.368   8.849 -0.3908 -0.0478  0.4037
   42loPI   C2A  664   3.511   3.457   8.367  0.3377 -0.0709 -0.1007
   42loPI   C3A  665   3.852   3.388   7.980  0.2165 -0.0878  0.0257
   42loPI   C4A  666   3.668   3.468   7.577  0.0759 -0.2288 -0.0816
   42loPI   C5A  667   3.674   3.395   7.113  0.0166  0.0026  0.1641
   42loPI   C6A  668   3.733   3.414   6.664 -0.0611 -0.0540  0.0367
   42loPI   C1B  669   2.999   3.597   9.054 -0.0633 -0.2792  0.1364
   42loPI   C2B  670   2.916   3.555   8.647 -0.1123 -0.1852  0.3610
   42loPI   C3B  671   2.978   3.718   8.270 -0.2427  0.0675 -0.0911
   42loPI   C4B  672   2.814   4.070   8.026  0.1562  0.3595  0.4295
   43loPI    C1  673  14.911   9.945   9.919 -0.0245  0.0775 -0.0881
   43loPI    C2  674  14.878  10.127  10.273  0.0389  0.0253 -0.0551
   43loPI    C3  675  15.233   9.990  10.151 -0.0019 -0.0455 -0.0948
   43loPI   PO4  676  14.717  10.123   9.766  0.1928 -0.4098  0.1549
   43loPI   GL1  677  14.653   9.965   9.376  0.1377  0.2694  0.5633
   43loPI   GL2  678  14.598   9.740   9.205 -0.0153  0.1352 -0.2353
   43loPI   C1A  679  14.994   9.831   8.983 -0.4839  0.0351  0.0089
   43loPI   C2A  680  14.783   9.840   8.609 -0.1167  0.0427 -0.1475
   43loPI   C3A  681  14.780   9.914   8.140  0.1868  0.2336 -0.3418
   43loPI   C4A  682  14.523   9.951   7.840  0.1866 -0.1390  0.0995
   43loPI   C5A  683  14.352  10.093   7.443 -0.2198  0.1583  0.1586
   43loPI   C6A  684  13.979  10.228   7.177  0.1770 -0.0496  0.0181
   43loPI   C1B  685  14.518  10.109   8.942 -0.2032  0.1427  0.1804
   43loPI   C2B  686  14.393  10.349   8.553  0.2243 -0.3580 -0.2940
   43loPI   C3B  687  14.488  10.446   8.184  0.0015 -0.2247 -0.0061
   43loPI   C4B  688  14.560  10.446   7.725  0.1322 -0.0095 -0.0574
   44loPI    C1  689   2.017   0.143  10.115 -0.1511  0.2279  0.1366
   44loPI    C2  690   1.661   0.099  10.292 -0.1980  0.0461  0.0002
   44loPI    C3  691   1.983   0.191  10.510 -0.3083  0.1062  0.1390
   44loPI   PO4  692   1.945   0.399   9.892 -0.0563  0.2123  0.2147
   44loPI   GL1  693   1.700   0.352   9.553  0.2488  0.0282 -0.1503
   44loPI   GL2  694   1.720   0.064   9.671 -0.1209  0.5799  0.2662
   44loPI   C1A  695   1.783   0.463   9.118  0.0968 -0.2846 -0.1182
   44loPI   C2A  696   1.898   0.460   8.656 -0.3303  0.0165 -0.2293
   44loPI   C3A  697   2.070   0.453   8.317  0.3381  0.2648 -0.2009
   44loPI   C4A  698   2.179   0.604   7.829  0.1176 -0.0532 -0.2444
   44loPI   C5A  699   2.242   0.517   7.406 -0.1048 -0.1219 -0.3112
   44loPI   C6A  700   2.341   0.718   6.969  0.0848  0.4024 -0.1204
   44loPI   C1B  701   1.662  -0.026   9.168 -0.0297 -0.0273 -0.2497
   44loPI   C2B  702   1.800  -0.002   8.659  0.2144 -0.4567  0.1696
   44loPI   C3B  703   1.825  -0.074   8.211 -0.0242 -0.1066 -0.3331
   44loPI   C4B  704   1.890   0.138   7.852  0.2661 -0.0574 -0.1273
   45loPI    C1  705  14.979   7.030   9.912  0.2266 -0.1621  0.0047
   45loPI    C2  706  14.749   7.093  10.234 -0.1186 -0.1711 -0.2350
   45loPI    C3  707  15.015   7.370  10.120 -0.0529 -0.1322  0.0080
   45loPI   PO4  708  14.840   6.757   9.819  0.1828  0.0262 -0.2572
   45loPI   GL1  709  14.925   6.700   9.486  0.2500 -0.0530 -0.0116
   45loPI   GL2  710  15.195   6.861   9.176 -0.5371  0.0956 -0.1116
   45loPI   C1A  711  14.925   6.412   9.083  0.1491 -0.2607 -0.0241
   45loPI   C2A  712  14.817   6.475   8.636 -0.1478  0.1066 -0.1016
   45loPI   C3A  713  14.897   6.579   8.216 -0.3288 -0.0452  0.0953
   45loPI   C4A  714  14.778   6.745   7.860 -0.1495 -0.0979 -0.2576
   45loPI   C5A  715  14.868   7.147   7.498  0.1929  0.1378  0.1811
   45loPI   C6A  716  14.784   7.585   7.189 -0.0776  0.2003  0.2384
   45loPI   C1B  717  15.495   6.835   8.895  0.0345  0.2343 -0.2387
   45loPI   C2B  718  15.815   6.615   8.587  0.2395 -0.0485 -0.1647
   45loPI   C3B  719  16.206   6.513   8.483 -0.2861 -0.1070 -0.1437
   45loPI   C4B  720  16.485   6.477   8.139  0.0793  0.0871 -0.0971
   46loPI    C1  721  11.815  18.127   9.865 -0.0757 -0.1386  0.0887
   46loPI    C2  722  11.546  17.882  10.030 -0.0381 -0.1128  0.1890
   46loPI    C3  723  11.935  17.835  10.111 -0.0202 -0.0948  0.1138
   46loPI   PO4  724  11.855  18.095   9.652  0.0976 -0.0913  0.1217
   46loPI   GL1  725  11.956  18.286   9.242  0.2331  0.1495 -0.4811
   46loPI   GL2  726  11.687  18.061   9.193 -0.3567  0.0309  0.1018
   46loPI   C1A  727  11.825  18.460   8.744 -0.1492  0.0863  0.0595
   46loPI   C2A  728  11.864  18.727   8.341  0.0370 -0.2463 -0.4953
   46loPI   C3A  729  12.072  18.840   8.047  0.0101 -0.1542 -0.0862
   46loPI   C4A  730  12.255  18.864   7.693  0.1885 -0.0615  0.0749
   46loPI   C5A  731  12.439  18.691   7.331 -0.3315  0.2411  0.3279
   46loPI   C6A  732  12.699  18.593   7.001  0.1838 -0.1775 -0.1291
   46loPI   C1B  733  11.596  17.968   8.751 -0.1472  0.0342 -0.0873
   46loPI   C2B  734  11.528  17.995   8.249 -0.1733  0.1887  0.0839
   46loPI   C3B  735  11.531  17.999   7.821 -0.2347  0.0890 -0.1338
   46loPI   C4B  736  11.727  18.076   7.407  0.1199  0.0978  0.0686
   47loPI    C1  737   5.429  10.743  10.148  0.1070  0.0311  0.0670
   47loPI    C2  738   5.146  10.510  10.309 -0.0531  0.0872 -0.1290
   47loPI    C3  739   5.529  10.392  10.312 -0.0926 -0.0403  0.0388
   47loPI   PO4  740   5.182  10.856   9.930  0.1852 -0.2696 -0.0952
   47loPI   GL1  741   5.090  10.961   9.510 -0.2311 -0.3419  0.1283
   47loPI   GL2  742   4.935  11.249   9.572  0.3810 -0.3215  0.3228
   47loPI   C1A  743   5.182  10.694   9.143  0.1912  0.0881 -0.0698
   47loPI   C2A  744   5.313  10.485   8.798  0.1788  0.2747  0.0375
   47loPI   C3A  745   5.321  10.423   8.478 -0.1604 -0.1349 -0.1031
   47loPI   C4A  746   5.534  10.325   8.189 -0.1082 -0.0091 -0.3065
   47loPI   C5A  747   5.423  10.340   7.818 -0.0668  0.2093 -0.1324
   47loPI   C6A  748   5.259  10.646   7.537 -0.4614  0.1829 -0.3308
   47loPI   C1B  749   4.716  11.356   9.220 -0.1134  0.3406  0.0756
   47loPI   C2B  750   4.572  11.414   8.862 -0.2260 -0.0325  0.1255
   47loPI   C3B  751   4.536  11.625   8.539  0.0004  0.0106  0.0365
   47loPI   C4B  752   4.535  11.764   8.204  0.2785  0.0328  0.2021
   48loPI    C1  753  10.138  13.792   9.598 -0.1127 -0.1134  0.0503
   48loPI    C2  754  10.071  13.516   9.880 -0.0813 -0.1306  0.0408
   48loPI    C3  755   9.848  13.521   9.547 -0.1713 -0.0608  0.1017
   48loPI   PO4  756  10.401  13.761   9.484  0.0554 -0.0490  0.2036
   48loPI   GL1  757  10.330  13.627   9.007 -0.0303  0.2370 -0.1514
   48loPI   GL2  758  10.067  13.686   8.780 -0.2800 -0.3419 -0.2263
   48loPI   C1A  759  10.466  14.005   8.726 -0.0595  0.0734  0.1094
   48loPI   C2A  760  10.735  14.138   8.424 -0.2582  0.0327  0.0120
   48loPI   C3A  761  10.966  14.309   8.017 -0.1282  0.0037  0.1174
   48loPI   C4A  762  11.274  14.309   7.724  0.0882 -0.3368  0.0762
   48loPI   C5A  763  11.647  14.641   7.715  0.2101  0.2434 -0.0640
   48loPI   C6A  764  11.984  14.833   7.619 -0.0573  0.0049  0.1497
   48loPI   C1B  765   9.835  13.605   8.413  0.4463 -0.0201 -0.0943
   48loPI   C2B  766   9.493  13.592   8.320 -0.2608 -0.0871 -0.0044
   48loPI   C3B  767   9.075  13.310   8.372 -0.3229 -0.1994  0.2091
   48loPI   C4B  768   8.959  12.923   8.057  0.1917 -0.0753 -0.2552
   49loPI    C1  769   6.683  14.570   9.883 -0.0593  0.0852  0.1007
   49loPI    C2  770   6.664  14.970   9.893 -0.4366  0.0703  0.1090
   49loPI    C3  771   6.378  14.751  10.068 -0.3380 -0.2035 -0.0658
   49loPI   PO4  772   6.667  14.496   9.632 -0.0214 -0.0165  0.2023
   49loPI   GL1  773   6.623  14.483   9.225  0.2742  0.0819  0.1833
   49loPI   GL2  774   6.470  14.688   9.113  0.2127  0.0061  0.1150
   49loPI   C1A  775   6.818  14.375   8.833 -0.2754 -0.1558  0.0863
   49loPI   C2A  776   6.662  14.447   8.319  0.1709  0.0941 -0.0870
   49loPI   C3A  777   6.700  14.416   7.873  0.2911  0.2078  0.1149
   49loPI   C4A  778   6.693  14.498   7.405 -0.1834  0.1895  0.0173
   49loPI   C5A  779   6.424  14.433   7.056  0.1301  0.2000 -0.1588
   49loPI   C6A  780   5.935  14.444   6.926  0.1273 -0.1711  0.0224
   49loPI   C1B  781   6.335  14.599   8.652 -0.3503  0.0005 -0.3222
   49loPI   C2B  782   6.171  14.268   8.317  0.2033 -0.1893 -0.0265
   49loPI   C3B  783   6.247  14.222   7.830 -0.1176 -0.0564  0.0561
   49loPI   C4B  784   6.457  14.086   7.564  0.0279 -0.0414 -0.0687
   50loPI    C1  785   6.455  11.649   9.738  0.1815  0.0863 -0.1988
   50loPI    C2  786   6.678  11.973   9.812  0.0091  0.1602  0.0081
   50loPI    C3  787   6.365  11.888  10.046  0.0290 -0.1357 -0.0683
   50loPI   PO4  788   6.513  11.616   9.509  0.3107  0.0244  0.0907
   50loPI   GL1  789   6.446  11.619   9.096  0.1890 -0.1074  0.4303
   50loPI   GL2  790   6.296  11.907   9.120  0.0157  0.3495  0.0171
   50loPI   C1A  791   6.797  11.564   8.757 -0.0186 -0.0929 -0.0646
   50loPI   C2A  792   6.939  11.222   8.574 -0.0331 -0.2140 -0.0981
   50loPI   C3A  793   7.034  11.039   8.263  0.2261  0.0186 -0.0593
   50loPI   C4A  794   7.128  11.137   7.801 -0.0626  0.1317  0.0020
   50loPI   C5A  795   7.328  11.261   7.509 -0.0900 -0.0218  0.0024
   50loPI   C6A  796   7.221  11.593   7.236 -0.0852 -0.0237 -0.1054
   50loPI   C1B  797   6.669  12.051   8.819  0.0904 -0.0136  0.0380
   50loPI   C2B  798   6.577  12.148   8.532  0.3075 -0.2103 -0.1671
   50loPI   C3B  799   6.140  12.143   8.324  0.1350 -0.1322  0.2537
   50loPI   C4B  800   6.057  12.523   8.161 -0.1474 -0.1368 -0.3556
   51loPI    C1  801   3.605   8.620   9.853  0.2989 -0.0593 -0.0146
   51loPI    C2  802   3.566   8.255  10.012 -0.1263  0.0650  0.1818
   51loPI    C3  803   3.675   8.564  10.242 -0.0380  0.1138  0.0753
   51loPI   PO4  804   3.735   8.637   9.634  0.3775  0.0127  0.0769
   51loPI   GL1  805   3.881   8.918   9.186 -0.0491  0.0995  0.0706
   51loPI   GL2  806   3.572   8.670   9.169 -0.1881 -0.0508 -0.0007
   51loPI   C1A  807   4.021   8.831   8.792  0.0282  0.0628 -0.2999
   51loPI   C2A  808   4.084   8.935   8.242  0.5425  0.0095 -0.0644
   51loPI   C3A  809   4.098   9.003   7.819  0.1276 -0.0045  0.2852
   51loPI   C4A  810   4.104   8.994   7.355 -0.5232 -0.0451 -0.1115
   51loPI   C5A  811   4.134   9.094   6.990  0.1587  0.0957 -0.1607
   51loPI   C6A  812   4.286   8.781   6.821  0.1086 -0.2584 -0.0867
   51loPI   C1B  813   3.547   8.719   8.733  0.2063  0.4063  0.4169
   51loPI   C2B  814   3.681   8.607   8.323 -0.1111 -0.0346 -0.0313
   51loPI   C3B  815   3.635   8.914   7.937 -0.3639  0.1536 -0.1476
   51loPI   C4B  816   3.620   8.927   7.476  0.0861  0.4219  0.0411
   52loPI    C1  817   7.528   8.432   9.930 -0.4487 -0.0502 -0.0980
   52loPI    C2  818   7.505   8.733   9.667 -0.0011 -0.0383 -0.1313
   52loPI    C3  819   7.497   8.810  10.059  0.1152  0.0203 -0.1397
   52loPI   PO4  820   7.735   8.242   9.707  0.1609 -0.0789 -0.0865
   52loPI   GL1  821   7.749   8.306   9.271 -0.0881 -0.0437 -0.3541
   52loPI   GL2  822   7.924   8.019   9.300  0.2296 -0.0200  0.2476
   52loPI   C1A  823   7.430   8.407   8.977  0.0422 -0.3337  0.1875
   52loPI   C2A  824   7.444   8.548   8.617 -0.3173  0.1642 -0.0430
   52loPI   C3A  825   7.417   8.643   8.163  0.1252 -0.1110 -0.0846
   52loPI   C4A  826   7.678   8.650   7.757 -0.1541 -0.0700 -0.0433
   52loPI   C5A  827   7.987   8.871   7.552  0.2558 -0.0578 -0.1098
   52loPI   C6A  828   8.330   9.210   7.670 -0.0470  0.0273  0.0017
   52loPI   C1B  829   7.525   7.960   8.920 -0.1052  0.5226  0.2608
   52loPI   C2B  830   7.269   7.712   8.674  0.4971 -0.1151  0.1841
   52loPI   C3B  831   7.326   7.700   8.210  0.0229 -0.1406 -0.0549
   52loPI   C4B  832   7.507   7.395   7.866  0.1548 -0.3022 -0.0130
   53loPI    C1  833  11.928  11.082   9.709 -0.0129 -0.0353 -0.0207
   53loPI    C2  834  11.796  10.705   9.699 -0.1951  0.0237  0.1151
   53loPI    C3  835  11.634  10.967   9.954 -0.0818  0.1989  0.0089
   53loPI   PO4  836  12.196  11.024   9.461 -0.0174 -0.1153  0.1507
   53loPI   GL1  837  12.376  11.089   9.063 -0.1984  0.2823 -0.0969
   53loPI   GL2  838  12.674  11.037   8.857  0.1325  0.3258 -0.1096
   53loPI   C1A  839  12.253  11.204   8.776  0.1216 -0.1285  0.0940
   53loPI   C2A  840  11.847  11.421   8.570  0.0111 -0.2159 -0.1586
   53loPI   C3A  841  11.824  11.536   8.194  0.0346  0.0783  0.0499
   53loPI   C4A  842  11.689  11.541   7.836  0.0181  0.2231  0.0439
   53loPI   C5A  843  11.578  11.849   7.546 -0.3669  0.1274 -0.2228
   53loPI   C6A  844  11.339  12.164   7.326  0.1942  0.0264  0.2305
   53loPI   C1B  845  12.639  11.085   8.470  0.4325  0.2893  0.0216
   53loPI   C2B  846  12.323  11.335   8.200 -0.1750  0.2063 -0.1977
   53loPI   C3B  847  12.221  11.757   8.372  0.2563 -0.2234 -0.0549
   53loPI   C4B  848  12.273  12.277   8.210 -0.0730 -0.1224 -0.0378
   54loPI    C1  849  15.566   4.854   9.829 -0.1069  0.1485  0.0192
   54loPI    C2  850  15.933   4.993   9.907  0.0123 -0.1781  0.0584
   54loPI    C3  851  15.656   4.988  10.195 -0.0041  0.0056  0.0474
   54loPI   PO4  852  15.529   4.851   9.589 -0.0166  0.4512  0.1752
   54loPI   GL1  853  15.579   4.769   9.126  0.1500  0.0149 -0.0317
   54loPI   GL2  854  15.314   4.660   9.206 -0.2673 -0.0401 -0.1582
   54loPI   C1A  855  15.403   5.108   8.902  0.0667 -0.1534 -0.1006
   54loPI   C2A  856  15.227   5.178   8.526  0.0223 -0.0858  0.1387
   54loPI   C3A  857  15.362   5.362   8.115 -0.0537  0.0147 -0.0110
   54loPI   C4A  858  15.582   5.396   7.667 -0.0461  0.0698  0.0441
   54loPI   C5A  859  15.885   5.270   7.264  0.2952  0.0937 -0.2420
   54loPI   C6A  860  16.304   5.010   7.153  0.2983 -0.1736  0.1037
   54loPI   C1B  861  15.519   4.269   8.845  0.1014 -0.0619 -0.0887
   54loPI   C2B  862  15.561   3.914   8.569 -0.2054  0.1080  0.1883
   54loPI   C3B  863  15.781   3.965   8.181 -0.2463  0.0552 -0.0323
   54loPI   C4B  864  16.060   3.877   7.998 -0.2919 -0.2273  0.1194
   55loPI    C1  865  17.626  14.815   9.734  0.0402 -0.1454 -0.0422
   55loPI    C2  866  17.717  14.618  10.070  0.0546  0.1125  0.1078
   55loPI    C3  867  17.883  14.974   9.995 -0.0413  0.1120 -0.1159
   55loPI   PO4  868  17.717  14.594   9.460  0.2768 -0.2346  0.2757
   55loPI   GL1  869  17.863  14.668   9.071  0.4533  0.2307 -0.3051
   55loPI   GL2  870  18.193  14.839   8.963  0.3330  0.2271  0.0402
   55loPI   C1A  871  17.790  14.523   8.688 -0.1693 -0.0821  0.1420
   55loPI   C2A  872  17.978  14.652   8.293 -0.0717  0.1339  0.3169
   55loPI   C3A  873  18.118  14.706   7.950  0.2076 -0.1312  0.0959
   55loPI   C4A  874  18.029  14.589   7.494 -0.2875  0.1120  0.0723
   55loPI   C5A  875  17.854  14.419   7.125 -0.0461  0.1226 -0.0772
   55loPI   C6A  876  17.921  13.965   6.927 -0.2483  0.0277  0.1415
   55loPI   C1B  877  18.252  15.002   8.500  0.0463 -0.2313  0.2618
   55loPI   C2B  878  18.358  15.104   8.144  0.1832 -0.1555  0.2375
   55loPI   C3B  879  18.631  14.966   7.768 -0.1495  0.2088  0.0741
   55loPI   C4B  880  18.682  14.746   7.491  0.3221  0.0909 -0.0938
   56loPI    C1  881  18.652  17.216   9.417 -0.0522 -0.1684  0.1000
   56loPI    C2  882  18.723  17.591   9.296 -0.0752 -0.1885  0.0244
   56loPI    C3  883  18.744  17.499   9.684  0.0514 -0.1354  0.0303
   56loPI   PO4  884  18.417  17.084   9.256 -0.1370  0.0362 -0.0003
   56loPI   GL1  885  18.340  17.057   8.914 -0.2979 -0.2300  0.0115
   56loPI   GL2  886  18.299  16.829   8.643 -0.0808 -0.4457 -0.0728
   56loPI   C1A  887  18.174  17.277   8.561  0.0364 -0.0818  0.0413
   56loPI   C2A  888  18.417  17.652   8.308 -0.0937  0.1176 -0.2145
   56loPI   C3A  889  18.431  18.013   8.338 -0.1469 -0.1709 -0.0132
   56loPI   C4A  890  18.388  18.286   8.118 -0.0549  0.0208 -0.0152
   56loPI   C5A  891  18.489  18.255   7.692 -0.4451 -0.2487  0.1409
   56loPI   C6A  892  18.492  17.988   7.292 -0.1586 -0.0746  0.2683
   56loPI   C1B  893  18.117  16.918   8.188  0.0556 -0.1500  0.1011
   56loPI   C2B  894  17.916  17.023   7.891  0.0478  0.3104 -0.0535
   56loPI   C3B  895  17.384  17.182   7.861  0.2094  0.1208 -0.3318
   56loPI   C4B  896  16.902  17.225   7.813 -0.0293  0.1076 -0.1965
   57loPI    C1  897  10.806   2.247  10.279 -0.0326 -0.0896  0.4254
   57loPI    C2  898  10.623   1.891  10.274 -0.3044  0.0485  0.0256
   57loPI    C3  899  11.016   1.915  10.203 -0.2990 -0.1637 -0.0222
   57loPI   PO4  900  10.647   2.381   9.993  0.2324 -0.1908 -0.0163
   57loPI   GL1  901  10.720   2.359   9.487  0.1204  0.0101  0.1161
   57loPI   GL2  902  10.484   2.441   9.410  0.1866  0.0299 -0.1906
   57loPI   C1A  903  10.861   2.619   9.032  0.3882 -0.0147  0.1463
   57loPI   C2A  904  10.823   2.524   8.631 -0.0026 -0.1647 -0.2460
   57loPI   C3A  905  10.653   2.522   8.143 -0.1120  0.1135  0.2449
   57loPI   C4A  906  10.610   2.787   7.743 -0.1306  0.1082 -0.2043
   57loPI   C5A  907  10.451   3.062   7.425  0.1495  0.2374  0.1083
   57loPI   C6A  908  10.759   3.164   7.160 -0.1218  0.2433 -0.2178
   57loPI   C1B  909  10.400   2.447   8.996  0.0888  0.1574 -0.0100
   57loPI   C2B  910  10.213   2.610   8.562  0.0286  0.0210 -0.0524
   57loPI   C3B  911  10.221   2.767   8.118 -0.2693  0.0044  0.0559
   57loPI   C4B  912  10.104   2.989   7.776 -0.2161  0.0345 -0.0962
   58loPI    C1  913   3.047  12.729   9.674  0.1047 -0.0281 -0.2260
   58loPI    C2  914   3.123  13.121   9.673  0.2055 -0.0472 -0.1934
   58loPI    C3  915   3.024  12.938  10.014  0.3853 -0.0929 -0.1646
   58loPI   PO4  916   3.059  12.702   9.391  0.0068  0.2669 -0.0351
   58loPI   GL1  917   3.287  12.849   9.046 -0.1157  0.1178  0.0464
   58loPI   GL2  918   3.399  13.143   9.069 -0.0333  0.1846  0.2454
   58loPI   C1A  919   3.065  12.650   8.755  0.0455  0.2218  0.0984
   58loPI   C2A  920   3.052  12.682   8.241  0.0462  0.0592 -0.1938
   58loPI   C3A  921   2.917  12.856   7.876  0.5934  0.4559  0.0374
   58loPI   C4A  922   3.196  12.744   7.601 -0.1698  0.0381  0.2812
   58loPI   C5A  923   3.480  13.128   7.441 -0.2820 -0.1156 -0.0368
   58loPI   C6A  924   3.582  13.130   7.017 -0.3267  0.0881  0.3269
   58loPI   C1B  925   3.320  13.101   8.619  0.4826 -0.2761  0.1249
   58loPI   C2B  926   3.124  13.276   8.223  0.0575 -0.0309 -0.1210
   58loPI   C3B  927   2.907  13.580   7.917  0.1268  0.3633  0.0155
   58loPI   C4B  928   2.759  13.728   7.394  0.0606  0.1204  0.0090
   59loPI    C1  929   7.997   4.602   9.487  0.0620 -0.0802 -0.2693
   59loPI    C2  930   8.183   4.602   9.841 -0.0071 -0.0186 -0.2327
   59loPI    C3  931   8.196   4.927   9.609 -0.4124  0.1366 -0.0479
   59loPI   PO4  932   7.919   4.295   9.501 -0.0602 -0.0715  0.2271
   59loPI   GL1  933   7.747   4.273   9.123 -0.0584  0.1259  0.1617
   59loPI   GL2  934   7.547   4.613   9.095  0.2136 -0.0929  0.2572
   59loPI   C1A  935   8.007   4.515   8.851 -0.0488  0.2842 -0.0533
   59loPI   C2A  936   7.986   4.732   8.454  0.3834  0.1095  0.1978
   59loPI   C3A  937   8.025   4.847   7.920 -0.2295 -0.3069 -0.2458
   59loPI   C4A  938   7.858   4.865   7.548 -0.1055 -0.3563  0.0319
   59loPI   C5A  939   7.914   4.986   7.172 -0.1615 -0.1329 -0.3097
   59loPI   C6A  940   7.838   5.079   6.768  0.1913  0.0076  0.1510
   59loPI   C1B  941   7.116   4.588   8.787  0.1893  0.0936 -0.1809
   59loPI   C2B  942   7.036   4.681   8.329 -0.0444  0.1277 -0.2149
   59loPI   C3B  943   7.193   4.563   7.884  0.0691 -0.0161 -0.0233
   59loPI   C4B  944   7.447   4.396   7.705 -0.0645 -0.2075  0.1950
   60loPI    C1  945   0.755  18.187  10.340 -0.2006  0.4180 -0.1202
   60loPI    C2  946   0.818  18.577  10.404 -0.0098  0.3679  0.0086
   60loPI    C3  947   0.840  18.319  10.708 -0.2109  0.2651 -0.0623
   60loPI   PO4  948   0.939  18.088  10.192  0.0462 -0.1367 -0.2211
   60loPI   GL1  949   1.209  18.038   9.806 -0.0382  0.2527 -0.1491
   60loPI   GL2  950   0.938  18.063   9.645 -0.0011  0.3041  0.1888
   60loPI   C1A  951   1.539  18.177   9.399  0.0271 -0.0969  0.0535
   60loPI   C2A  952   1.555  18.378   9.003  0.1836 -0.0147 -0.0081
   60loPI   C3A  953   1.437  18.673   8.699 -0.3159  0.0967  0.0312
   60loPI   C4A  954   1.413  18.779   8.318  0.0066  0.0110  0.0417
   60loPI   C5A  955   1.318  18.858   7.972  0.3628  0.0363  0.2111
   60loPI   C6A  956   0.875  18.780   7.808 -0.1448  0.3019 -0.2874
   60loPI   C1B  957   1.033  18.060   9.221 -0.2532  0.3429  0.1390
   60loPI   C2B  958   1.140  18.234   8.817  0.1307 -0.1273 -0.3869
   60loPI   C3B  959   1.304  18.174   8.389  0.2617  0.0685 -0.0258
   60loPI   C4B  960   1.711  18.018   8.205  0.0879  0.1131  0.4289
   61loPI    C1  961   2.977   2.663   9.982 -0.1039 -0.0328  0.1962
   61loPI    C2  962   2.697   2.492  10.210 -0.0692  0.0039  0.2669
   61loPI    C3  963   2.812   2.868  10.284  0.1207 -0.0681  0.3459
   61loPI   PO4  964   2.902   2.605   9.734 -0.0934 -0.2124  0.2708
   61loPI   GL1  965   2.635   2.710   9.411 -0.0358  0.0530  0.0297
   61loPI   GL2  966   2.349   2.665   9.286  0.2604 -0.3252  0.2008
   61loPI   C1A  967   2.629   3.033   9.128  0.2435 -0.0396 -0.3967
   61loPI   C2A  968   2.739   3.075   8.651 -0.1357 -0.1531  0.0498
   61loPI   C3A  969   2.767   2.938   8.234  0.0827  0.1328  0.0064
   61loPI   C4A  970   2.762   2.831   7.851 -0.1664  0.3076 -0.4988
   61loPI   C5A  971   2.923   3.027   7.543 -0.1533 -0.1377 -0.0314
   61loPI   C6A  972   2.755   3.269   7.193 -0.0914 -0.0783  0.0608
   61loPI   C1B  973   2.218   2.782   8.840  0.3340  0.0383 -0.0293
   61loPI   C2B  974   2.246   2.539   8.513  0.0154 -0.0476 -0.0539
   61loPI   C3B  975   2.186   2.677   8.033  0.0303 -0.3602  0.1084
   61loPI   C4B  976   2.324   2.831   7.633 -0.5484  0.0584  0.1736
   62loPI    C1  977   3.506   3.516   9.851 -0.1144 -0.0805 -0.1634
   62loPI    C2  978   3.180   3.524   9.620  0.0090  0.2946 -0.3319
   62loPI    C3  979   3.218   3.784   9.921  0.0540  0.1045 -0.1709
   62loPI   PO4  980   3.696   3.427   9.638  0.1044  0.0354 -0.1499
   62loPI   GL1  981   3.878   3.329   9.295  0.2715  0.0742  0.0210
   62loPI   GL2  982   3.776   2.965   9.404  0.3734 -0.1028  0.0632
   62loPI   C1A  983   3.856   3.145   8.854 -0.1686 -0.0208 -0.0530
   62loPI   C2A  984   4.034   3.243   8.507 -0.0005  0.0766  0.0254
   62loPI   C3A  985   4.264   3.146   8.168 -0.1518  0.0515 -0.0525
   62loPI   C4A  986   4.606   3.004   7.697 -0.0221 -0.0108  0.0509
   62loPI   C5A  987   4.859   3.044   7.303 -0.0599  0.2460  0.0907
   62loPI   C6A  988   5.013   3.330   7.029  0.1051  0.0315 -0.2360
   62loPI   C1B  989   3.458   2.853   8.949 -0.0958  0.1065 -0.1266
   62loPI   C2B  990   3.354   2.982   8.516  0.0818  0.2248 -0.2205
   62loPI   C3B  991   3.391   3.080   8.068  0.0977  0.1587  0.1869
   62loPI   C4B  992   3.514   3.039   7.672 -0.1280 -0.0393  0.0520
   63loPI    C1  993  13.243  18.734   9.876  0.0885 -0.2613 -0.0800
   63loPI    C2  994  12.885  18.587   9.774  0.0210 -0.0701 -0.1237
   63loPI    C3  995  13.038  18.511  10.136 -0.1177 -0.0540 -0.0613
   63loPI   PO4  996  13.411  18.698   9.613  0.0827 -0.1264  0.1466
   63loPI   GL1  997  13.440  18.524   9.180 -0.2796  0.0170  0.4965
   63loPI   GL2  998  13.694  18.591   9.198 -0.0113  0.0083  0.0476
   63loPI   C1A  999  13.404  18.903   8.982  0.1594  0.2112  0.0234
   63loPI   C2A 1000  13.492  19.207   8.622 -0.1245  0.1016 -0.1347
   63loPI   C3A 1001  13.389  19.298   8.149  0.1934  0.1882  0.2418
   63loPI   C4A 1002  13.301  19.296   7.628  0.2797  0.1142 -0.1139
   63loPI   C5A 1003  13.498  19.259   7.239  0.3281  0.2210 -0.2237
   63loPI   C6A 1004  13.592  18.962   6.810 -0.0170  0.2452  0.0281
   63loPI   C1B 1005  13.716  18.500   8.751  0.0743  0.1729 -0.0727
   63loPI   C2B 1006  13.741  18.754   8.379  0.0596  0.0421  0.1008
   63loPI   C3B 1007  13.543  18.838   8.002 -0.0058  0.0333 -0.0247
   63loPI   C4B 1008  13.109  18.931   7.852  0.0539  0.0251 -0.1051
   64loPI    C1 1009   5.541   8.996   9.844 -0.0846 -0.2480 -0.0866
   64loPI    C2 1010   5.215   8.786   9.941 -0.3360  0.2190  0.1121
   64loPI    C3 1011   5.421   8.978  10.225  0.0404  0.0368 -0.0310
   64loPI   PO4 1012   5.579   9.033   9.522 -0.0201 -0.1881 -0.2445
   64loPI   GL1 1013   5.293   8.809   9.192  0.0801  0.3404  0.0008
   64loPI   GL2 1014   5.519   8.550   9.201 -0.1456  0.2316  0.0420
   64loPI   C1A 1015   5.387   9.024   8.804  0.0351  0.2204 -0.2650
   64loPI   C2A 1016   5.448   8.926   8.419 -0.0951 -0.1739 -0.0975
   64loPI   C3A 1017   5.512   8.853   7.981 -0.1011  0.2252 -0.2139
   64loPI   C4A 1018   5.532   8.671   7.594  0.0381 -0.0147 -0.1089
   64loPI   C5A 1019   5.492   8.298   7.226 -0.0401  0.3107 -0.4372
   64loPI   C6A 1020   5.633   8.168   6.830  0.0056 -0.0860 -0.2697
   64loPI   C1B 1021   5.519   8.148   8.944 -0.1239  0.1171 -0.1802
   64loPI   C2B 1022   5.260   8.020   8.673 -0.1114 -0.2510 -0.0326
   64loPI   C3B 1023   5.017   7.879   8.390  0.1581 -0.1261  0.0267
   64loPI   C4B 1024   4.512   8.020   8.283  0.3565 -0.0460 -0.0962
   65loPI    C1 1025   8.507   8.684   9.940  0.2179  0.1033 -0.3009
   65loPI    C2 1026   8.791   8.403   9.949  0.0403 -0.0707  0.1510
   65loPI    C3 1027   8.471   8.372  10.187 -0.1879  0.3042 -0.0962
   65loPI   PO4 1028   8.501   8.696   9.651  0.2035 -0.2757  0.1120
   65loPI   GL1 1029   8.493   8.842   9.270 -0.0864  0.0821  0.0207
   65loPI   GL2 1030   8.870   8.880   9.216  0.1475  0.2315 -0.0594
   65loPI   C1A 1031   8.355   8.750   8.892 -0.0267 -0.1815  0.2753
   65loPI   C2A 1032   8.224   8.670   8.446 -0.1248 -0.3779  0.0065
   65loPI   C3A 1033   7.982   8.492   8.199 -0.3632  0.2129  0.0918
   65loPI   C4A 1034   7.949   8.156   7.874  0.1090  0.0906 -0.3147
   65loPI   C5A 1035   7.787   8.285   7.428  0.1014 -0.0329 -0.1638
   65loPI   C6A 1036   7.712   8.620   7.183 -0.1185 -0.2187  0.1300
   65loPI   C1B 1037   8.800   8.850   8.837 -0.3861 -0.2786  0.3096
   65loPI   C2B 1038   8.637   8.996   8.398 -0.3008 -0.0138 -0.2810
   65loPI   C3B 1039   8.720   8.993   7.950  0.1597  0.0492 -0.1293
   65loPI   C4B 1040   8.602   8.868   7.491  0.0092 -0.1564  0.2946
   66loPI    C1 1041   8.173   9.523   9.883 -0.3170 -0.0826 -0.1628
   66loPI    C2 1042   8.048   9.396  10.241  0.1441 -0.0580  0.0134
   66loPI    C3 1043   8.365   9.225  10.068  0.0316  0.0489 -0.3051
   66loPI   PO4 1044   7.907   9.553   9.737  0.4530  0.1453  0.1038
   66loPI   GL1 1045   7.616   9.699   9.478 -0.0875  0.0873  0.1055
   66loPI   GL2 1046   7.329   9.539   9.396 -0.0536  0.1265 -0.1666
   66loPI   C1A 1047   7.793   9.942   9.111 -0.0993  0.3181  0.0784
   66loPI   C2A 1048   7.851  10.130   8.738 -0.0094  0.4124  0.0414
   66loPI   C3A 1049   7.928  10.532   8.459  0.1420  0.0621 -0.0270
   66loPI   C4A 1050   8.123  10.792   8.135 -0.1379  0.3709  0.1643
   66loPI   C5A 1051   8.551  10.965   7.869  0.1739  0.2568 -0.0535
   66loPI   C6A 1052   8.639  11.325   7.643  0.0546 -0.3386 -0.0764
   66loPI   C1B 1053   7.238   9.790   8.999 -0.3191 -0.1034 -0.2617
   66loPI   C2B 1054   7.426   9.834   8.642  0.1523 -0.4600 -0.0821
   66loPI   C3B 1055   7.582  10.070   8.371  0.2761 -0.0828  0.3505
   66loPI   C4B 1056   7.826  10.239   7.981 -0.1824 -0.0784 -0.0450
   67loPI    C1 1057   5.075   1.470  10.094  0.3402 -0.0065  0.0053
   67loPI    C2 1058   4.923   1.824   9.987 -0.0661 -0.1548  0.0710
   67loPI    C3 1059   5.150   1.795  10.315 -0.1416  0.0206  0.1400
   67loPI   PO4 1060   5.126   1.372   9.825  0.1559  0.1058 -0.0065
   67loPI   GL1 1061   5.154   1.088   9.424  0.5104 -0.0337  0.2379
   67loPI   GL2 1062   5.420   1.266   9.185  0.2487  0.1975  0.0837
   67loPI   C1A 1063   4.879   1.241   9.058  0.0214 -0.0637 -0.0235
   67loPI   C2A 1064   4.798   1.359   8.706 -0.0676 -0.0672  0.1574
   67loPI   C3A 1065   4.667   1.275   8.295  0.0244  0.0723  0.1768
   67loPI   C4A 1066   4.432   1.509   7.929 -0.1143  0.1338  0.1010
   67loPI   C5A 1067   3.968   1.249   7.809  0.0407 -0.0088 -0.0385
   67loPI   C6A 1068   3.409   1.231   7.702  0.0827  0.1009 -0.1457
   67loPI   C1B 1069   5.345   1.385   8.869 -0.1135 -0.2655 -0.1313
   67loPI   C2B 1070   5.204   1.401   8.446 -0.3382 -0.2761  0.0775
   67loPI   C3B 1071   5.093   1.156   8.090 -0.3288 -0.2353 -0.0090
   67loPI   C4B 1072   4.962   0.729   7.951  0.1922 -0.0230  0.0364
   68loPI    C1 1073   6.043   9.459  10.100  0.0981  0.2610 -0.1496
   68loPI    C2 1074   5.762   9.427   9.817  0.0196 -0.1979 -0.0282
   68loPI    C3 1075   5.663   9.388  10.203  0.2120 -0.1154  0.0312
   68loPI   PO4 1076   6.303   9.438   9.952  0.1134  0.1013 -0.2653
   68loPI   GL1 1077   6.461   9.393   9.566  0.0062 -0.2347 -0.1374
   68loPI   GL2 1078   6.547   9.060   9.458  0.1043  0.0050 -0.0700
   68loPI   C1A 1079   6.159   9.451   9.220 -0.0021  0.0886 -0.0130
   68loPI   C2A 1080   6.051   9.793   8.929  0.1912 -0.1234 -0.0439
   68loPI   C3A 1081   6.148   9.807   8.537 -0.0367 -0.1217  0.0956
   68loPI   C4A 1082   6.188   9.722   8.104  0.1401 -0.1001  0.3475
   68loPI   C5A 1083   6.335   9.886   7.746  0.1131 -0.1070 -0.1108
   68loPI   C6A 1084   6.411  10.143   7.486  0.0711  0.3160  0.2639
   68loPI   C1B 1085   6.482   9.078   9.017  0.1499  0.2812 -0.0341
   68loPI   C2B 1086   6.313   9.382   8.719 -0.4102  0.0443 -0.0375
   68loPI   C3B 1087   6.359   9.315   8.350 -0.0348  0.0551  0.4456
   68loPI   C4B 1088   6.610   9.342   8.068 -0.0060  0.1870 -0.1521
   69loPI    C1 1089   5.813  11.690   9.924 -0.0219  0.0873 -0.0174
   69loPI    C2 1090   6.020  11.593  10.252 -0.0777  0.1012  0.0220
   69loPI    C3 1091   5.621  11.577  10.256 -0.0686 -0.2762 -0.1629
   69loPI   PO4 1092   5.932  11.557   9.750  0.2365 -0.1129  0.0107
   69loPI   GL1 1093   5.963  11.548   9.236  0.0894  0.3884 -0.1246
   69loPI   GL2 1094   5.751  11.316   9.308  0.1564 -0.2354 -0.2187
   69loPI   C1A 1095   6.037  11.292   8.872  0.0593 -0.3167  0.0012
   69loPI   C2A 1096   5.997  11.449   8.423  0.1995 -0.3097  0.0101
   69loPI   C3A 1097   6.213  11.574   8.012  0.2491  0.4130  0.0328
   69loPI   C4A 1098   6.365  11.576   7.598  0.1226 -0.1279  0.2323
   69loPI   C5A 1099   6.020  11.374   7.234  0.1600  0.0494  0.0732
   69loPI   C6A 1100   5.773  11.315   6.807  0.1370  0.0023 -0.0483
   69loPI   C1B 1101   5.271  11.272   9.151 -0.1932  0.1198 -0.0874
   69loPI   C2B 1102   5.091  11.120   8.767 -0.1115  0.1052 -0.1696
   69loPI   C3B 1103   4.990  10.828   8.585  0.0097  0.1197  0.0340
   69loPI   C4B 1104   4.650  10.720   8.238 -0.2087 -0.3693  0.0249
   70loPI    C1 1105  15.614   6.388   9.678 -0.3487  0.0973  0.1391
   70loPI    C2 1106  15.636   5.989   9.677  0.0586  0.1161  0.1022
   70loPI    C3 1107  15.566   6.185  10.019 -0.2188  0.0123  0.1073
   70loPI   PO4 1108  15.460   6.424   9.504  0.1904 -0.2213  0.0856
   70loPI   GL1 1109  15.350   6.212   9.274  0.0443 -0.0725 -0.0552
   70loPI   GL2 1110  15.333   5.899   9.125 -0.2461 -0.0593  0.0281
   70loPI   C1A 1111  15.386   6.183   8.765  0.1971 -0.0871  0.2355
   70loPI   C2A 1112  15.210   6.194   8.364  0.0328 -0.2568 -0.1656
   70loPI   C3A 1113  15.251   6.393   7.914  0.0669  0.1829  0.1893
   70loPI   C4A 1114  15.209   6.651   7.497  0.1732  0.3537  0.0578
   70loPI   C5A 1115  14.925   6.782   7.164  0.2345  0.1045 -0.1024
   70loPI   C6A 1116  14.678   6.817   6.691  0.0536 -0.1035  0.0934
   70loPI   C1B 1117  14.935   5.967   8.903 -0.1589 -0.1615 -0.0836
   70loPI   C2B 1118  14.709   5.925   8.491  0.1166  0.2219  0.0452
   70loPI   C3B 1119  14.549   5.756   8.078  0.0241  0.1364 -0.3484
   70loPI   C4B 1120  14.201   6.047   7.956  0.0959 -0.0876 -0.0103
   71loPI    C1 1121  12.319   1.699   9.890 -0.2129  0.1716  0.0409
   71loPI    C2 1122  12.172   1.332   9.826 -0.0212  0.1038 -0.0178
   71loPI    C3 1123  12.340   1.421  10.178  0.1944  0.0450 -0.1042
   71loPI   PO4 1124  12.143   1.820   9.754 -0.3947 -0.0493 -0.1686
   71loPI   GL1 1125  12.291   2.026   9.389 -0.1885  0.3955  0.1405
   71loPI   GL2 1126  12.375   2.387   9.355 -0.0102 -0.0174  0.2407
   71loPI   C1A 1127  12.358   1.869   8.934 -0.4278  0.2711 -0.2398
   71loPI   C2A 1128  12.449   1.744   8.655 -0.1281 -0.5176 -0.3926
   71loPI   C3A 1129  12.475   1.455   8.400 -0.2630 -0.0306 -0.3019
   71loPI   C4A 1130  12.829   1.424   8.080  0.2051 -0.2120 -0.1251
   71loPI   C5A 1131  13.034   1.689   7.777 -0.0208 -0.1929  0.1089
   71loPI   C6A 1132  12.991   2.057   7.552 -0.0344  0.0839 -0.0019
   71loPI   C1B 1133  12.307   2.326   8.906  0.0911  0.1366  0.2136
   71loPI   C2B 1134  12.421   2.232   8.551  0.1132  0.2223 -0.2767
   71loPI   C3B 1135  12.183   2.021   8.304 -0.0558 -0.4073  0.0324
   71loPI   C4B 1136  12.136   2.100   7.773 -0.0374 -0.0840 -0.1648
   72loPI    C1 1137   7.346  16.832   9.784 -0.1778 -0.1972 -0.0128
   72loPI    C2 1138   7.174  16.566  10.027 -0.1691 -0.0205  0.1897
   72loPI    C3 1139   7.533  16.489   9.869 -0.1353 -0.0984  0.3034
   72loPI   PO4 1140   7.056  16.975   9.771 -0.1006  0.3058 -0.1500
   72loPI   GL1 1141   6.894  17.188   9.413  0.0097  0.1040  0.0036
   72loPI   GL2 1142   6.630  17.422   9.422 -0.1658  0.0277  0.1490
   72loPI   C1A 1143   6.841  17.028   9.019  0.0361 -0.0009  0.1413
   72loPI   C2A 1144   6.949  17.111   8.540 -0.1251 -0.0709  0.0437
   72loPI   C3A 1145   7.095  17.325   8.231 -0.0622  0.1268  0.1967
   72loPI   C4A 1146   7.249  17.248   7.820 -0.2469  0.1378  0.1046
   72loPI   C5A 1147   7.490  16.999   7.615  0.1587  0.0362 -0.1815
   72loPI   C6A 1148   7.530  16.915   7.157  0.0759  0.2133 -0.0922
   72loPI   C1B 1149   6.780  17.542   9.013 -0.2359  0.0018  0.2012
   72loPI   C2B 1150   7.153  17.542   8.770 -0.0981  0.1091 -0.3338
   72loPI   C3B 1151   7.333  17.723   8.459 -0.1591  0.0822  0.1254
   72loPI   C4B 1152   7.273  17.775   8.022 -0.1003  0.0555  0.0616
   73loPI    C1 1153   0.487   3.644  10.140  0.0478  0.0819 -0.0520
   73loPI    C2 1154   0.502   3.286  10.317 -0.0729  0.1015 -0.0012
   73loPI    C3 1155   0.738   3.583  10.445  0.2047 -0.0290 -0.2020
   73loPI   PO4 1156   0.488   3.570   9.901  0.2861  0.0868 -0.1730
   73loPI   GL1 1157   0.236   3.741   9.626  0.0967  0.4741  0.4103
   73loPI   GL2 1158  -0.088   3.622   9.534  0.1773 -0.1628 -0.1334
   73loPI   C1A 1159   0.416   3.679   9.199  0.0802 -0.2082 -0.0205
   73loPI   C2A 1160   0.505   3.810   8.774 -0.1407  0.1361 -0.1782
   73loPI   C3A 1161   0.677   3.962   8.409 -0.1503 -0.0974 -0.0648
   73loPI   C4A 1162   0.596   3.984   8.037  0.0086 -0.0416 -0.0913
   73loPI   C5A 1163   0.347   3.941   7.611  0.0496  0.2708  0.3037
   73loPI   C6A 1164   0.236   3.655   7.295 -0.3943 -0.0717 -0.0131
   73loPI   C1B 1165  -0.211   3.413   9.161 -0.0529  0.1371  0.1794
   73loPI   C2B 1166  -0.303   3.291   8.687  0.1002  0.1439 -0.1759
   73loPI   C3B 1167  -0.347   3.168   8.312 -0.1868 -0.1635 -0.0927
   73loPI   C4B 1168  -0.327   3.148   7.850  0.0294 -0.0451 -0.0631
   74loPI    C1 1169   9.049  18.223   9.893  0.1428 -0.1687  0.0433
   74loPI    C2 1170   9.227  18.090   9.561  0.0284 -0.3063  0.0361
   74loPI    C3 1171   9.443  18.269   9.846  0.0931  0.0195 -0.2114
   74loPI   PO4 1172   8.805  18.288   9.765  0.1585  0.2434 -0.0585
   74loPI   GL1 1173   8.525  18.240   9.417 -0.1368 -0.0265  0.2455
   74loPI   GL2 1174   8.256  18.386   9.317  0.1994 -0.1293  0.1039
   74loPI   C1A 1175   8.696  18.294   9.021 -0.1015 -0.1227  0.1470
   74loPI   C2A 1176   8.716  18.519   8.662 -0.2306  0.2016  0.1364
   74loPI   C3A 1177   8.694  18.527   8.255  0.1015 -0.1745  0.3295
   74loPI   C4A 1178   8.493  18.556   7.850 -0.0160 -0.0350  0.1109
   74loPI   C5A 1179   8.357  18.435   7.514  0.1257  0.0658  0.1668
   74loPI   C6A 1180   8.157  18.376   7.161 -0.1047 -0.0526 -0.2935
   74loPI   C1B 1181   8.253  18.400   8.757  0.0803 -0.1886 -0.3562
   74loPI   C2B 1182   8.237  18.449   8.372  0.1589 -0.0026 -0.1900
   74loPI   C3B 1183   8.076  18.322   7.956  0.1336 -0.1031 -0.2231
   74loPI   C4B 1184   7.882  18.143   7.554  0.0991 -0.0626 -0.0136
   75loPI    C1 1185  17.838   4.643  10.287  0.0693 -0.0732  0.2151
   75loPI    C2 1186  17.562   4.735  10.562  0.0235  0.0984  0.1134
   75loPI    C3 1187  17.669   5.006  10.287 -0.3207 -0.2401 -0.3698
   75loPI   PO4 1188  17.781   4.402  10.198 -0.0212 -0.3032  0.2704
   75loPI   GL1 1189  17.701   4.287   9.868  0.1150 -0.0865 -0.3238
   75loPI   GL2 1190  17.699   4.363   9.543 -0.0945 -0.0294 -0.0964
   75loPI   C1A 1191  18.012   3.986   9.584  0.3184  0.0621 -0.1234
   75loPI   C2A 1192  18.155   3.991   9.102 -0.2866  0.0431  0.1424
   75loPI   C3A 1193  18.236   4.160   8.657 -0.3639 -0.1922 -0.2047
   75loPI   C4A 1194  18.396   4.009   8.232  0.2299 -0.0669 -0.2658
   75loPI   C5A 1195  18.757   3.962   8.025 -0.1894  0.2036 -0.1657
   75loPI   C6A 1196  18.881   4.223   7.701 -0.0052  0.1862  0.4023
   75loPI   C1B 1197  17.353   4.288   9.141 -0.0437  0.4324  0.0905
   75loPI   C2B 1198  17.389   4.183   8.673  0.0673 -0.0052  0.0830
   75loPI   C3B 1199  17.033   4.097   8.463 -0.3935 -0.3178 -0.2758
   75loPI   C4B 1200  16.616   4.036   8.390 -0.0292 -0.0376 -0.0961
   76loPI    C1 1201   7.160  14.722  10.166 -0.1140 -0.1046 -0.1583
   76loPI    C2 1202   6.816  14.674  10.364 -0.1122 -0.0950 -0.1528
   76loPI    C3 1203   7.097  14.390  10.380  0.0337  0.0603  0.1480
   76loPI   PO4 1204   7.108  14.782   9.934 -0.0155  0.0041  0.1018
   76loPI   GL1 1205   6.972  14.848   9.503  0.1257 -0.3169  0.1364
   76loPI   GL2 1206   7.262  14.877   9.440 -0.1320  0.1541 -0.1396
   76loPI   C1A 1207   6.904  14.942   8.973  0.2415 -0.1124 -0.1722
   76loPI   C2A 1208   6.864  14.825   8.562  0.4198  0.1430  0.1038
   76loPI   C3A 1209   6.724  14.971   8.037 -0.4855 -0.1953 -0.0944
   76loPI   C4A 1210   6.772  14.955   7.664 -0.0231  0.2945 -0.1197
   76loPI   C5A 1211   6.943  14.976   7.298  0.0241 -0.0363 -0.0387
   76loPI   C6A 1212   6.924  15.372   7.018 -0.2312 -0.0063  0.2451
   76loPI   C1B 1213   7.465  15.048   9.025  0.0249 -0.2275  0.2281
   76loPI   C2B 1214   7.436  15.093   8.597  0.2164 -0.3074 -0.2947
   76loPI   C3B 1215   7.327  15.119   8.184  0.0743 -0.2789 -0.1173
   76loPI   C4B 1216   7.252  15.022   7.726  0.0621  0.2819 -0.1070
   77loPI    C1 1217   0.164  16.438   9.307  0.1503 -0.2212 -0.0084
   77loPI    C2 1218   0.034  16.197   9.015 -0.1107 -0.0643 -0.0241
   77loPI    C3 1219   0.244  16.046   9.319 -0.1937 -0.2971 -0.0802
   77loPI   PO4 1220   0.255  16.631   9.172  0.1306  0.0411 -0.1002
   77loPI   GL1 1221  -0.056  16.885   8.904 -0.1656  0.0034 -0.0015
   77loPI   GL2 1222  -0.005  16.651   8.663  0.0866  0.1001  0.0867
   77loPI   C1A 1223  -0.410  16.900   8.653 -0.0136 -0.1174  0.0254
   77loPI   C2A 1224  -0.794  16.770   8.408 -0.0564  0.1974  0.0149
   77loPI   C3A 1225  -0.986  16.745   7.969  0.1320  0.2396 -0.1695
   77loPI   C4A 1226  -1.282  16.902   7.611  0.2686  0.0595 -0.0875
   77loPI   C5A 1227  -1.358  16.836   7.128 -0.1184 -0.0402 -0.1558
   77loPI   C6A 1228  -1.443  16.887   6.702  0.1317  0.4621  0.1471
   77loPI   C1B 1229   0.040  16.758   8.290  0.0156 -0.0502 -0.0114
   77loPI   C2B 1230  -0.003  16.991   7.951  0.1098 -0.5412 -0.0450
   77loPI   C3B 1231   0.053  17.456   7.971  0.3549 -0.0381 -0.1064
   77loPI   C4B 1232  -0.156  17.620   7.565 -0.0789 -0.2086  0.2814
   78loPI    C1 1233  12.850  18.951  10.124  0.2134 -0.0727  0.3391
   78loPI    C2 1234  12.797  19.336  10.222  0.0315 -0.0721  0.2429
   78loPI    C3 1235  13.099  19.128  10.383  0.3131  0.1930  0.0683
   78loPI   PO4 1236  12.674  19.008   9.896  0.1706  0.0286 -0.0532
   78loPI   GL1 1237  12.913  19.050   9.528 -0.1754  0.0445 -0.2795
   78loPI   GL2 1238  13.013  18.860   9.308 -0.1000  0.3729 -0.1591
   78loPI   C1A 1239  12.597  19.121   9.203 -0.1044  0.1114 -0.0727
   78loPI   C2A 1240  12.537  19.276   8.787  0.1738  0.1514 -0.0094
   78loPI   C3A 1241  12.416  19.555   8.562 -0.1207 -0.0122 -0.0975
   78loPI   C4A 1242  12.509  19.618   8.197  0.0442  0.3823  0.1255
   78loPI   C5A 1243  12.511  19.750   7.838  0.0494  0.3585  0.0507
   78loPI   C6A 1244  12.613  19.594   7.351  0.1997  0.0921 -0.3657
   78loPI   C1B 1245  13.015  19.248   8.945 -0.2558 -0.0333 -0.1819
   78loPI   C2B 1246  12.850  19.670   8.757  0.0759 -0.1541  0.1771
   78loPI   C3B 1247  13.196  19.724   8.470  0.2103 -0.2529 -0.1362
   78loPI   C4B 1248  13.420  19.820   8.084 -0.0035 -0.2548  0.0781
   79loPI    C1 1249   6.686   2.973   9.895 -0.0925 -0.0002  0.2506
   79loPI    C2 1250   6.571   2.677  10.139  0.1494 -0.1471  0.1900
   79loPI    C3 1251   6.798   2.596   9.820 -0.3650  0.0073 -0.2295
   79loPI   PO4 1252   6.536   3.141   9.892 -0.2435 -0.2177 -0.0806
   79loPI   GL1 1253   6.645   3.242   9.426  0.0647 -0.3477  0.2719
   79loPI   GL2 1254   6.923   3.146   9.249 -0.2026  0.1255  0.2248
   79loPI   C1A 1255   6.526   3.301   8.952  0.0925  0.0307  0.3795
   79loPI   C2A 1256   6.611   3.253   8.451 -0.0427 -0.2511  0.1765
   79loPI   C3A 1257   6.363   3.180   8.048 -0.0984  0.3001  0.1917
   79loPI   C4A 1258   6.460   3.400   7.654 -0.3031  0.2806 -0.1243
   79loPI   C5A 1259   6.217   3.737   7.480 -0.0721 -0.0136  0.0810
   79loPI   C6A 1260   6.325   3.812   7.132  0.2489 -0.2263  0.0974
   79loPI   C1B 1261   7.018   3.235   8.811 -0.1634  0.0529 -0.1137
   79loPI   C2B 1262   7.056   3.460   8.342  0.4684 -0.3106 -0.1928
   79loPI   C3B 1263   6.801   3.523   8.041 -0.0123 -0.2762 -0.0032
   79loPI   C4B 1264   6.605   3.879   7.749 -0.2383  0.5149  0.1199
   80loPI    C1 1265  15.276  12.364   9.500  0.2432  0.1388 -0.1583
   80loPI    C2 1266  15.477  12.066   9.325  0.1847  0.0751 -0.1175
   80loPI    C3 1267  15.472  12.097   9.723  0.2788  0.1925 -0.1251
   80loPI   PO4 1268  15.348  12.607   9.339  0.1090  0.0152  0.1097
   80loPI   GL1 1269  15.315  12.583   8.916  0.2437 -0.1372  0.0544
   80loPI   GL2 1270  15.708  12.466   8.904 -0.1553  0.0743 -0.2109
   80loPI   C1A 1271  15.176  12.548   8.446 -0.3746  0.2980 -0.1210
   80loPI   C2A 1272  15.330  12.559   7.971 -0.1519  0.2254  0.0180
   80loPI   C3A 1273  15.608  12.386   7.704  0.0521 -0.0352 -0.0697
   80loPI   C4A 1274  15.756  12.075   7.321  0.1665 -0.1094  0.1130
   80loPI   C5A 1275  15.935  11.665   7.104  0.1225  0.0330  0.2832
   80loPI   C6A 1276  16.217  11.275   7.256  0.2396  0.1117  0.0691
   80loPI   C1B 1277  15.597  12.239   8.504 -0.2778  0.1159  0.1660
   80loPI   C2B 1278  15.620  12.047   8.075 -0.2022  0.1298  0.2212
   80loPI   C3B 1279  15.950  12.033   7.807  0.1165  0.1585  0.0588
   80loPI   C4B 1280  16.135  11.675   7.596 -0.1349 -0.0244 -0.0432
   81loPI    C1 1281   0.597   8.539   9.765 -0.2313 -0.1398 -0.1286
   81loPI    C2 1282   0.661   8.750  10.099  0.0196  0.0580 -0.2981
   81loPI    C3 1283   0.860   8.409  10.036 -0.1940 -0.0976 -0.1444
   81loPI   PO4 1284   0.337   8.776   9.559 -0.1502 -0.0601 -0.5253
   81loPI   GL1 1285   0.353   9.025   9.202 -0.0579  0.0748 -0.1705
   81loPI   GL2 1286   0.049   8.927   9.083 -0.0385  0.1600 -0.1196
   81loPI   C1A 1287   0.552   9.217   8.872 -0.1500 -0.1066 -0.4381
   81loPI   C2A 1288   0.722   9.015   8.452  0.0282  0.0128 -0.0433
   81loPI   C3A 1289   1.029   9.213   8.183  0.0089 -0.2002 -0.1782
   81loPI   C4A 1290   0.978   9.524   7.876 -0.0762 -0.1000 -0.2330
   81loPI   C5A 1291   0.791   9.534   7.454  0.0533  0.1247  0.0855
   81loPI   C6A 1292   0.872   9.601   7.106 -0.1354  0.0997  0.0212
   81loPI   C1B 1293  -0.143   8.879   8.701  0.0901  0.3417  0.0995
   81loPI   C2B 1294  -0.112   8.743   8.344  0.1455  0.0372 -0.0287
   81loPI   C3B 1295  -0.001   8.522   8.021 -0.0577  0.0802 -0.4113
   81loPI   C4B 1296  -0.081   8.135   7.778 -0.1053 -0.1389  0.2789
   82loPI    C1 1297   0.087   5.063  10.434 -0.0762 -0.0262  0.1874
   82loPI    C2 1298   0.353   5.341  10.327 -0.1278 -0.0426  0.0132
   82loPI    C3 1299   0.112   5.405  10.640  0.0595 -0.0154  0.1540
   82loPI   PO4 1300  -0.069   4.928  10.121  0.2306  0.0875 -0.0177
   82loPI   GL1 1301  -0.134   5.060   9.678  0.1077  0.0783 -0.2298
   82loPI   GL2 1302  -0.431   4.847   9.711 -0.2222 -0.1574 -0.0938
   82loPI   C1A 1303   0.079   5.189   9.342 -0.1267 -0.0952  0.1003
   82loPI   C2A 1304   0.205   5.124   9.037  0.1257 -0.2175  0.1562
   82loPI   C3A 1305   0.375   5.317   8.683 -0.1885 -0.0246  0.2086
   82loPI   C4A 1306   0.573   5.420   8.259 -0.1657  0.1963  0.1753
   82loPI   C5A 1307   0.937   5.384   7.988 -0.0270  0.1594 -0.2720
   82loPI   C6A 1308   0.949   5.164   7.541 -0.0715  0.2176  0.0032
   82loPI   C1B 1309  -0.413   5.003   9.207  0.1369  0.1322  0.0353
   82loPI   C2B 1310  -0.510   4.916   8.882 -0.1909 -0.0579  0.1686
   82loPI   C3B 1311  -0.468   4.773   8.462  0.1976 -0.0520  0.0184
   82loPI   C4B 1312  -0.246   4.557   8.090  0.4879  0.3083 -0.3008
   83loPI    C1 1313  10.558   0.966   9.730  0.1459  0.1382 -0.5153
   83loPI    C2 1314  10.279   1.236   9.634 -0.2868 -0.1200 -0.0340
   83loPI    C3 1315  10.429   1.226  10.005  0.0484 -0.2650 -0.1690
   83loPI   PO4 1316  10.759   0.993   9.579  0.0762 -0.1960  0.1345
   83loPI   GL1 1317  10.835   1.049   9.107 -0.0406 -0.0882 -0.0024
   83loPI   GL2 1318  10.883   0.795   9.121 -0.1158 -0.1855  0.0344
   83loPI   C1A 1319  10.600   1.102   8.778  0.0556 -0.2624  0.0820
   83loPI   C2A 1320  10.589   1.470   8.538 -0.0430 -0.2295  0.1203
   83loPI   C3A 1321  10.488   1.686   8.112 -0.2459  0.3035  0.1303
   83loPI   C4A 1322  10.340   1.888   7.792  0.0353 -0.1019  0.0482
   83loPI   C5A 1323  10.231   2.365   7.725 -0.1844  0.2477  0.2083
   83loPI   C6A 1324  10.186   2.579   7.388  0.1333 -0.1401 -0.0737
   83loPI   C1B 1325  11.040   0.575   8.727  0.3434 -0.0921 -0.3570
   83loPI   C2B 1326  10.989   0.499   8.289  0.0239 -0.0302 -0.0066
   83loPI   C3B 1327  11.115   0.337   7.839  0.0388  0.0858 -0.0800
   83loPI   C4B 1328  11.257   0.251   7.345 -0.1576  0.1749 -0.0858
   84loPI    C1 1329   3.472  15.998   9.622  0.0823 -0.0036 -0.1769
   84loPI    C2 1330   3.420  15.861   9.995 -0.0325  0.0917 -0.1573
   84loPI    C3 1331   3.637  15.650   9.732 -0.2495 -0.1539 -0.1433
   84loPI   PO4 1332   3.353  16.068   9.502  0.0384 -0.0349  0.0913
   84loPI   GL1 1333   3.298  16.146   9.025 -0.0287 -0.0534 -0.0621
   84loPI   GL2 1334   3.205  16.477   9.113  0.0587  0.1076  0.1391
   84loPI   C1A 1335   3.460  16.356   8.600 -0.0640 -0.2469  0.2583
   84loPI   C2A 1336   3.579  16.497   8.164 -0.1299 -0.1486 -0.1985
   84loPI   C3A 1337   3.621  16.325   7.776 -0.0755 -0.2661  0.1491
   84loPI   C4A 1338   3.775  16.276   7.337  0.0539  0.0703  0.2167
   84loPI   C5A 1339   3.650  16.454   6.961  0.1026 -0.2901  0.3801
   84loPI   C6A 1340   3.574  16.735   6.724  0.1671 -0.2410 -0.0725
   84loPI   C1B 1341   3.105  16.676   8.650  0.0695 -0.0896 -0.1352
   84loPI   C2B 1342   3.255  16.812   8.294  0.3439 -0.3752 -0.0944
   84loPI   C3B 1343   3.213  17.039   7.950 -0.2513  0.1940 -0.0233
   84loPI   C4B 1344   3.210  17.076   7.585  0.0146  0.1417  0.0311
   85loPI    C1 1345   0.792  19.471  10.402 -0.2629  0.1586 -0.0006
   85loPI    C2 1346   0.795  19.114  10.582  0.0720  0.0699 -0.1742
   85loPI    C3 1347   0.844  19.447  10.798 -0.0568 -0.0000 -0.0354
   85loPI   PO4 1348   0.892  19.477  10.093  0.2005  0.2607  0.1013
   85loPI   GL1 1349   0.990  19.531   9.593 -0.0276 -0.0982 -0.2862
   85loPI   GL2 1350   1.244  19.667   9.651 -0.1379  0.0086 -0.2831
   85loPI   C1A 1351   1.170  19.276   9.276 -0.2411 -0.3466  0.2506
   85loPI   C2A 1352   1.215  19.444   8.791  0.0010 -0.3973  0.2545
   85loPI   C3A 1353   1.279  19.374   8.347  0.1364 -0.2957  0.0246
   85loPI   C4A 1354   1.113  19.311   7.845  0.4021  0.2867  0.0631
   85loPI   C5A 1355   1.255  18.900   7.516 -0.1069 -0.0476 -0.0126
   85loPI   C6A 1356   1.542  18.686   7.488 -0.4385  0.1211  0.1292
   85loPI   C1B 1357   1.317  19.783   9.240  0.0727  0.0963  0.2602
   85loPI   C2B 1358   1.425  20.005   8.808 -0.0714 -0.1463  0.0869
   85loPI   C3B 1359   1.480  20.108   8.430  0.0915 -0.5933  0.2037
   85loPI   C4B 1360   1.663  20.202   8.050  0.5492  0.0011  0.0062
   86loPI    C1 1361   3.978  11.599  10.136  0.0247  0.0254 -0.1636
   86loPI    C2 1362   4.313  11.384  10.095 -0.0647 -0.0717 -0.4013
   86loPI    C3 1363   3.982  11.213  10.241  0.0005  0.0368 -0.1202
   86loPI   PO4 1364   3.940  11.636   9.836 -0.4758 -0.0164 -0.0493
   86loPI   GL1 1365   3.970  11.460   9.503 -0.1058 -0.2535 -0.0482
   86loPI   GL2 1366   4.095  11.674   9.247  0.3364  0.0868 -0.0234
   86loPI   C1A 1367   3.696  11.431   9.037 -0.0079 -0.1740  0.1259
   86loPI   C2A 1368   3.608  11.492   8.620 -0.0877 -0.2207  0.0003
   86loPI   C3A 1369   3.617  11.582   8.218  0.1951 -0.0311 -0.0545
   86loPI   C4A 1370   3.647  11.519   7.788  0.1625  0.1119  0.1867
   86loPI   C5A 1371   3.513  11.741   7.405  0.1751  0.3794 -0.0787
   86loPI   C6A 1372   3.095  11.804   7.142 -0.0149 -0.2081 -0.1294
   86loPI   C1B 1373   4.098  11.608   8.806 -0.1443 -0.0464  0.4093
   86loPI   C2B 1374   4.119  11.412   8.372  0.0420  0.3973  0.0706
   86loPI   C3B 1375   3.886  11.133   8.186  0.0706  0.0348 -0.0406
   86loPI   C4B 1376   3.722  10.998   7.740 -0.0253 -0.1079 -0.0570
   87loPI    C1 1377  19.419  13.038   9.619  0.1824  0.0064 -0.1515
   87loPI    C2 1378  19.590  12.692   9.511  0.0344 -0.1729  0.1731
   87loPI    C3 1379  19.627  12.825   9.887 -0.2953 -0.0697  0.1722
   87loPI   PO4 1380  19.176  13.060   9.525  0.2021  0.0063 -0.4633
   87loPI   GL1 1381  19.038  13.210   9.053 -0.0782 -0.3287 -0.0551
   87loPI   GL2 1382  18.909  13.455   9.186 -0.2374 -0.2009  0.2816
   87loPI   C1A 1383  19.232  13.295   8.623  0.0076 -0.2803 -0.1296
   87loPI   C2A 1384  19.049  13.242   8.095  0.0752 -0.0602 -0.2198
   87loPI   C3A 1385  18.941  13.163   7.684 -0.0815 -0.2280 -0.0259
   87loPI   C4A 1386  18.837  13.146   7.277 -0.2726 -0.0016 -0.0992
   87loPI   C5A 1387  18.709  12.960   6.976  0.0701 -0.1367 -0.0604
   87loPI   C6A 1388  18.803  12.552   6.928 -0.0979 -0.3019  0.1434
   87loPI   C1B 1389  18.739  13.491   8.779  0.1986 -0.1724  0.3672
   87loPI   C2B 1390  18.654  13.429   8.376 -0.1388 -0.3630  0.3354
   87loPI   C3B 1391  18.554  13.112   8.028  0.1179 -0.1090  0.0846
   87loPI   C4B 1392  18.472  12.921   7.624 -0.1225  0.1200 -0.3808
   88loPI    C1 1393   4.028  16.870   9.660 -0.0468 -0.0066  0.0072
   88loPI    C2 1394   3.697  16.886   9.884  0.0772  0.2134  0.1785
   88loPI    C3 1395   4.036  16.735  10.036  0.0560 -0.0189  0.0009
   88loPI   PO4 1396   3.888  16.858   9.378  0.0899 -0.2071 -0.1220
   88loPI   GL1 1397   3.819  17.008   9.061 -0.0133 -0.0773  0.0252
   88loPI   GL2 1398   3.500  16.870   9.032 -0.0129  0.0697  0.0992
   88loPI   C1A 1399   3.750  16.964   8.623 -0.1972  0.0025 -0.1130
   88loPI   C2A 1400   3.618  17.111   8.151 -0.3142  0.2163  0.0492
   88loPI   C3A 1401   3.591  17.363   7.824  0.2329  0.3906  0.0116
   88loPI   C4A 1402   3.806  17.283   7.457 -0.2266 -0.1721 -0.0677
   88loPI   C5A 1403   4.049  17.358   7.048  0.0250  0.2337  0.3145
   88loPI   C6A 1404   3.992  16.917   6.860 -0.2215  0.0986  0.0848
   88loPI   C1B 1405   3.275  17.123   8.700 -0.1291 -0.0293 -0.1783
   88loPI   C2B 1406   2.940  17.090   8.491 -0.0306 -0.1743 -0.1800
   88loPI   C3B 1407   2.755  16.831   8.179  0.0787  0.3641  0.0638
   88loPI   C4B 1408   2.631  16.548   7.781 -0.2390 -0.3891  0.3225
   89loPI    C1 1409   9.438   7.982   9.538 -0.1551 -0.2086 -0.0105
   89loPI    C2 1410   9.541   7.631   9.700  0.2475 -0.0028  0.1958
   89loPI    C3 1411   9.652   7.973   9.876 -0.1520  0.2324  0.0058
   89loPI   PO4 1412   9.167   7.969   9.498 -0.0019 -0.3001  0.2644
   89loPI   GL1 1413   9.035   8.106   8.993  0.0947 -0.0805 -0.0760
   89loPI   GL2 1414   8.967   7.807   9.083  0.1024  0.0692  0.3884
   89loPI   C1A 1415   9.111   8.180   8.529  0.0563 -0.1457 -0.0127
   89loPI   C2A 1416   9.349   8.128   8.099  0.1314  0.3257 -0.0618
   89loPI   C3A 1417   9.343   8.202   7.685  0.4406 -0.1023 -0.1419
   89loPI   C4A 1418   9.200   8.030   7.313 -0.0949 -0.1798  0.2917
   89loPI   C5A 1419   9.288   7.909   7.058 -0.1578 -0.1168 -0.1639
   89loPI   C6A 1420   9.109   7.794   6.739  0.0706 -0.1740  0.0166
   89loPI   C1B 1421   9.277   7.735   8.757 -0.0111  0.1430 -0.0445
   89loPI   C2B 1422   9.374   7.622   8.302 -0.0689 -0.1022  0.4796
   89loPI   C3B 1423   9.157   7.648   7.940  0.2669 -0.0170  0.1024
   89loPI   C4B 1424   8.913   7.905   7.695  0.3684  0.0804  0.1423
   90loPI    C1 1425   9.198  12.706   9.705 -0.0444  0.1803 -0.0310
   90loPI    C2 1426   9.280  12.528  10.054  0.1814 -0.1137 -0.2289
   90loPI    C3 1427   8.910  12.661   9.979  0.1301 -0.0519  0.1181
   90loPI   PO4 1428   9.217  12.554   9.517 -0.1700  0.2163 -0.1957
   90loPI   GL1 1429   9.274  12.259   9.225 -0.2452 -0.1878 -0.2413
   90loPI   GL2 1430   9.166  12.026   9.308  0.0441  0.1222 -0.0093
   90loPI   C1A 1431   9.399  11.951   8.902  0.0412  0.0903  0.2393
   90loPI   C2A 1432   9.544  11.622   8.626 -0.1116  0.0435  0.1590
   90loPI   C3A 1433   9.408  11.726   8.258  0.3831 -0.2050 -0.1669
   90loPI   C4A 1434   9.513  11.769   7.729  0.0325  0.1326 -0.0098
   90loPI   C5A 1435   9.691  11.677   7.312  0.1866 -0.1702 -0.0145
   90loPI   C6A 1436   9.940  11.222   7.304  0.2526 -0.2364  0.2695
   90loPI   C1B 1437   8.936  11.970   9.024  0.2382  0.1930 -0.3527
   90loPI   C2B 1438   8.851  11.981   8.546 -0.2989  0.2642  0.0137
   90loPI   C3B 1439   8.647  12.091   8.182  0.0821 -0.1202  0.0329
   90loPI   C4B 1440   8.500  11.815   7.799 -0.1570  0.0364  0.0416
   91loPI    C1 1441  15.697   0.975   9.320  0.2972  0.0519  0.1396
   91loPI    C2 1442  15.557   0.905   9.688  0.0504  0.0516  0.0471
   91loPI    C3 1443  15.571   1.279   9.547 -0.1096  0.0250 -0.0422
   91loPI   PO4 1444  15.693   0.738   9.181  0.1440  0.2372 -0.2485
   91loPI   GL1 1445  15.866   0.785   8.733 -0.0703 -0.2656  0.3240
   91loPI   GL2 1446  15.524   0.687   8.738  0.1562  0.2408  0.2356
   91loPI   C1A 1447  16.053   0.930   8.416 -0.0847  0.0202  0.2729
   91loPI   C2A 1448  16.175   0.899   7.996  0.0867  0.2775  0.3435
   91loPI   C3A 1449  16.369   0.943   7.740  0.3030 -0.1641 -0.1233
   91loPI   C4A 1450  16.589   1.402   7.693  0.2433  0.1920 -0.0029
   91loPI   C5A 1451  16.444   1.782   7.475 -0.0884  0.0900 -0.0516
   91loPI   C6A 1452  16.102   1.993   7.404 -0.1902  0.0692  0.0426
   91loPI   C1B 1453  15.646   0.676   8.271 -0.3074  0.2369  0.1882
   91loPI   C2B 1454  15.694   0.857   7.932 -0.1128 -0.1962  0.4781
   91loPI   C3B 1455  15.877   1.132   7.595  0.7582  0.2394 -0.1110
   91loPI   C4B 1456  16.086   1.371   7.444  0.1615 -0.0925  0.0694
   92loPI    C1 1457  11.239   1.476  10.192 -0.0849  0.1026 -0.0169
   92loPI    C2 1458  11.478   1.692  10.429  0.0021  0.0848 -0.0876
   92loPI    C3 1459  11.151   1.517  10.580  0.1360 -0.0484  0.0511
   92loPI   PO4 1460  11.308   1.667   9.900 -0.1711 -0.0806  0.3365
   92loPI   GL1 1461  11.609   1.699   9.548 -0.0523  0.3119 -0.2047
   92loPI   GL2 1462  11.853   1.627   9.357  0.3426  0.2488  0.0878
   92loPI   C1A 1463  11.420   1.803   9.235 -0.3482  0.1803  0.1678
   92loPI   C2A 1464  11.437   1.612   8.775 -0.6271  0.0505 -0.0846
   92loPI   C3A 1465  11.534   1.366   8.300  0.0310 -0.6203 -0.1430
   92loPI   C4A 1466  11.508   1.265   7.967  0.3463 -0.0824  0.4329
   92loPI   C5A 1467  11.605   1.106   7.688 -0.2661 -0.0466  0.1236
   92loPI   C6A 1468  11.937   1.260   7.411 -0.0990 -0.1373  0.0350
   92loPI   C1B 1469  11.931   1.560   8.945 -0.1045  0.2734 -0.0357
   92loPI   C2B 1470  12.026   1.584   8.542 -0.0688 -0.5017 -0.0824
   92loPI   C3B 1471  12.041   1.576   8.143 -0.0683 -0.0786  0.0876
   92loPI   C4B 1472  11.964   1.667   7.766  0.0416  0.0237 -0.1321
   93loPI    C1 1473  15.598   4.005  10.026  0.1590 -0.1560  0.1056
   93loPI    C2 1474  15.320   3.719  10.048  0.1545 -0.1642 -0.0435
   93loPI    C3 1475  15.254   4.076  10.216 -0.0239 -0.1043 -0.2375
   93loPI   PO4 1476  15.661   3.939   9.757 -0.1608  0.0534 -0.2678
   93loPI   GL1 1477  15.935   3.920   9.401 -0.0892  0.0147  0.1887
   93loPI   GL2 1478  15.960   3.648   9.481  0.3587  0.0948 -0.1561
   93loPI   C1A 1479  16.302   3.960   9.158  0.3215 -0.3363 -0.1965
   93loPI   C2A 1480  16.473   3.824   8.794 -0.0466 -0.1288  0.0439
   93loPI   C3A 1481  16.679   3.434   8.820 -0.0101 -0.0738 -0.1196
   93loPI   C4A 1482  17.173   3.219   8.728  0.2395 -0.1559 -0.2402
   93loPI   C5A 1483  17.378   3.179   8.467  0.2192  0.1958  0.0081
   93loPI   C6A 1484  17.676   3.228   8.023  0.0523 -0.0687  0.2768
   93loPI   C1B 1485  15.787   3.454   9.074 -0.0792 -0.2897 -0.1082
   93loPI   C2B 1486  15.547   3.417   8.675 -0.0769  0.2695 -0.0669
   93loPI   C3B 1487  15.475   3.418   8.250 -0.2089 -0.1856  0.2763
   93loPI   C4B 1488  15.626   3.185   7.969 -0.0460  0.2152  0.0040
   94loPI    C1 1489  10.832  14.735   9.897 -0.0348 -0.1749 -0.0041
   94loPI    C2 1490  10.771  14.353  10.000 -0.2156 -0.0732  0.2806
   94loPI    C3 1491  11.048  14.570  10.191  0.0672 -0.1307 -0.0538
   94loPI   PO4 1492  10.937  14.625   9.608 -0.2261  0.0114 -0.1185
   94loPI   GL1 1493  10.824  14.688   9.249  0.0454  0.0996 -0.0499
   94loPI   GL2 1494  10.716  14.407   9.064 -0.0426  0.1284 -0.2217
   94loPI   C1A 1495  10.682  14.929   8.906 -0.0574  0.1947 -0.1008
   94loPI   C2A 1496  10.349  15.273   8.706  0.1313  0.2111  0.1285
   94loPI   C3A 1497  10.166  15.177   8.309 -0.0383  0.0710  0.1513
   94loPI   C4A 1498  10.308  15.007   8.027 -0.2361  0.0525  0.0650
   94loPI   C5A 1499  10.546  15.164   7.645 -0.2588 -0.0538  0.0840
   94loPI   C6A 1500  10.349  15.534   7.461 -0.0780 -0.0791  0.0295
   94loPI   C1B 1501  10.835  14.527   8.677  0.1303  0.1952  0.7045
   94loPI   C2B 1502  11.152  14.498   8.423  0.0383 -0.1546  0.2005
   94loPI   C3B 1503  11.262  14.782   7.999 -0.2801 -0.2763  0.0878
   94loPI   C4B 1504  11.197  14.826   7.474 -0.2701  0.1747 -0.2456
   95loPI    C1 1505  11.173   8.871   9.957  0.1454  0.2306 -0.1027
   95loPI    C2 1506  10.990   9.174   9.771  0.0515  0.2536  0.0258
   95loPI    C3 1507  10.795   8.962  10.049  0.1199  0.0812 -0.0558
   95loPI   PO4 1508  11.266   8.715   9.687 -0.2212 -0.0287 -0.1068
   95loPI   GL1 1509  11.331   8.343   9.254 -0.0869 -0.1364  0.1112
   95loPI   GL2 1510  11.113   8.389   9.383  0.1529 -0.0931 -0.2857
   95loPI   C1A 1511  11.480   8.642   8.959  0.1467 -0.2591 -0.0047
   95loPI   C2A 1512  11.502   8.758   8.442 -0.2420  0.0222  0.0279
   95loPI   C3A 1513  11.589   8.549   7.995  0.0767  0.2472  0.0337
   95loPI   C4A 1514  11.552   8.575   7.557  0.0667  0.1907  0.0666
   95loPI   C5A 1515  11.652   8.436   7.161  0.0870 -0.0053 -0.1209
   95loPI   C6A 1516  11.838   8.375   6.738 -0.4943  0.2757 -0.0571
   95loPI   C1B 1517  10.997   8.497   8.968  0.0804 -0.0248 -0.0788
   95loPI   C2B 1518  11.020   8.679   8.543  0.1092 -0.2597  0.0948
   95loPI   C3B 1519  10.827   8.651   8.128 -0.0672 -0.0397 -0.1496
   95loPI   C4B 1520  10.558   8.671   7.775 -0.0457  0.3126  0.3868
   96loPI    C1 1521  10.837   3.421  10.159 -0.1109 -0.0567 -0.2449
   96loPI    C2 1522  10.541   3.200  10.005 -0.2538  0.0159 -0.0787
   96loPI    C3 1523  10.523   3.321  10.385  0.0359 -0.0575 -0.0389
   96loPI   PO4 1524  11.027   3.479   9.942  0.3200  0.0688  0.0556
   96loPI   GL1 1525  11.145   3.515   9.505  0.4462 -0.0287  0.2905
   96loPI   GL2 1526  11.293   3.305   9.441  0.1702 -0.2300 -0.1213
   96loPI   C1A 1527  10.999   3.504   9.035  0.0462  0.4992 -0.0657
   96loPI   C2A 1528  11.012   3.582   8.634  0.1956  0.1976  0.0594
   96loPI   C3A 1529  10.636   3.726   8.290  0.1793  0.1140  0.1885
   96loPI   C4A 1530  10.674   3.827   7.851 -0.3098 -0.1613 -0.0658
   96loPI   C5A 1531  10.880   4.134   7.543 -0.2732  0.1493  0.0786
   96loPI   C6A 1532  11.124   4.318   7.112  0.2742 -0.0008 -0.0089
   96loPI   C1B 1533  11.445   3.211   8.958 -0.0913 -0.0834  0.4296
   96loPI   C2B 1534  11.608   2.969   8.555  0.0360  0.2333 -0.0098
   96loPI   C3B 1535  11.652   2.712   8.177 -0.0969  0.1672  0.3037
   96loPI   C4B 1536  11.829   2.302   8.089  0.1048 -0.3346 -0.3150
   97loPI    C1 1537   3.351  17.818  10.180 -0.1215 -0.2049 -0.0860
   97loPI    C2 1538   3.143  17.568  10.413 -0.0883  0.1493  0.3378
   97loPI    C3 1539   3.265  17.920  10.557 -0.1719  0.4359 -0.2592
   97loPI   PO4 1540   3.190  17.885   9.967  0.2731  0.0725  0.3200
   97loPI   GL1 1541   3.116  18.026   9.463  0.1091  0.0564 -0.1097
   97loPI   GL2 1542   2.884  18.174   9.565  0.0817 -0.1332  0.2218
   97loPI   C1A 1543   3.170  17.778   9.096  0.0229 -0.1089  0.1494
   97loPI   C2A 1544   3.168  17.622   8.667 -0.1302  0.1152 -0.0448
   97loPI   C3A 1545   3.248  17.448   8.258  0.0191 -0.3596 -0.2400
   97loPI   C4A 1546   3.126  17.607   7.898  0.0222  0.0607  0.1338
   97loPI   C5A 1547   3.059  17.510   7.492 -0.1132 -0.2033  0.1726
   97loPI   C6A 1548   3.370  17.448   7.259 -0.0642 -0.0629 -0.0069
   97loPI   C1B 1549   2.717  18.096   9.121 -0.3770 -0.0313  0.0989
   97loPI   C2B 1550   2.796  17.927   8.678 -0.1103 -0.0864 -0.4128
   97loPI   C3B 1551   3.107  17.989   8.283  0.1821 -0.0721 -0.0090
   97loPI   C4B 1552   3.299  18.186   7.969 -0.0186  0.1837 -0.1174
   98loPI    C1 1553  10.126   6.254   9.852  0.2022 -0.1164  0.0316
   98loPI    C2 1554  10.331   6.562   9.698 -0.0406  0.0410  0.0174
   98loPI    C3 1555  10.520   6.286   9.918  0.1459  0.3088  0.1998
   98loPI   PO4 1556  10.004   5.999   9.559  0.0999  0.0469 -0.0607
   98loPI   GL1 1557   9.939   5.965   9.182  0.2011  0.2180 -0.1228
   98loPI   GL2 1558   9.663   6.218   9.134  0.1079 -0.1953 -0.1272
   98loPI   C1A 1559  10.172   5.996   8.864  0.3794  0.2983  0.1597
   98loPI   C2A 1560  10.351   6.104   8.485  0.4567 -0.1810 -0.0851
   98loPI   C3A 1561  10.625   6.284   8.178  0.3279 -0.3385  0.1697
   98loPI   C4A 1562  10.903   6.225   7.730 -0.2118 -0.0592 -0.1087
   98loPI   C5A 1563  10.885   6.164   7.314 -0.4708 -0.2002  0.0373
   98loPI   C6A 1564  11.089   5.862   7.181  0.0489 -0.0212  0.2679
   98loPI   C1B 1565   9.396   6.383   8.815 -0.1414  0.4124  0.0309
   98loPI   C2B 1566   9.098   6.651   8.542  0.1057 -0.1508 -0.1385
   98loPI   C3B 1567   8.709   6.683   8.483  0.3345 -0.1185  0.3329
   98loPI   C4B 1568   8.516   6.469   8.547  0.0600 -0.1586 -0.1465
   99loPI    C1 1569   5.227   6.364   9.802 -0.3746  0.2006 -0.0650
   99loPI    C2 1570   4.907   6.126   9.843 -0.1442 -0.1344 -0.1727
   99loPI    C3 1571   5.267   5.968   9.766  0.0301  0.2463 -0.1667
   99loPI   PO4 1572   5.120   6.606   9.592  0.2626 -0.2942  0.1889
   99loPI   GL1 1573   5.132   6.496   9.052  0.3590 -0.1065  0.2629
   99loPI   GL2 1574   5.165   6.223   9.083  0.1771  0.5568  0.0085
   99loPI   C1A 1575   5.346   6.587   8.593  0.3636 -0.2179 -0.1580
   99loPI   C2A 1576   5.319   6.737   8.150 -0.1430  0.1843 -0.1953
   99loPI   C3A 1577   5.249   7.032   7.754 -0.0981 -0.3786 -0.0276
   99loPI   C4A 1578   5.064   7.449   7.678 -0.1479  0.1559  0.1264
   99loPI   C5A 1579   4.802   7.778   7.511 -0.1506 -0.0398 -0.0091
   99loPI   C6A 1580   4.633   7.900   7.114  0.0938  0.3539  0.1460
   99loPI   C1B 1581   4.743   6.202   8.792 -0.0950  0.4353 -0.0709
   99loPI   C2B 1582   4.651   6.168   8.330  0.1211  0.1304 -0.3082
   99loPI   C3B 1583   4.630   6.118   7.925  0.0805 -0.2720 -0.3514
   99loPI   C4B 1584   4.402   6.095   7.599 -0.0561 -0.1517 -0.0067
  100loPI    C1 1585   7.260   5.135  10.156  0.2129 -0.0539 -0.0056
  100loPI    C2 1586   6.912   5.325  10.106  0.0369 -0.3319  0.1371
  100loPI    C3 1587   7.192   5.480  10.345  0.0966 -0.0030 -0.1381
  100loPI   PO4 1588   7.144   5.062   9.781  0.1162 -0.0791  0.0013
  100loPI   GL1 1589   7.209   4.951   9.338 -0.2709  0.1841  0.0637
  100loPI   GL2 1590   7.015   4.631   9.278 -0.0209  0.3850 -0.1500
  100loPI   C1A 1591   7.366   5.000   8.935  0.0938 -0.0879 -0.3805
  100loPI   C2A 1592   7.474   4.858   8.502  0.2655 -0.0987 -0.2150
  100loPI   C3A 1593   7.393   4.997   8.080  0.2155  0.3694  0.4396
  100loPI   C4A 1594   7.324   4.937   7.575  0.0961 -0.1676  0.1472
  100loPI   C5A 1595   7.508   4.695   7.205  0.1626  0.0426  0.0362
  100loPI   C6A 1596   7.490   4.664   6.855 -0.0593  0.1417 -0.3062
  100loPI   C1B 1597   6.726   4.831   8.993 -0.0890 -0.1105 -0.2717
  100loPI   C2B 1598   6.777   4.990   8.591 -0.3994  0.1654  0.0047
  100loPI   C3B 1599   7.159   5.263   8.489  0.0161  0.0106  0.0133
  100loPI   C4B 1600   7.332   5.438   8.131 -0.1854  0.2917 -0.1371
  101loPI    C1 1601  11.459   4.287   9.903 -0.2249  0.1578 -0.1344
  101loPI    C2 1602  11.177   4.362  10.177 -0.0742  0.0809  0.0442
  101loPI    C3 1603  11.564   4.387  10.276 -0.0188 -0.0787 -0.1263
  101loPI   PO4 1604  11.380   4.012   9.820  0.1210 -0.1797  0.2762
  101loPI   GL1 1605  11.433   3.976   9.414 -0.3744 -0.3499 -0.0305
  101loPI   GL2 1606  11.301   4.232   9.312  0.0798  0.0731  0.2194
  101loPI   C1A 1607  11.599   3.726   9.090  0.2450 -0.2026  0.2886
  101loPI   C2A 1608  11.472   3.633   8.690 -0.1071 -0.1169 -0.3198
  101loPI   C3A 1609  11.350   3.328   8.343  0.0807 -0.3282 -0.1172
  101loPI   C4A 1610  11.422   3.104   7.961  0.1829  0.1797  0.1797
  101loPI   C5A 1611  11.529   2.728   7.687  0.0657 -0.0488 -0.2237
  101loPI   C6A 1612  11.855   2.466   7.493 -0.0266 -0.0204 -0.3752
  101loPI   C1B 1613  11.469   4.186   8.885  0.3191 -0.1119 -0.1583
  101loPI   C2B 1614  11.612   4.162   8.454 -0.1344 -0.1094 -0.0788
  101loPI   C3B 1615  11.828   4.218   8.102 -0.0461  0.1104 -0.0476
  101loPI   C4B 1616  11.841   4.024   7.751 -0.1419  0.5252 -0.1147
  102loPI    C1 1617  11.542   2.539   9.915 -0.0197  0.1740 -0.1872
  102loPI    C2 1618  11.693   2.192  10.045  0.0878  0.1675 -0.3263
  102loPI    C3 1619  11.321   2.206   9.897 -0.0125  0.1631 -0.0798
  102loPI   PO4 1620  11.753   2.624   9.790 -0.1645 -0.2972  0.4437
  102loPI   GL1 1621  11.547   2.821   9.382 -0.0822 -0.1304  0.0278
  102loPI   GL2 1622  11.285   2.616   9.497  0.2132  0.2667 -0.1131
  102loPI   C1A 1623  11.385   2.710   8.944 -0.0352 -0.0989  0.1444
  102loPI   C2A 1624  11.408   2.441   8.625 -0.0186  0.2612  0.2036
  102loPI   C3A 1625  11.302   2.241   8.249 -0.0865 -0.2199 -0.2221
  102loPI   C4A 1626  11.332   2.146   7.837 -0.0995  0.2202  0.2309
  102loPI   C5A 1627  11.678   2.026   7.648  0.0849  0.0277  0.0401
  102loPI   C6A 1628  11.934   1.987   7.327 -0.2659  0.1222  0.1095
  102loPI   C1B 1629  11.236   2.301   9.162  0.1807  0.0282 -0.0121
  102loPI   C2B 1630  11.199   2.038   8.713  0.0083 -0.1519  0.1592
  102loPI   C3B 1631  11.118   1.699   8.390  0.0978 -0.3043 -0.0435
  102loPI   C4B 1632  10.999   1.423   8.069  0.1330  0.0951 -0.0013
  103loPI    C1 1633  10.215  14.253   9.910  0.3536  0.4622 -0.0917
  103loPI    C2 1634  10.485  13.974  10.005  0.2038  0.2763 -0.2064
  103loPI    C3 1635  10.270  14.149  10.292  0.2970  0.2729 -0.1343
  103loPI   PO4 1636  10.286  14.505   9.793  0.1852 -0.0462 -0.0058
  103loPI   GL1 1637  10.365  14.765   9.436  0.0089 -0.2270 -0.2355
  103loPI   GL2 1638  10.105  14.965   9.200 -0.0221 -0.0182  0.0589
  103loPI   C1A 1639  10.337  14.659   8.888  0.1739  0.2427  0.1386
  103loPI   C2A 1640  10.358  14.649   8.444 -0.3109 -0.0744  0.2769
  103loPI   C3A 1641  10.430  14.444   7.970  0.0827  0.2624 -0.4138
  103loPI   C4A 1642  10.288  14.766   7.586  0.0128  0.2717  0.1928
  103loPI   C5A 1643  10.065  15.083   7.319 -0.1234 -0.1698  0.0962
  103loPI   C6A 1644   9.860  15.541   7.224 -0.2000 -0.0325 -0.1078
  103loPI   C1B 1645   9.950  14.959   8.751 -0.2267 -0.0196  0.2139
  103loPI   C2B 1646   9.857  14.802   8.435 -0.1390  0.3195  0.0773
  103loPI   C3B 1647   9.923  14.510   8.111 -0.0129 -0.1544  0.1332
  103loPI   C4B 1648  10.076  14.330   7.673 -0.3984 -0.1310 -0.0145
  104loPI    C1 1649  16.598  14.336   9.598 -0.0578  0.3090  0.2556
  104loPI    C2 1650  16.905  14.268   9.846 -0.1341 -0.0692  0.2535
  104loPI    C3 1651  16.545  14.363   9.994 -0.1395 -0.1310  0.2804
  104loPI   PO4 1652  16.550  14.517   9.449 -0.1658  0.0466  0.2895
  104loPI   GL1 1653  16.481  14.601   9.044  0.1948 -0.0095  0.1219
  104loPI   GL2 1654  16.857  14.712   8.965  0.0626 -0.1792  0.1986
  104loPI   C1A 1655  16.326  14.512   8.722  0.3149  0.1377 -0.0697
  104loPI   C2A 1656  16.235  14.288   8.332  0.1442  0.1961  0.1461
  104loPI   C3A 1657  16.260  14.296   7.864 -0.0195  0.0704 -0.0122
  104loPI   C4A 1658  16.253  13.918   7.606 -0.0609  0.2132 -0.1507
  104loPI   C5A 1659  15.986  13.664   7.744 -0.0977  0.3557  0.0751
  104loPI   C6A 1660  15.605  13.706   7.952 -0.1196 -0.0557 -0.1189
  104loPI   C1B 1661  16.802  14.653   8.553 -0.1183  0.2226  0.0460
  104loPI   C2B 1662  16.764  14.478   8.153  0.0418 -0.0947  0.0450
  104loPI   C3B 1663  16.803  14.490   7.798  0.0325 -0.5334 -0.0314
  104loPI   C4B 1664  17.046  14.599   7.397  0.2868  0.2043  0.1701
  105loPI    C1 1665  17.252   5.228  10.162  0.3002  0.1772  0.0807
  105loPI    C2 1666  17.083   4.912  10.340  0.2346  0.2103  0.0773
  105loPI    C3 1667  16.899   5.267  10.345  0.2016  0.1974 -0.1104
  105loPI   PO4 1668  17.304   5.210   9.968  0.0800  0.3553  0.0365
  105loPI   GL1 1669  17.606   5.110   9.615 -0.0977 -0.0354  0.3316
  105loPI   GL2 1670  17.326   5.203   9.306  0.3231  0.1570 -0.3364
  105loPI   C1A 1671  17.724   4.863   9.414 -0.1927 -0.0427  0.1748
  105loPI   C2A 1672  17.838   4.589   9.079 -0.3787 -0.2728  0.0309
  105loPI   C3A 1673  17.808   4.342   8.820 -0.1685  0.4336 -0.1849
  105loPI   C4A 1674  17.896   4.294   8.341 -0.0474  0.0220 -0.2157
  105loPI   C5A 1675  17.871   4.184   7.904  0.0047  0.1342 -0.0389
  105loPI   C6A 1676  17.739   4.251   7.476 -0.1223  0.0439 -0.0345
  105loPI   C1B 1677  17.425   5.378   8.959  0.1747  0.2274  0.0361
  105loPI   C2B 1678  17.435   5.170   8.579 -0.0241 -0.0417 -0.4359
  105loPI   C3B 1679  17.172   4.944   8.373  0.0420  0.1400  0.2529
  105loPI   C4B 1680  17.028   4.532   8.163 -0.1860  0.3854 -0.1270
  106loPI    C1 1681  10.325   9.238   9.849 -0.2680 -0.0420 -0.0295
  106loPI    C2 1682  10.340   9.107  10.226  0.1201  0.3363  0.0953
  106loPI    C3 1683   9.988   9.202  10.061 -0.0550  0.1514  0.3525
  106loPI   PO4 1684  10.458   9.042   9.687 -0.0781  0.0602 -0.0414
  106loPI   GL1 1685  10.469   8.955   9.227  0.1218 -0.1155  0.0169
  106loPI   GL2 1686  10.266   8.616   9.278  0.1561  0.1171 -0.1106
  106loPI   C1A 1687  10.780   9.015   8.857 -0.0024  0.3018  0.0714
  106loPI   C2A 1688  10.998   9.116   8.338 -0.0757  0.1441 -0.1499
  106loPI   C3A 1689  11.255   8.958   8.011  0.0265  0.1537 -0.0851
  106loPI   C4A 1690  11.489   9.116   7.546 -0.0861  0.2351 -0.1975
  106loPI   C5A 1691  11.813   9.291   7.123  0.1446  0.2950 -0.2375
  106loPI   C6A 1692  11.612   9.296   6.759  0.3004  0.0309  0.0103
  106loPI   C1B 1693  10.004   8.445   9.015 -0.1701 -0.1405 -0.0720
  106loPI   C2B 1694  10.136   8.374   8.505  0.0220 -0.0296  0.1912
  106loPI   C3B 1695  10.217   8.311   8.135  0.3986 -0.0246  0.2727
  106loPI   C4B 1696  10.262   8.101   7.740  0.0421 -0.1510 -0.0943
  107loPI    C1 1697  13.271  12.332   9.561 -0.1573  0.1067 -0.0936
  107loPI    C2 1698  13.122  12.675   9.704  0.0329  0.1566 -0.0128
  107loPI    C3 1699  13.275  12.403   9.955 -0.4190 -0.1358 -0.0437
  107loPI   PO4 1700  13.076  12.265   9.389 -0.1735  0.2479 -0.2612
  107loPI   GL1 1701  12.970  12.254   9.061  0.2053  0.2185 -0.0498
  107loPI   GL2 1702  12.864  11.984   8.818 -0.2165  0.0246  0.0108
  107loPI   C1A 1703  12.686  12.434   8.736 -0.0783 -0.0884  0.0504
  107loPI   C2A 1704  12.700  12.490   8.309 -0.3869  0.1331 -0.4134
  107loPI   C3A 1705  12.651  12.315   7.933 -0.0217  0.1603  0.3103
  107loPI   C4A 1706  12.856  12.124   7.679 -0.1433 -0.3318 -0.2375
  107loPI   C5A 1707  12.978  11.856   7.323 -0.0527 -0.0886 -0.0824
  107loPI   C6A 1708  13.017  11.780   6.915 -0.0118  0.2567  0.0462
  107loPI   C1B 1709  12.742  11.995   8.350  0.3333 -0.0065  0.1775
  107loPI   C2B 1710  12.600  11.742   7.953  0.3985 -0.2784  0.1461
  107loPI   C3B 1711  12.198  11.539   7.770  0.2770  0.0081  0.2059
  107loPI   C4B 1712  12.221  11.121   7.425  0.0433 -0.1426  0.0193
  108loPI    C1 1713   2.645   9.162  10.128 -0.0954 -0.0542 -0.1678
  108loPI    C2 1714   2.425   8.914  10.351  0.0902  0.0358  0.1209
  108loPI    C3 1715   2.369   9.309  10.376  0.2624  0.0577  0.1748
  108loPI   PO4 1716   2.598   9.059   9.845  0.1367 -0.1894 -0.1745
  108loPI   GL1 1717   2.877   9.057   9.473  0.4806 -0.1156 -0.2149
  108loPI   GL2 1718   3.096   9.415   9.302  0.0651 -0.1725  0.0815
  108loPI   C1A 1719   2.701   8.846   9.184 -0.1975 -0.1465  0.1098
  108loPI   C2A 1720   2.598   8.691   8.733 -0.3570 -0.2095 -0.0540
  108loPI   C3A 1721   2.751   8.516   8.302 -0.2528  0.2134  0.2003
  108loPI   C4A 1722   2.703   8.427   7.833 -0.1540  0.0614  0.2312
  108loPI   C5A 1723   2.666   8.688   7.518 -0.0413 -0.2006  0.0628
  108loPI   C6A 1724   2.521   8.778   7.215  0.1148  0.0135  0.2280
  108loPI   C1B 1725   3.168   9.496   8.834  0.2071  0.4368 -0.0066
  108loPI   C2B 1726   3.014   9.421   8.406 -0.2973 -0.0278 -0.1676
  108loPI   C3B 1727   3.136   9.298   8.014 -0.0041 -0.0050 -0.0824
  108loPI   C4B 1728   3.216   9.340   7.522  0.2284  0.0830  0.1223
  109loPI    C1 1729   0.961  10.373   9.896 -0.0371 -0.1762  0.0241
  109loPI    C2 1730   0.858  10.743  10.006  0.0781 -0.1130 -0.0784
  109loPI    C3 1731   0.759  10.431  10.236 -0.1375 -0.0320 -0.0590
  109loPI   PO4 1732   0.975  10.438   9.650  0.2405 -0.0503 -0.0042
  109loPI   GL1 1733   0.798  10.457   9.348  0.3401  0.3054  0.0124
  109loPI   GL2 1734   0.989  10.258   9.139 -0.2431 -0.2082  0.0140
  109loPI   C1A 1735   0.755  10.737   9.034 -0.0683 -0.0116  0.0618
  109loPI   C2A 1736   0.829  10.632   8.624 -0.2111  0.3098  0.2288
  109loPI   C3A 1737   0.783  10.698   8.124 -0.2002 -0.1899  0.0389
  109loPI   C4A 1738   0.574  10.504   7.826  0.0275  0.1950 -0.1730
  109loPI   C5A 1739   0.198  10.426   7.596 -0.0694  0.1412 -0.0069
  109loPI   C6A 1740  -0.048  10.466   7.234  0.0173  0.0263  0.1742
  109loPI   C1B 1741   1.372  10.347   8.765 -0.2660 -0.4149  0.1308
  109loPI   C2B 1742   1.356  10.615   8.416  0.0128 -0.1119  0.0105
  109loPI   C3B 1743   1.318  10.658   7.985 -0.3623  0.0520 -0.0366
  109loPI   C4B 1744   1.508  10.769   7.650 -0.1074 -0.1419  0.2518
  110loPI    C1 1745   8.256  11.302  10.145  0.1287  0.1011  0.1458
  110loPI    C2 1746   8.388  10.942  10.257  0.0004 -0.0109 -0.0573
  110loPI    C3 1747   8.055  11.093  10.420  0.1503  0.0950  0.1570
  110loPI   PO4 1748   8.211  11.405   9.777 -0.0763 -0.0389 -0.0492
  110loPI   GL1 1749   8.125  11.265   9.472  0.0351  0.1057 -0.0853
  110loPI   GL2 1750   7.953  10.968   9.473 -0.0163 -0.2511 -0.2018
  110loPI   C1A 1751   8.288  11.298   9.000 -0.0880 -0.0627  0.0383
  110loPI   C2A 1752   8.417  11.259   8.587 -0.0251  0.0164  0.1548
  110loPI   C3A 1753   8.402  11.420   8.250 -0.1796  0.1535 -0.3614
  110loPI   C4A 1754   8.087  11.334   7.909 -0.0424 -0.2233  0.3028
  110loPI   C5A 1755   8.143  10.997   7.643 -0.0118 -0.3055 -0.1551
  110loPI   C6A 1756   8.252  10.657   7.510 -0.1741  0.3791  0.0100
  110loPI   C1B 1757   7.571  10.850   9.203 -0.0417 -0.0100 -0.2137
  110loPI   C2B 1758   7.234  10.960   8.952 -0.4876  0.1339  0.0473
  110loPI   C3B 1759   7.021  10.689   8.598 -0.0218  0.0552  0.2121
  110loPI   C4B 1760   7.096  10.499   8.148 -0.1296  0.2064  0.2480
  111loPI    C1 1761  15.847   0.349   9.597 -0.2074 -0.2807  0.0929
  111loPI    C2 1762  15.984   0.206   9.945 -0.0283 -0.0191  0.1325
  111loPI    C3 1763  15.675   0.460   9.941  0.2214  0.2909  0.1368
  111loPI   PO4 1764  15.795   0.135   9.460  0.3591  0.0926 -0.1741
  111loPI   GL1 1765  15.865  -0.127   9.107 -0.1349 -0.2173  0.1845
  111loPI   GL2 1766  16.020  -0.357   9.213 -0.0267 -0.1659  0.1798
  111loPI   C1A 1767  15.880   0.141   8.801 -0.1180 -0.1855  0.0357
  111loPI   C2A 1768  16.157   0.364   8.561  0.2892  0.0692  0.1690
  111loPI   C3A 1769  16.493   0.340   8.261  0.2393  0.0671  0.1900
  111loPI   C4A 1770  16.442   0.458   7.845 -0.4562  0.1434 -0.3173
  111loPI   C5A 1771  16.422   0.502   7.482  0.1026 -0.2982  0.2781
  111loPI   C6A 1772  16.547   0.302   7.074  0.0176  0.2915  0.2092
  111loPI   C1B 1773  16.110  -0.530   8.799  0.0542 -0.3460 -0.1727
  111loPI   C2B 1774  15.961  -0.248   8.483 -0.0099 -0.0026  0.1897
  111loPI   C3B 1775  16.081   0.068   8.210  0.3359 -0.1223 -0.1005
  111loPI   C4B 1776  15.997   0.438   8.001  0.0812  0.1351 -0.1268
  112loPI    C1 1777   5.783  16.498   9.991  0.2845  0.1146 -0.0194
  112loPI    C2 1778   5.759  16.883  10.098  0.2540  0.0961  0.0401
  112loPI    C3 1779   5.999  16.634  10.299 -0.0276 -0.0041  0.2571
  112loPI   PO4 1780   5.777  16.509   9.700 -0.1729 -0.0133 -0.2893
  112loPI   GL1 1781   5.661  16.460   9.271 -0.1009  0.1225 -0.2496
  112loPI   GL2 1782   5.668  16.809   9.328  0.1139 -0.0852 -0.0660
  112loPI   C1A 1783   5.643  16.183   8.875  0.1648 -0.0644  0.3033
  112loPI   C2A 1784   5.706  15.911   8.528 -0.1939  0.1884  0.3484
  112loPI   C3A 1785   5.802  15.678   8.115 -0.1086  0.1188 -0.2415
  112loPI   C4A 1786   5.650  15.444   7.732 -0.2070  0.4472  0.2305
  112loPI   C5A 1787   5.388  15.301   7.275 -0.2885  0.0363  0.0468
  112loPI   C6A 1788   5.088  14.934   7.195 -0.1471  0.0045 -0.1351
  112loPI   C1B 1789   5.794  17.084   9.058  0.0757  0.0581  0.0376
  112loPI   C2B 1790   5.745  17.137   8.641 -0.0300 -0.1916 -0.0373
  112loPI   C3B 1791   5.933  17.227   8.204  0.0286  0.1714  0.1304
  112loPI   C4B 1792   5.799  17.153   7.808  0.0193 -0.0298 -0.0417
  113loPI    C1 1793   5.085  18.426   9.706 -0.0879 -0.1309  0.0716
  113loPI    C2 1794   5.477  18.388   9.775 -0.0593 -0.4435 -0.2340
  113loPI    C3 1795   5.224  18.439  10.081  0.2583  0.2103 -0.0619
  113loPI   PO4 1796   5.023  18.191   9.477  0.1293 -0.1545 -0.2238
  113loPI   GL1 1797   5.142  18.008   9.036  0.2956  0.2926  0.2494
  113loPI   GL2 1798   5.087  17.670   8.974  0.0881  0.1023 -0.0130
  113loPI   C1A 1799   5.160  18.426   8.743  0.1860 -0.1662 -0.1030
  113loPI   C2A 1800   5.415  18.596   8.300 -0.1383  0.1620 -0.0804
  113loPI   C3A 1801   5.712  18.663   8.031 -0.1358  0.0557  0.1352
  113loPI   C4A 1802   6.123  18.788   7.889  0.0211 -0.2211 -0.2201
  113loPI   C5A 1803   6.260  18.785   7.500  0.1959 -0.0262  0.2428
  113loPI   C6A 1804   6.134  18.956   7.157  0.1205 -0.1076 -0.6054
  113loPI   C1B 1805   5.000  17.790   8.616 -0.0077  0.1184 -0.0227
  113loPI   C2B 1806   5.023  17.793   8.185 -0.4560  0.1899 -0.1176
  113loPI   C3B 1807   4.868  17.687   7.764 -0.0050 -0.0141 -0.2643
  113loPI   C4B 1808   5.134  17.820   7.450 -0.2320  0.1231 -0.0727
  114loPI    C1 1809  12.990   9.398  10.031  0.0717  0.0247 -0.2214
  114loPI    C2 1810  13.260   9.679   9.937  0.2355 -0.0313  0.0716
  114loPI    C3 1811  12.984   9.752  10.217  0.0316 -0.0245 -0.1287
  114loPI   PO4 1812  12.997   9.237   9.741 -0.2099  0.4861  0.3122
  114loPI   GL1 1813  12.875   9.120   9.329  0.1162  0.1620 -0.0943
  114loPI   GL2 1814  13.211   9.144   9.242 -0.1133 -0.0516  0.2238
  114loPI   C1A 1815  12.883   9.258   8.913 -0.1066  0.1148  0.1074
  114loPI   C2A 1816  12.937   9.204   8.512  0.0296  0.2574  0.4460
  114loPI   C3A 1817  12.903   9.468   8.088  0.0274 -0.0309  0.4213
  114loPI   C4A 1818  12.628   9.835   7.895 -0.1429  0.1199 -0.1300
  114loPI   C5A 1819  12.342   9.790   7.766  0.3786 -0.1651 -0.0641
  114loPI   C6A 1820  11.906   9.838   7.578 -0.0389 -0.1889  0.0324
  114loPI   C1B 1821  13.354   9.278   8.813  0.2950  0.0322 -0.2300
  114loPI   C2B 1822  13.416   9.381   8.340 -0.0027 -0.3865  0.0844
  114loPI   C3B 1823  13.336   9.526   7.856  0.0688  0.3157  0.1901
  114loPI   C4B 1824  13.431   9.584   7.435 -0.1819 -0.0602  0.1710
  115loPI    C1 1825  12.051  12.043   9.499 -0.0507  0.1556  0.1198
  115loPI    C2 1826  12.356  11.785   9.485 -0.0458  0.1553  0.2317
  115loPI    C3 1827  12.419  12.163   9.599 -0.0973  0.1395  0.3139
  115loPI   PO4 1828  11.913  12.000   9.276 -0.0820 -0.0257 -0.3278
  115loPI   GL1 1829  11.584  11.664   9.242  0.0366 -0.3473  0.2437
  115loPI   GL2 1830  11.482  11.937   8.989  0.0990 -0.1288  0.1594
  115loPI   C1A 1831  11.463  11.384   8.908  0.0381 -0.2361 -0.0105
  115loPI   C2A 1832  11.453  11.174   8.436 -0.0943  0.0871  0.2355
  115loPI   C3A 1833  11.307  11.190   7.988  0.0048  0.4803  0.3549
  115loPI   C4A 1834  10.961  11.069   7.732  0.0846 -0.0229  0.2002
  115loPI   C5A 1835  10.785  10.656   7.516 -0.1408 -0.0998  0.0043
  115loPI   C6A 1836  11.036  10.279   7.462  0.0538 -0.2040  0.0157
  115loPI   C1B 1837  11.726  11.914   8.566  0.1463  0.0616 -0.2374
  115loPI   C2B 1838  11.801  12.126   8.156 -0.2581  0.0006  0.1951
  115loPI   C3B 1839  12.003  11.990   7.844  0.0705 -0.3508  0.0040
  115loPI   C4B 1840  12.378  12.030   7.565  0.2794 -0.0145  0.0843
  116loPI    C1 1841  13.698   9.870   9.679  0.4441  0.0892 -0.1800
  116loPI    C2 1842  13.734   9.933  10.073 -0.2908  0.0803 -0.0975
  116loPI    C3 1843  13.763   9.562   9.925 -0.1502  0.0665 -0.0366
  116loPI   PO4 1844  13.696  10.246   9.499  0.0200 -0.2783  0.0017
  116loPI   GL1 1845  13.437  10.081   9.157 -0.2120  0.3055  0.3488
  116loPI   GL2 1846  13.636   9.809   9.202 -0.3049  0.2193 -0.1514
  116loPI   C1A 1847  13.236  10.188   8.806 -0.0005 -0.0671 -0.0471
  116loPI   C2A 1848  12.962  10.223   8.470  0.2397 -0.1452 -0.0622
  116loPI   C3A 1849  12.714  10.265   8.144  0.2589 -0.2174 -0.3421
  116loPI   C4A 1850  12.548  10.346   7.679  0.0656  0.1145 -0.0752
  116loPI   C5A 1851  12.147  10.287   7.392  0.0287 -0.0049  0.0332
  116loPI   C6A 1852  11.718  10.350   7.500  0.1269  0.2379  0.2795
  116loPI   C1B 1853  13.555   9.770   8.764  0.1354 -0.0407 -0.0218
  116loPI   C2B 1854  13.535   9.989   8.348  0.3656 -0.3142  0.2354
  116loPI   C3B 1855  13.598   9.955   7.937 -0.0672  0.0801  0.0792
  116loPI   C4B 1856  13.653  10.053   7.550 -0.0146  0.2248 -0.1047
  117loPI    C1 1857  17.359   9.578   9.740  0.1105 -0.1857 -0.2475
  117loPI    C2 1858  17.579   9.329   9.963 -0.0701  0.0514  0.2095
  117loPI    C3 1859  17.405   9.648  10.131 -0.2761  0.1975 -0.2622
  117loPI   PO4 1860  17.490   9.503   9.505 -0.1054  0.2284  0.0493
  117loPI   GL1 1861  17.468   9.230   9.174 -0.0884  0.1803 -0.0783
  117loPI   GL2 1862  17.163   9.247   9.075 -0.2495 -0.0397 -0.1134
  117loPI   C1A 1863  17.757   9.152   8.892 -0.0359 -0.2665 -0.1552
  117loPI   C2A 1864  17.866   9.246   8.524  0.1150 -0.1229 -0.1361
  117loPI   C3A 1865  18.081   9.403   8.171  0.1832 -0.2527 -0.1095
  117loPI   C4A 1866  18.091   9.729   7.844 -0.1997 -0.2516 -0.1424
  117loPI   C5A 1867  18.173  10.069   7.756 -0.0345  0.0951  0.0286
  117loPI   C6A 1868  17.947  10.459   7.911  0.0086 -0.0685  0.0232
  117loPI   C1B 1869  17.288   9.079   8.708 -0.0035  0.0185 -0.0233
  117loPI   C2B 1870  17.475   9.171   8.355  0.1569 -0.0893 -0.0651
  117loPI   C3B 1871  17.580   9.025   7.864 -0.1535  0.3703 -0.3308
  117loPI   C4B 1872  17.574   8.878   7.375 -0.2425 -0.0498  0.0381
  118loPI    C1 1873   0.286   6.392  10.261 -0.0360  0.2088 -0.2300
  118loPI    C2 1874   0.526   6.527  10.551 -0.2870  0.0431  0.0593
  118loPI    C3 1875   0.646   6.226  10.316 -0.2156 -0.0486  0.2115
  118loPI   PO4 1876   0.263   6.623  10.090 -0.1985  0.3260  0.3086
  118loPI   GL1 1877   0.101   6.556   9.614  0.0075 -0.1294  0.1447
  118loPI   GL2 1878  -0.105   6.600   9.437  0.0961 -0.0226  0.3236
  118loPI   C1A 1879   0.514   6.568   9.352  0.1672  0.4738  0.2887
  118loPI   C2A 1880   0.613   6.559   8.861  0.0427 -0.2898 -0.0277
  118loPI   C3A 1881   0.934   6.477   8.588 -0.1249 -0.3828 -0.0305
  118loPI   C4A 1882   1.409   6.327   8.555  0.3453  0.2178  0.2992
  118loPI   C5A 1883   1.532   6.181   8.902  0.0933  0.3574  0.0862
  118loPI   C6A 1884   1.411   5.732   9.178  0.1062 -0.0622  0.3019
  118loPI   C1B 1885   0.128   6.610   8.970  0.1528 -0.1112 -0.1693
  118loPI   C2B 1886   0.256   6.605   8.603 -0.3565 -0.4329  0.1751
  118loPI   C3B 1887   0.521   6.462   8.311 -0.2836 -0.3142 -0.1049
  118loPI   C4B 1888   0.868   6.553   8.065  0.2065 -0.2361 -0.0038
  119loPI    C1 1889  11.038  18.051   9.987 -0.2417  0.2513 -0.1342
  119loPI    C2 1890  10.839  18.352  10.160 -0.0352  0.2733  0.0705
  119loPI    C3 1891  11.237  18.328  10.196 -0.0201  0.1232 -0.1713
  119loPI   PO4 1892  10.834  18.044   9.726  0.0354  0.0772 -0.2601
  119loPI   GL1 1893  10.761  18.134   9.370 -0.0337 -0.2637  0.1457
  119loPI   GL2 1894  10.878  18.380   9.284  0.3533 -0.0211  0.3184
  119loPI   C1A 1895  10.873  17.945   8.929  0.1283 -0.1481 -0.2297
  119loPI   C2A 1896  11.127  17.970   8.594 -0.3190  0.0655 -0.2799
  119loPI   C3A 1897  11.018  18.041   8.218 -0.2351 -0.0324 -0.1582
  119loPI   C4A 1898  10.889  17.960   7.781  0.1990 -0.3790  0.0989
  119loPI   C5A 1899  10.787  17.709   7.415  0.0698  0.1017 -0.2149
  119loPI   C6A 1900  10.716  17.402   7.174 -0.1003 -0.1681  0.1798
  119loPI   C1B 1901  10.886  18.580   8.854 -0.1286  0.1615  0.1221
  119loPI   C2B 1902  11.017  18.600   8.326 -0.1302 -0.0516 -0.4549
  119loPI   C3B 1903  10.872  18.447   7.882  0.2662 -0.2156  0.1407
  119loPI   C4B 1904  10.854  18.582   7.450 -0.0135  0.0833  0.2359
  120loPI    C1 1905  18.216   5.825   9.995 -0.0145 -0.1295 -0.1385
  120loPI    C2 1906  17.910   6.075  10.060 -0.0448 -0.1816 -0.0794
  120loPI    C3 1907  18.065   5.865  10.363  0.1712 -0.0172 -0.0737
  120loPI   PO4 1908  18.220   5.859   9.680 -0.1704  0.3023  0.2522
  120loPI   GL1 1909  18.488   5.612   9.399 -0.0513 -0.0777  0.0793
  120loPI   GL2 1910  18.198   5.795   9.201 -0.0660 -0.0591 -0.0602
  120loPI   C1A 1911  18.790   5.396   9.106  0.0835  0.0000 -0.2715
  120loPI   C2A 1912  18.841   5.385   8.694 -0.0512  0.6510  0.2178
  120loPI   C3A 1913  18.901   5.257   8.312 -0.4051  0.0768 -0.1365
  120loPI   C4A 1914  19.076   5.019   7.910 -0.0318  0.1791  0.0946
  120loPI   C5A 1915  19.088   4.672   7.610 -0.0178  0.0022 -0.1369
  120loPI   C6A 1916  19.134   4.317   7.262  0.1863 -0.0377  0.3833
  120loPI   C1B 1917  18.133   5.933   8.767 -0.0082  0.1467  0.1620
  120loPI   C2B 1918  18.118   5.689   8.329 -0.0820  0.1863 -0.1097
  120loPI   C3B 1919  18.151   5.518   7.974  0.0381  0.3760 -0.0495
  120loPI   C4B 1920  17.923   5.734   7.706  0.1242 -0.0561  0.0550
  121loPI    C1 1921   0.179   7.519  10.443  0.0256 -0.1265 -0.1700
  121loPI    C2 1922   0.064   7.275  10.738 -0.0796 -0.1518 -0.2315
  121loPI    C3 1923  -0.065   7.654  10.729  0.2197 -0.0411 -0.0421
  121loPI   PO4 1924   0.074   7.403  10.219  0.1671  0.0910 -0.3133
  121loPI   GL1 1925   0.147   7.103   9.790 -0.0685  0.0926  0.2635
  121loPI   GL2 1926   0.064   7.413   9.551 -0.1826 -0.4364 -0.1719
  121loPI   C1A 1927   0.214   6.970   9.344  0.0225 -0.1562 -0.0588
  121loPI   C2A 1928   0.497   7.085   9.014  0.0436  0.1170 -0.1238
  121loPI   C3A 1929   0.511   7.061   8.556  0.0410 -0.1625  0.0703
  121loPI   C4A 1930   0.423   6.951   8.219 -0.0843  0.0334 -0.3504
  121loPI   C5A 1931   0.528   6.786   7.858  0.1893 -0.0142 -0.0784
  121loPI   C6A 1932   0.717   6.973   7.579  0.0973  0.3620 -0.0069
  121loPI   C1B 1933   0.230   7.495   9.151  0.1391 -0.3306 -0.0776
  121loPI   C2B 1934   0.158   7.443   8.691 -0.0751  0.1617  0.1951
  121loPI   C3B 1935   0.344   7.529   8.194  0.3125 -0.1838 -0.1553
  121loPI   C4B 1936   0.139   7.655   7.829  0.0498 -0.1815 -0.0671
  122loPI    C1 1937   2.732  12.323   9.893  0.0339 -0.2042  0.2723
  122loPI    C2 1938   3.017  12.447  10.145  0.0717 -0.1967  0.2261
  122loPI    C3 1939   2.710  12.230  10.281  0.0571 -0.1362  0.2901
  122loPI   PO4 1940   2.832  12.265   9.671 -0.1449  0.0486 -0.0235
  122loPI   GL1 1941   2.720  12.351   9.248 -0.3897 -0.1455  0.0907
  122loPI   GL2 1942   2.981  12.195   9.135  0.1018 -0.2026 -0.0893
  122loPI   C1A 1943   2.616  12.385   8.883 -0.0657 -0.0076  0.1251
  122loPI   C2A 1944   2.604  12.463   8.425  0.1545 -0.0774  0.0195
  122loPI   C3A 1945   2.610  12.396   7.999 -0.3356 -0.2352  0.0331
  122loPI   C4A 1946   2.883  12.368   7.595 -0.1681 -0.1667  0.2742
  122loPI   C5A 1947   3.255  12.175   7.527 -0.1966  0.1551 -0.1236
  122loPI   C6A 1948   3.717  12.239   7.299 -0.2314 -0.1006  0.0105
  122loPI   C1B 1949   3.010  12.158   8.650 -0.0761 -0.2115 -0.0676
  122loPI   C2B 1950   2.951  12.153   8.275 -0.3480  0.1902 -0.2222
  122loPI   C3B 1951   2.706  11.899   8.053  0.2839  0.0563  0.0510
  122loPI   C4B 1952   2.827  11.840   7.613  0.3144  0.0175 -0.1585
  123loPI    C1 1953  15.418   3.106   9.788  0.1632  0.0535 -0.0412
  123loPI    C2 1954  15.079   2.977   9.620  0.1789 -0.0719  0.0221
  123loPI    C3 1955  15.086   3.329   9.811 -0.0207 -0.2504  0.3662
  123loPI   PO4 1956  15.647   3.096   9.589 -0.1276 -0.1471  0.0989
  123loPI   GL1 1957  15.697   2.918   9.267 -0.5497  0.1881  0.1952
  123loPI   GL2 1958  15.722   2.565   9.193 -0.0326 -0.0379 -0.0452
  123loPI   C1A 1959  15.701   2.921   8.799  0.1139 -0.0776  0.0064
  123loPI   C2A 1960  15.811   3.108   8.447  0.0416  0.2713  0.0919
  123loPI   C3A 1961  16.096   3.230   8.041  0.0039  0.0423  0.3489
  123loPI   C4A 1962  16.359   3.300   7.626 -0.1403 -0.2248 -0.1866
  123loPI   C5A 1963  16.699   3.225   7.418  0.0490  0.1543 -0.0807
  123loPI   C6A 1964  17.042   3.154   7.158  0.0099  0.0658  0.1766
  123loPI   C1B 1965  15.812   2.310   8.948 -0.3903  0.0453  0.2109
  123loPI   C2B 1966  15.713   2.049   8.718 -0.0481  0.0436 -0.2884
  123loPI   C3B 1967  15.484   1.856   8.487  0.0578 -0.0578 -0.2757
  123loPI   C4B 1968  15.479   1.788   8.073  0.1087 -0.0362 -0.1179
  124loPI    C1 1969  12.195  13.476   9.412 -0.0021 -0.1392 -0.1251
  124loPI    C2 1970  12.052  13.336   9.759  0.0326 -0.1337 -0.1085
  124loPI    C3 1971  12.103  13.729   9.707  0.4565 -0.1634  0.0465
  124loPI   PO4 1972  12.099  13.354   9.192 -0.0660  0.0196 -0.2824
  124loPI   GL1 1973  12.164  13.555   8.738 -0.3156  0.2082  0.1204
  124loPI   GL2 1974  12.458  13.416   8.732  0.1445 -0.2057 -0.0705
  124loPI   C1A 1975  12.230  13.865   8.350 -0.1878  0.2651 -0.0858
  124loPI   C2A 1976  12.118  13.848   7.950  0.2056  0.1417 -0.2624
  124loPI   C3A 1977  11.892  13.836   7.576  0.2645 -0.1043 -0.2442
  124loPI   C4A 1978  11.545  14.038   7.238  0.1178 -0.1749 -0.0793
  124loPI   C5A 1979  11.319  13.852   6.837  0.4221  0.4658 -0.0573
  124loPI   C6A 1980  11.324  13.429   6.571  0.2529  0.0947  0.0753
  124loPI   C1B 1981  12.339  13.299   8.316  0.2996 -0.1085 -0.0172
  124loPI   C2B 1982  12.145  13.149   7.899  0.3128 -0.2062  0.2317
  124loPI   C3B 1983  12.276  12.915   7.478  0.1964 -0.2190 -0.0557
  124loPI   C4B 1984  12.473  12.823   7.105  0.0329 -0.2433  0.3125
  125loPI    C1 1985  17.153  12.713   9.964 -0.0843 -0.0298 -0.2559
  125loPI    C2 1986  16.947  12.541  10.260  0.0023  0.1248 -0.1041
  125loPI    C3 1987  16.953  12.940  10.226  0.2292  0.1197 -0.1401
  125loPI   PO4 1988  17.212  12.556   9.718  0.2663  0.3476  0.1631
  125loPI   GL1 1989  17.235  12.545   9.218 -0.3436 -0.0105  0.1465
  125loPI   GL2 1990  17.381  12.300   9.140  0.0020 -0.2664  0.2453
  125loPI   C1A 1991  17.055  12.789   8.962 -0.1156 -0.0665 -0.0244
  125loPI   C2A 1992  17.000  12.801   8.556 -0.1016 -0.1265 -0.2908
  125loPI   C3A 1993  16.904  12.602   8.133 -0.0625  0.0520  0.3785
  125loPI   C4A 1994  16.913  12.606   7.722 -0.1419 -0.3894 -0.1350
  125loPI   C5A 1995  16.701  12.463   7.424 -0.2632 -0.3338 -0.0884
  125loPI   C6A 1996  16.415  12.104   7.457  0.2333 -0.0214  0.1089
  125loPI   C1B 1997  17.454  12.073   8.679  0.0680  0.0309  0.1721
  125loPI   C2B 1998  17.681  12.154   8.322 -0.0782 -0.3537  0.2008
  125loPI   C3B 1999  17.788  12.252   7.867  0.0224 -0.0492  0.2291
  125loPI   C4B 2000  17.956  12.206   7.485  0.1233 -0.0401  0.0961
  126loPI    C1 2001  12.099   8.544   9.865  0.0392  0.0641  0.2579
  126loPI    C2 2002  11.961   8.914   9.798  0.0152  0.0170  0.0389
  126loPI    C3 2003  11.710   8.624   9.910  0.0345  0.0664  0.2135
  126loPI   PO4 2004  12.326   8.562   9.874 -0.2948  0.0093 -0.0844
  126loPI   GL1 2005  12.574   8.732   9.554  0.4803  0.1645  0.1879
  126loPI   GL2 2006  12.234   8.904   9.403  0.1899 -0.0569  0.0290
  126loPI   C1A 2007  12.605   8.749   9.106  0.3661  0.1251 -0.3067
  126loPI   C2A 2008  12.594   8.761   8.707 -0.2125 -0.2846 -0.3496
  126loPI   C3A 2009  12.734   8.712   8.325 -0.0621  0.1262  0.3362
  126loPI   C4A 2010  12.536   8.873   7.977  0.2597 -0.0464  0.0461
  126loPI   C5A 2011  12.428   8.822   7.530  0.0844  0.1854 -0.2590
  126loPI   C6A 2012  12.029   8.895   7.292 -0.0093 -0.4144 -0.1719
  126loPI   C1B 2013  12.138   8.707   9.000  0.1559  0.0275 -0.2165
  126loPI   C2B 2014  11.914   8.419   8.679 -0.3688 -0.1230  0.5982
  126loPI   C3B 2015  11.731   8.209   8.286 -0.2190 -0.0598 -0.2172
  126loPI   C4B 2016  11.567   8.038   7.969 -0.2739  0.0735  0.0020
  127loPI    C1 2017  16.746  19.429   9.710 -0.0530 -0.1774 -0.0540
  127loPI    C2 2018  17.115  19.285   9.660 -0.0304 -0.0901 -0.1413
  127loPI    C3 2019  17.038  19.536   9.961 -0.0236 -0.1246 -0.1105
  127loPI   PO4 2020  16.743  19.391   9.420  0.1275  0.0670 -0.0318
  127loPI   GL1 2021  17.057  19.372   9.118 -0.2504 -0.1827 -0.2470
  127loPI   GL2 2022  17.229  19.059   8.985 -0.0072  0.0920  0.1336
  127loPI   C1A 2023  16.997  19.431   8.689 -0.0570  0.2645  0.0042
  127loPI   C2A 2024  17.158  19.238   8.283 -0.0366 -0.0044  0.1077
  127loPI   C3A 2025  17.215  19.138   7.776 -0.1268  0.0418  0.2358
  127loPI   C4A 2026  17.371  19.257   7.459  0.0187  0.1212 -0.2412
  127loPI   C5A 2027  17.567  19.441   7.103  0.1794 -0.0903  0.1570
  127loPI   C6A 2028  17.406  19.848   6.898 -0.2125  0.0862  0.0766
  127loPI   C1B 2029  17.365  19.009   8.671 -0.0890  0.0475  0.1403
  127loPI   C2B 2030  17.622  19.238   8.308 -0.0105  0.0308  0.0573
  127loPI   C3B 2031  17.765  19.513   7.973  0.1885 -0.2206  0.1483
  127loPI   C4B 2032  17.936  19.649   7.575 -0.1155 -0.0591  0.2725
  128loPI    C1 2033  14.634   5.377   9.908  0.0421 -0.1932 -0.0853
  128loPI    C2 2034  14.844   5.251  10.225  0.1477  0.2548  0.0299
  128loPI    C3 2035  14.477   5.401  10.275  0.3020  0.6575 -0.0083
  128loPI   PO4 2036  14.700   5.157   9.693 -0.2172  0.1391  0.2396
  128loPI   GL1 2037  14.725   5.100   9.338 -0.0582  0.1188  0.0146
  128loPI   GL2 2038  14.819   4.811   9.219  0.1749  0.1022 -0.3050
  128loPI   C1A 2039  14.676   5.223   8.918  0.1647 -0.3165 -0.3099
  128loPI   C2A 2040  14.824   5.434   8.586 -0.0514 -0.0085 -0.2332
  128loPI   C3A 2041  14.852   5.236   8.173  0.0556 -0.0657  0.1964
  128loPI   C4A 2042  14.671   5.232   7.760 -0.1385 -0.1842  0.4581
  128loPI   C5A 2043  14.389   4.935   7.562 -0.0587 -0.1212  0.3317
  128loPI   C6A 2044  14.025   4.883   7.338 -0.1760  0.0561 -0.1220
  128loPI   C1B 2045  14.943   4.443   8.982  0.2523 -0.3456  0.1053
  128loPI   C2B 2046  15.089   4.178   8.654  0.0351  0.0153  0.1027
  128loPI   C3B 2047  15.305   4.132   8.220  0.0660  0.2459  0.3977
  128loPI   C4B 2048  15.358   3.791   7.923 -0.0942  0.4311  0.1941
  129loPI    C1 2049   8.214  13.603   9.417  0.2572 -0.1037  0.1324
  129loPI    C2 2050   8.340  13.290   9.632  0.1458 -0.2012  0.0571
  129loPI    C3 2051   8.099  13.563   9.798  0.1183 -0.2376  0.0772
  129loPI   PO4 2052   8.491  13.697   9.356 -0.0990  0.2624 -0.1654
  129loPI   GL1 2053   8.740  13.698   9.006  0.2402 -0.1374  0.5112
  129loPI   GL2 2054   8.915  13.457   9.086 -0.1009  0.0025 -0.2793
  129loPI   C1A 2055   8.772  13.746   8.673  0.0011  0.0622 -0.1856
  129loPI   C2A 2056   8.886  13.695   8.186 -0.0877  0.1464 -0.0224
  129loPI   C3A 2057   8.769  13.827   7.778 -0.1867  0.3167  0.0230
  129loPI   C4A 2058   8.792  14.019   7.355  0.0474  0.2650  0.2405
  129loPI   C5A 2059   9.063  14.260   7.139 -0.1649 -0.0382  0.2273
  129loPI   C6A 2060   9.308  14.618   7.333  0.0362 -0.0117 -0.1484
  129loPI   C1B 2061   8.726  13.210   8.721  0.4923 -0.1362 -0.1060
  129loPI   C2B 2062   8.599  13.309   8.339 -0.0822  0.1893 -0.1602
  129loPI   C3B 2063   8.691  13.325   7.847  0.0609  0.0795 -0.1766
  129loPI   C4B 2064   8.986  13.128   7.600 -0.2116 -0.0606  0.0086
  130loPI    C1 2065   5.581   6.743   9.697 -0.2043 -0.0124  0.0600
  130loPI    C2 2066   5.615   7.048   9.954  0.1355 -0.0779  0.0988
  130loPI    C3 2067   5.761   6.689  10.051  0.1492 -0.1366 -0.1337
  130loPI   PO4 2068   5.749   6.928   9.459 -0.0133 -0.0536 -0.3458
  130loPI   GL1 2069   5.922   6.582   9.159 -0.0510  0.0919 -0.0863
  130loPI   GL2 2070   5.958   6.362   8.879  0.0659 -0.2451  0.2540
  130loPI   C1A 2071   6.035   6.848   8.827 -0.1478  0.0725  0.0807
  130loPI   C2A 2072   6.025   6.923   8.367 -0.3413 -0.3301  0.0368
  130loPI   C3A 2073   6.130   7.115   7.933  0.0881 -0.2007  0.1511
  130loPI   C4A 2074   6.410   7.317   7.678  0.1841 -0.2026 -0.0076
  130loPI   C5A 2075   6.629   7.095   7.392 -0.1107  0.0330  0.2967
  130loPI   C6A 2076   6.827   6.922   7.060 -0.0639  0.2134  0.1718
  130loPI   C1B 2077   5.941   6.473   8.475  0.2298 -0.1478 -0.1502
  130loPI   C2B 2078   5.894   6.579   8.002  0.3228 -0.2340 -0.2380
  130loPI   C3B 2079   5.741   6.920   7.697 -0.0417 -0.0416 -0.2889
  130loPI   C4B 2080   5.969   7.339   7.446 -0.0523  0.0536 -0.0294
  131loPI    C1 2081   4.823   5.830   9.444 -0.0365  0.0180 -0.0404
  131loPI    C2 2082   4.837   5.432   9.408  0.2523  0.0323 -0.1092
  131loPI    C3 2083   4.907   5.603   9.763 -0.2439  0.0074  0.0083
  131loPI   PO4 2084   4.572   5.859   9.277 -0.0462 -0.0190  0.2887
  131loPI   GL1 2085   4.393   5.693   8.922  0.1099 -0.2370  0.0395
  131loPI   GL2 2086   4.102   5.797   9.073 -0.1748  0.3827  0.0915
  131loPI   C1A 2087   4.422   5.729   8.469  0.0209 -0.3028 -0.1025
  131loPI   C2A 2088   4.263   5.655   8.035  0.1239  0.5438  0.2831
  131loPI   C3A 2089   4.656   5.589   7.716 -0.0824  0.0671 -0.0703
  131loPI   C4A 2090   5.015   5.822   7.673 -0.2155 -0.2197 -0.4291
  131loPI   C5A 2091   5.235   6.055   7.898  0.0590  0.2471 -0.0463
  131loPI   C6A 2092   5.152   6.184   8.291  0.0420  0.1105 -0.0316
  131loPI   C1B 2093   3.888   5.780   8.632  0.0271 -0.1612 -0.2034
  131loPI   C2B 2094   3.698   5.605   8.303  0.0936  0.2112  0.1423
  131loPI   C3B 2095   3.739   5.442   7.910  0.0484  0.3574 -0.2182
  131loPI   C4B 2096   3.581   5.087   7.569  0.2102  0.0690 -0.2604
  132loPI    C1 2097   0.043  14.452   9.535  0.3524 -0.0114  0.0762
  132loPI    C2 2098  -0.288  14.618   9.688  0.2682 -0.0578 -0.0533
  132loPI    C3 2099   0.005  14.493   9.931  0.2512  0.1090  0.0547
  132loPI   PO4 2100   0.079  14.589   9.317  0.0059 -0.0093  0.0627
  132loPI   GL1 2101  -0.020  14.802   8.899  0.0043  0.4042 -0.3509
  132loPI   GL2 2102  -0.342  14.730   8.945 -0.2354  0.1064  0.1282
  132loPI   C1A 2103   0.069  15.031   8.561  0.2505  0.3011 -0.1204
  132loPI   C2A 2104   0.102  15.087   8.210 -0.0111 -0.1393  0.1480
  132loPI   C3A 2105   0.221  15.230   7.863 -0.4303 -0.0413 -0.0164
  132loPI   C4A 2106   0.229  15.203   7.449 -0.1983  0.1640 -0.1677
  132loPI   C5A 2107   0.387  15.148   7.099 -0.1147 -0.2356 -0.2953
  132loPI   C6A 2108   0.445  14.765   6.910  0.1750  0.1616 -0.0827
  132loPI   C1B 2109  -0.276  14.595   8.500 -0.2089  0.4176 -0.1545
  132loPI   C2B 2110  -0.099  14.702   8.163 -0.0288 -0.0535  0.3115
  132loPI   C3B 2111   0.034  14.809   7.769  0.0014  0.3980  0.2343
  132loPI   C4B 2112   0.164  14.757   7.340  0.1441 -0.1739  0.3425
  133loPI    C1 2113  15.982  13.239   9.602 -0.1667 -0.0203  0.1644
  133loPI    C2 2114  15.845  13.153   9.968  0.1520 -0.0633  0.2774
  133loPI    C3 2115  16.136  13.423   9.923  0.0650 -0.0053  0.0466
  133loPI   PO4 2116  15.817  13.279   9.468 -0.0945 -0.0662  0.2498
  133loPI   GL1 2117  15.646  13.342   9.016  0.0841  0.3599 -0.2294
  133loPI   GL2 2118  15.519  13.067   8.928 -0.1435 -0.0940 -0.1321
  133loPI   C1A 2119  15.976  13.409   8.708 -0.3486  0.0690 -0.0302
  133loPI   C2A 2120  16.399  13.520   8.464  0.1510 -0.0933  0.4555
  133loPI   C3A 2121  16.400  13.419   8.004 -0.2813 -0.1080 -0.2170
  133loPI   C4A 2122  16.567  13.519   7.687 -0.2455  0.0598 -0.3013
  133loPI   C5A 2123  16.604  13.621   7.289 -0.0926 -0.0284  0.1180
  133loPI   C6A 2124  16.383  13.831   7.078 -0.1212  0.0684  0.1300
  133loPI   C1B 2125  15.673  12.805   8.551 -0.2119  0.1878 -0.0298
  133loPI   C2B 2126  15.767  12.685   8.228 -0.0317  0.1413  0.2385
  133loPI   C3B 2127  15.984  12.902   7.930 -0.0780  0.1571 -0.1053
  133loPI   C4B 2128  16.117  13.188   7.645  0.2953 -0.1020  0.2381
  134loPI    C1 2129  13.395  11.788   9.429 -0.0591  0.0354 -0.1895
  134loPI    C2 2130  13.261  11.412   9.410 -0.0364  0.0323 -0.2966
  134loPI    C3 2131  13.600  11.494   9.606 -0.1622  0.0315 -0.0754
  134loPI   PO4 2132  13.342  11.883   9.043  0.0535 -0.1442  0.0094
  134loPI   GL1 2133  13.460  11.753   8.688  0.2630 -0.0003  0.1198
  134loPI   GL2 2134  13.437  11.483   8.425  0.1191  0.1771  0.1510
  134loPI   C1A 2135  13.543  11.997   8.318  0.2031  0.1282  0.0701
  134loPI   C2A 2136  13.511  11.955   7.883 -0.1958  0.4644  0.0239
  134loPI   C3A 2137  13.421  12.017   7.483 -0.1314  0.1509  0.0205
  134loPI   C4A 2138  13.404  12.091   7.121  0.2564  0.0578 -0.0116
  134loPI   C5A 2139  13.328  12.593   7.079 -0.0500 -0.0575  0.1770
  134loPI   C6A 2140  12.957  12.807   7.066 -0.0408 -0.0684 -0.1851
  134loPI   C1B 2141  13.465  11.479   8.036 -0.4396  0.0892 -0.1043
  134loPI   C2B 2142  13.491  11.477   7.546  0.3985 -0.0505  0.0956
  134loPI   C3B 2143  13.764  11.718   7.179  0.1692 -0.0612 -0.1221
  134loPI   C4B 2144  14.015  12.160   7.182 -0.1897  0.0924 -0.2606
  135loPI    C1 2145  17.886   3.114  10.348 -0.0999 -0.2678 -0.0151
  135loPI    C2 2146  18.256   3.038  10.217  0.0447  0.2643  0.0649
  135loPI    C3 2147  18.197   3.152  10.596 -0.2311 -0.0372  0.1167
  135loPI   PO4 2148  17.790   3.246  10.109  0.0326 -0.0561  0.1903
  135loPI   GL1 2149  17.748   3.106   9.690 -0.1545 -0.2454  0.2792
  135loPI   GL2 2150  18.041   3.334   9.653  0.1213  0.2082 -0.3372
  135loPI   C1A 2151  17.862   2.992   9.273 -0.1013 -0.1396  0.4511
  135loPI   C2A 2152  17.825   3.275   8.888  0.1719  0.0546 -0.1431
  135loPI   C3A 2153  17.881   3.233   8.546 -0.1923  0.1766 -0.0919
  135loPI   C4A 2154  18.188   3.047   8.205 -0.2349  0.1083  0.0797
  135loPI   C5A 2155  18.180   3.246   7.847 -0.2006  0.0476  0.0051
  135loPI   C6A 2156  18.283   3.341   7.441  0.0931  0.4728  0.2139
  135loPI   C1B 2157  17.679   3.464   9.343  0.1741 -0.0448 -0.0660
  135loPI   C2B 2158  17.349   3.674   9.010  0.1847 -0.0593 -0.1097
  135loPI   C3B 2159  17.100   3.708   8.688  0.1158  0.2160 -0.1536
  135loPI   C4B 2160  16.809   3.476   8.356 -0.1369 -0.0903 -0.0834
  136loPI    C1 2161  19.381  10.780   9.685  0.1213  0.2071 -0.0717
  136loPI    C2 2162  19.518  10.468   9.894 -0.0859  0.2452  0.1242
  136loPI    C3 2163  19.317  10.408   9.554 -0.0979  0.1657  0.1452
  136loPI   PO4 2164  19.641  10.921   9.632  0.1065 -0.1237  0.0985
  136loPI   GL1 2165  19.912  11.326   9.531  0.0721  0.1474  0.0257
  136loPI   GL2 2166  19.874  11.580   9.229 -0.2178  0.3689 -0.0219
  136loPI   C1A 2167  19.912  11.120   9.004 -0.0077 -0.0000  0.1909
  136loPI   C2A 2168  19.600  11.145   8.740 -0.0824  0.0332 -0.0372
  136loPI   C3A 2169  19.341  11.011   8.450  0.0869 -0.1985 -0.1908
  136loPI   C4A 2170  19.282  11.015   8.047 -0.0989  0.0273 -0.0371
  136loPI   C5A 2171  19.178  10.916   7.735  0.1494  0.1589 -0.1115
  136loPI   C6A 2172  19.302  10.901   7.337  0.0041  0.0945 -0.0998
  136loPI   C1B 2173  19.767  11.597   8.810 -0.0959  0.0414  0.1267
  136loPI   C2B 2174  19.871  11.533   8.385  0.2755 -0.0130 -0.0371
  136loPI   C3B 2175  19.959  11.666   8.053  0.0550 -0.0074 -0.2081
  136loPI   C4B 2176  19.951  11.633   7.638 -0.0316  0.1191  0.0210
  137loPI    C1 2177  14.681  14.374   9.358  0.2664  0.0376 -0.2638
  137loPI    C2 2178  14.847  14.611   9.635  0.0686 -0.0035 -0.1079
  137loPI    C3 2179  15.043  14.286   9.507  0.0635 -0.1141  0.1576
  137loPI   PO4 2180  14.568  14.536   9.154 -0.3303  0.1765  0.1334
  137loPI   GL1 2181  14.685  14.770   8.798 -0.2340  0.1280  0.3075
  137loPI   GL2 2182  14.329  14.797   8.874 -0.0620 -0.2680  0.2546
  137loPI   C1A 2183  14.876  14.463   8.579 -0.1378 -0.1901  0.1263
  137loPI   C2A 2184  14.957  14.336   8.147 -0.0683  0.0426 -0.1203
  137loPI   C3A 2185  14.784  14.561   7.795  0.0150 -0.1993  0.1015
  137loPI   C4A 2186  14.798  14.883   7.417  0.2371 -0.4519  0.1452
  137loPI   C5A 2187  15.091  15.038   7.313 -0.1496  0.2359  0.0956
  137loPI   C6A 2188  15.200  15.356   7.056 -0.0324  0.3131 -0.2022
  137loPI   C1B 2189  14.205  14.999   8.430  0.0735  0.0298  0.0996
  137loPI   C2B 2190  14.212  14.975   8.041  0.0593 -0.0366  0.0271
  137loPI   C3B 2191  14.348  14.860   7.681 -0.0925 -0.1062 -0.2318
  137loPI   C4B 2192  14.337  15.076   7.395  0.3104 -0.2819  0.0728
  138loPI    C1 2193  10.499  18.486   9.713  0.3284 -0.2670  0.0003
  138loPI    C2 2194  10.595  18.802   9.939  0.2459 -0.3032  0.0867
  138loPI    C3 2195  10.356  18.516  10.085  0.0038 -0.2139 -0.1255
  138loPI   PO4 2196  10.355  18.477   9.469 -0.1122  0.4096  0.0672
  138loPI   GL1 2197  10.268  18.197   9.158 -0.0446 -0.0179  0.4251
  138loPI   GL2 2198  10.049  17.917   8.966  0.0175  0.2268 -0.0638
  138loPI   C1A 2199  10.493  18.275   8.925  0.1878 -0.4478  0.1081
  138loPI   C2A 2200  10.587  18.302   8.418 -0.2695  0.3227  0.1079
  138loPI   C3A 2201  10.544  18.154   8.069 -0.0061 -0.1111  0.0512
  138loPI   C4A 2202  10.502  18.228   7.548  0.0115 -0.1012  0.2969
  138loPI   C5A 2203  10.696  18.160   7.207  0.0214  0.0277 -0.2030
  138loPI   C6A 2204  10.938  18.296   6.908 -0.0334 -0.0573 -0.0613
  138loPI   C1B 2205  10.108  17.993   8.543 -0.1386  0.1611  0.0813
  138loPI   C2B 2206  10.184  17.856   8.133  0.0300  0.2680  0.1014
  138loPI   C3B 2207  10.372  17.755   7.802 -0.0400  0.0656  0.4746
  138loPI   C4B 2208  10.381  17.424   7.569  0.0937 -0.1265  0.0389
  139loPI    C1 2209   2.721  19.253  10.113  0.2378  0.1200  0.1598
  139loPI    C2 2210   2.529  19.604  10.105 -0.0347 -0.0272  0.1205
  139loPI    C3 2211   2.897  19.581  10.259 -0.0714  0.2475  0.2552
  139loPI   PO4 2212   2.785  19.164   9.815 -0.1032 -0.1348  0.1449
  139loPI   GL1 2213   3.003  19.078   9.326 -0.0884  0.0477 -0.0534
  139loPI   GL2 2214   3.114  19.348   9.464 -0.3275 -0.4712  0.1607
  139loPI   C1A 2215   3.104  19.018   8.944 -0.1927 -0.0845  0.1488
  139loPI   C2A 2216   2.956  18.877   8.613  0.0811 -0.0991 -0.3544
  139loPI   C3A 2217   2.784  18.934   8.204  0.1120 -0.1736 -0.1559
  139loPI   C4A 2218   2.780  18.865   7.803  0.0601 -0.0638 -0.1504
  139loPI   C5A 2219   2.620  18.681   7.446  0.0884 -0.0514 -0.3224
  139loPI   C6A 2220   2.402  18.418   7.037 -0.0747 -0.0132 -0.0257
  139loPI   C1B 2221   2.891  19.591   9.197  0.0620  0.0589 -0.2582
  139loPI   C2B 2222   2.746  19.743   8.762 -0.2545  0.1091  0.2340
  139loPI   C3B 2223   2.931  19.790   8.347  0.0205 -0.0614 -0.0109
  139loPI   C4B 2224   3.365  19.801   8.366  0.2108 -0.0131 -0.0257
  140loPI    C1 2225   0.761  13.234   9.095 -0.0071 -0.0526  0.0145
  140loPI    C2 2226   0.784  13.397   9.459 -0.0046 -0.1717  0.0681
  140loPI    C3 2227   0.800  13.630   9.134  0.0126 -0.0671  0.1434
  140loPI   PO4 2228   0.768  12.916   9.148  0.0780 -0.0395 -0.1962
  140loPI   GL1 2229   0.792  12.440   8.887  0.1008  0.1978 -0.3906
  140loPI   GL2 2230   1.078  12.603   8.776  0.5246  0.3270 -0.0212
  140loPI   C1A 2231   0.755  12.540   8.448 -0.3177 -0.0014  0.1492
  140loPI   C2A 2232   0.854  12.440   7.996  0.1155  0.0730  0.0156
  140loPI   C3A 2233   0.604  12.539   7.669 -0.1497 -0.1301  0.0642
  140loPI   C4A 2234   0.751  12.808   7.388  0.0064  0.0884  0.2095
  140loPI   C5A 2235   0.675  12.797   6.865  0.1197  0.2661  0.1012
  140loPI   C6A 2236   0.239  12.604   6.715 -0.1548 -0.1811  0.1295
  140loPI   C1B 2237   1.347  12.960   8.700  0.1166  0.0042  0.0808
  140loPI   C2B 2238   1.571  13.230   8.272  0.2790  0.0767  0.1789
  140loPI   C3B 2239   1.580  13.502   7.817 -0.0755  0.1584 -0.4240
  140loPI   C4B 2240   1.271  13.879   7.723 -0.1139  0.1501 -0.1466
  141loPI    C1 2241  14.317  16.664   9.651  0.1577 -0.1471 -0.2044
  141loPI    C2 2242  14.082  16.443   9.887  0.1347  0.0043 -0.0840
  141loPI    C3 2243  14.422  16.289   9.743  0.1302 -0.1016  0.0173
  141loPI   PO4 2244  14.229  16.850   9.431 -0.1019  0.3591 -0.0827
  141loPI   GL1 2245  14.040  16.873   9.039  0.2600 -0.3409  0.0093
  141loPI   GL2 2246  14.163  16.669   8.856  0.1140  0.1970 -0.0922
  141loPI   C1A 2247  14.246  17.136   8.706 -0.1647  0.2840  0.4240
  141loPI   C2A 2248  14.202  17.262   8.246 -0.0187  0.3144 -0.0027
  141loPI   C3A 2249  14.250  17.148   7.856 -0.0490  0.1345 -0.0209
  141loPI   C4A 2250  14.166  17.097   7.420 -0.4277  0.0165 -0.0047
  141loPI   C5A 2251  14.103  16.849   7.115 -0.3876 -0.1078  0.2465
  141loPI   C6A 2252  14.431  16.716   6.805 -0.0743 -0.0710  0.0076
  141loPI   C1B 2253  14.457  16.711   8.536 -0.3524  0.0719 -0.0032
  141loPI   C2B 2254  14.703  16.782   8.094  0.0562 -0.1528 -0.1370
  141loPI   C3B 2255  14.680  16.703   7.764  0.0245 -0.2519 -0.1580
  141loPI   C4B 2256  14.518  16.465   7.215 -0.2674  0.0025 -0.2504
  142loPI    C1 2257   1.587  11.209   9.612  0.0254  0.0524 -0.2669
  142loPI    C2 2258   1.373  11.536   9.699  0.1926  0.1770 -0.3192
  142loPI    C3 2259   1.596  11.362   9.982  0.0457  0.0638 -0.2720
  142loPI   PO4 2260   1.420  11.183   9.339 -0.1387 -0.2527  0.2547
  142loPI   GL1 2261   1.480  10.917   9.044 -0.0414  0.0294  0.0541
  142loPI   GL2 2262   1.170  10.909   8.887 -0.0715  0.3288  0.2181
  142loPI   C1A 2263   1.771  10.784   8.693 -0.0011  0.2029 -0.3574
  142loPI   C2A 2264   1.670  10.934   8.234  0.0241  0.2049  0.4003
  142loPI   C3A 2265   1.459  11.164   7.956  0.1548 -0.0456  0.1711
  142loPI   C4A 2266   1.049  11.018   7.673 -0.3329  0.0933 -0.1828
  142loPI   C5A 2267   0.969  11.020   7.175 -0.3472  0.3206 -0.0758
  142loPI   C6A 2268   1.083  11.013   6.764  0.0391  0.1097 -0.3341
  142loPI   C1B 2269   1.234  11.083   8.419 -0.2641 -0.0264  0.2020
  142loPI   C2B 2270   0.978  11.200   8.170  0.0456 -0.2190  0.0952
  142loPI   C3B 2271   0.646  11.173   7.910  0.0523 -0.1882 -0.0458
  142loPI   C4B 2272   0.664  11.250   7.510  0.1517  0.0433  0.1739
  143loPI    C1 2273  13.517  16.056   9.230 -0.0544 -0.0081  0.1269
  143loPI    C2 2274  13.434  16.197   9.595  0.0445  0.2029  0.0699
  143loPI    C3 2275  13.252  16.353   9.274  0.0246  0.0796  0.0207
  143loPI   PO4 2276  13.775  15.990   9.129  0.2250 -0.1428  0.2369
  143loPI   GL1 2277  13.980  16.045   8.820 -0.2112  0.2616 -0.1064
  143loPI   GL2 2278  14.312  15.896   8.903  0.2696  0.1079 -0.1415
  143loPI   C1A 2279  14.260  16.208   8.455 -0.2445  0.0117 -0.0620
  143loPI   C2A 2280  14.501  15.871   8.324 -0.1834  0.2271 -0.1337
  143loPI   C3A 2281  14.729  15.853   7.968 -0.0359 -0.1196 -0.2011
  143loPI   C4A 2282  14.933  16.194   7.764 -0.0686  0.3351  0.1656
  143loPI   C5A 2283  14.970  16.409   7.444 -0.0116  0.3031  0.0950
  143loPI   C6A 2284  15.045  16.732   7.111  0.2393  0.1433 -0.2861
  143loPI   C1B 2285  14.181  15.592   8.570  0.2751 -0.0834 -0.0647
  143loPI   C2B 2286  14.247  15.441   8.133 -0.0541  0.2042 -0.0092
  143loPI   C3B 2287  14.508  15.610   7.629  0.1186  0.0013  0.0272
  143loPI   C4B 2288  14.722  15.415   7.272 -0.0847  0.0528  0.1983
  144loPI    C1 2289  13.236  10.039   9.610 -0.0076  0.1887 -0.1078
  144loPI    C2 2290  12.932  10.079   9.867  0.1080 -0.0953  0.0784
  144loPI    C3 2291  13.298  10.204   9.969  0.1802 -0.3243  0.1055
  144loPI   PO4 2292  13.186   9.750   9.446 -0.0048 -0.3398 -0.0667
  144loPI   GL1 2293  12.908   9.613   9.216  0.2362  0.0540  0.2611
  144loPI   GL2 2294  13.135   9.732   8.962  0.3580 -0.0530  0.0213
  144loPI   C1A 2295  12.632   9.652   8.816 -0.1761 -0.0503  0.1022
  144loPI   C2A 2296  12.501   9.675   8.338 -0.2922 -0.0388 -0.1782
  144loPI   C3A 2297  12.173   9.685   8.231 -0.0125 -0.4074  0.3047
  144loPI   C4A 2298  11.973   9.551   7.993  0.0046 -0.2021  0.1497
  144loPI   C5A 2299  11.531   9.553   7.958  0.2188 -0.2460  0.0020
  144loPI   C6A 2300  11.091   9.442   7.903 -0.1535 -0.0289  0.2800
  144loPI   C1B 2301  13.032   9.753   8.534  0.4270 -0.1682  0.0372
  144loPI   C2B 2302  13.109   9.879   8.140 -0.0500 -0.0626 -0.1222
  144loPI   C3B 2303  13.136   9.997   7.718  0.0373  0.1333 -0.0608
  144loPI   C4B 2304  13.275  10.076   7.229  0.2256  0.0887 -0.1389
  145loPI    C1 2305   8.723   7.326   9.854 -0.1181  0.0489  0.1074
  145loPI    C2 2306   8.641   7.058  10.139 -0.0175  0.2018  0.2819
  145loPI    C3 2307   8.641   7.449  10.225 -0.1498  0.2589  0.0325
  145loPI   PO4 2308   8.520   7.222   9.625  0.0090 -0.2635 -0.1541
  145loPI   GL1 2309   8.682   7.358   9.240 -0.0672  0.0461  0.1129
  145loPI   GL2 2310   8.479   7.481   9.092 -0.0766  0.1330 -0.1363
  145loPI   C1A 2311   8.867   7.384   8.731  0.1028 -0.0882 -0.1211
  145loPI   C2A 2312   9.076   7.159   8.409 -0.0737  0.0454  0.0866
  145loPI   C3A 2313   9.151   7.057   7.932  0.0902 -0.1497  0.1827
  145loPI   C4A 2314   8.871   7.114   7.676 -0.0381  0.2383 -0.0672
  145loPI   C5A 2315   8.960   7.093   7.248  0.0352  0.1975  0.0838
  145loPI   C6A 2316   8.879   7.356   6.900  0.0322  0.1038  0.1200
  145loPI   C1B 2317   8.608   7.850   8.730 -0.1515  0.0241  0.0519
  145loPI   C2B 2318   8.848   7.762   8.378  0.0905  0.0104 -0.2114
  145loPI   C3B 2319   8.755   7.472   8.082 -0.0704 -0.1382  0.2310
  145loPI   C4B 2320   8.610   7.085   8.116  0.3133 -0.0511 -0.0476
  146loPI    C1 2321   9.940   3.012   9.907 -0.1089 -0.0599  0.1040
  146loPI    C2 2322  10.042   3.359  10.078 -0.2080  0.0654 -0.0889
  146loPI    C3 2323  10.124   3.014  10.262  0.0211  0.1852  0.0375
  146loPI   PO4 2324  10.102   3.088   9.631  0.3285  0.0013 -0.1932
  146loPI   GL1 2325   9.997   3.219   9.192  0.5658  0.1368 -0.0159
  146loPI   GL2 2326  10.347   3.403   9.154  0.3949  0.4445 -0.0277
  146loPI   C1A 2327  10.036   3.217   8.744 -0.3549  0.0915  0.0404
  146loPI   C2A 2328  10.224   3.249   8.327  0.1752  0.2662 -0.2683
  146loPI   C3A 2329  10.455   3.338   7.835  0.0562 -0.0676  0.2223
  146loPI   C4A 2330  10.231   3.488   7.433  0.2039 -0.2581 -0.0508
  146loPI   C5A 2331  10.232   3.450   7.031 -0.0119 -0.1690  0.0356
  146loPI   C6A 2332  10.160   3.616   6.636  0.1808  0.4886  0.3670
  146loPI   C1B 2333  10.589   3.572   8.826  0.1594 -0.0309  0.0371
  146loPI   C2B 2334  10.564   3.950   8.747  0.0149  0.1054 -0.0367
  146loPI   C3B 2335  10.367   4.125   8.403 -0.0826 -0.1074  0.2601
  146loPI   C4B 2336  10.137   4.329   8.016 -0.2102  0.0462  0.2469
  147loPI    C1 2337   0.766   5.045  10.272  0.0161  0.0164 -0.0496
  147loPI    C2 2338   1.159   5.083  10.206  0.0347 -0.1847 -0.0593
  147loPI    C3 2339   1.024   4.995  10.573 -0.0171  0.1100 -0.0050
  147loPI   PO4 2340   0.684   4.964  10.041 -0.1246 -0.1066  0.2574
  147loPI   GL1 2341   0.354   4.886   9.734 -0.0819 -0.1559  0.0931
  147loPI   GL2 2342   0.582   5.055   9.493  0.2133  0.1381 -0.0792
  147loPI   C1A 2343   0.332   4.566   9.395  0.2100 -0.0126  0.2537
  147loPI   C2A 2344   0.464   4.624   8.985 -0.1861  0.4411 -0.1613
  147loPI   C3A 2345   0.679   4.949   8.857 -0.0778  0.1101 -0.3663
  147loPI   C4A 2346   0.984   5.171   8.699 -0.0876  0.1395 -0.0120
  147loPI   C5A 2347   0.956   5.569   8.491  0.1025 -0.2411  0.1508
  147loPI   C6A 2348   0.968   5.966   8.345  0.0408 -0.1160 -0.1156
  147loPI   C1B 2349   0.830   4.662   9.307  0.4747 -0.2603 -0.1753
  147loPI   C2B 2350   1.128   4.338   9.199  0.2067 -0.1426  0.2325
  147loPI   C3B 2351   1.327   4.297   8.743  0.2605 -0.2241  0.0292
  147loPI   C4B 2352   1.697   4.288   8.423 -0.0929  0.0956  0.0253
  148loPI    C1 2353   5.094   2.281  10.191 -0.1021 -0.3927  0.1638
  148loPI    C2 2354   5.206   2.607  10.395 -0.2474 -0.1774 -0.0930
  148loPI    C3 2355   5.138   2.263  10.588 -0.1055 -0.0539  0.1830
  148loPI   PO4 2356   5.239   2.228   9.942  0.2269  0.4075 -0.2973
  148loPI   GL1 2357   5.146   1.905   9.532  0.0867  0.3722  0.4155
  148loPI   GL2 2358   5.087   2.208   9.463 -0.0217 -0.1460  0.2232
  148loPI   C1A 2359   5.187   1.689   9.251  0.0133  0.0602 -0.1684
  148loPI   C2A 2360   5.095   1.802   8.805  0.0969  0.0147 -0.1090
  148loPI   C3A 2361   4.835   2.106   8.585  0.2528  0.0868 -0.1739
  148loPI   C4A 2362   4.636   2.514   8.458 -0.0595  0.0333 -0.1029
  148loPI   C5A 2363   4.513   2.933   8.555 -0.0506  0.0293  0.0031
  148loPI   C6A 2364   4.579   3.343   8.641 -0.1619  0.2870 -0.0859
  148loPI   C1B 2365   5.127   2.405   9.135  0.0947  0.1741  0.1138
  148loPI   C2B 2366   4.997   2.553   8.827 -0.2091 -0.0780  0.1146
  148loPI   C3B 2367   5.175   2.628   8.467  0.0566 -0.0399 -0.0714
  148loPI   C4B 2368   5.365   2.614   8.027 -0.1196  0.3036  0.2874
  149loPI    C1 2369   3.020   5.626  10.016  0.1903  0.1089 -0.2381
  149loPI    C2 2370   3.263   5.324  10.115 -0.0928 -0.0919 -0.1434
  149loPI    C3 2371   3.054   5.514  10.398  0.0371  0.1549 -0.2102
  149loPI   PO4 2372   2.912   5.531   9.812  0.1958 -0.1154  0.0285
  149loPI   GL1 2373   3.008   5.598   9.488 -0.0702  0.0810 -0.0456
  149loPI   GL2 2374   3.070   5.871   9.270 -0.2135  0.1774  0.1477
  149loPI   C1A 2375   2.924   5.395   9.046  0.0574  0.1374 -0.0294
  149loPI   C2A 2376   2.905   5.380   8.611  0.2204 -0.0407  0.1765
  149loPI   C3A 2377   2.802   5.355   8.107  0.1998 -0.1619  0.1631
  149loPI   C4A 2378   2.441   5.303   7.782 -0.1774 -0.1180 -0.0382
  149loPI   C5A 2379   2.174   5.550   7.524 -0.1440 -0.0469  0.0664
  149loPI   C6A 2380   1.706   5.647   7.480  0.1706 -0.0068 -0.2422
  149loPI   C1B 2381   2.891   5.903   8.859 -0.1236 -0.1077 -0.0699
  149loPI   C2B 2382   2.726   5.896   8.369 -0.0251  0.0006  0.1582
  149loPI   C3B 2383   2.614   5.821   7.972 -0.1473 -0.0446 -0.1643
  149loPI   C4B 2384   2.281   6.040   7.593  0.0453 -0.0864  0.1458
  150loPI    C1 2385  17.490   7.227   9.764  0.0677  0.0215 -0.0806
  150loPI    C2 2386  17.730   7.091  10.053  0.1713  0.1013 -0.1287
  150loPI    C3 2387  17.439   7.351  10.141 -0.0775 -0.2072 -0.0232
  150loPI   PO4 2388  17.514   6.999   9.637 -0.1634 -0.1327  0.0866
  150loPI   GL1 2389  17.611   6.891   9.182 -0.1101  0.1224 -0.0731
  150loPI   GL2 2390  17.630   6.603   9.283 -0.1859 -0.1795 -0.0654
  150loPI   C1A 2391  17.569   7.219   8.852  0.1246 -0.1364 -0.0384
  150loPI   C2A 2392  17.523   7.225   8.449 -0.2036  0.1756  0.0495
  150loPI   C3A 2393  17.562   7.201   7.955 -0.0721 -0.1608 -0.2236
  150loPI   C4A 2394  17.411   7.158   7.558  0.1136 -0.2270  0.0755
  150loPI   C5A 2395  17.347   7.492   7.239  0.0441 -0.0813 -0.0470
  150loPI   C6A 2396  17.121   7.876   7.051 -0.2342  0.3398 -0.2129
  150loPI   C1B 2397  17.624   6.387   8.878 -0.0015  0.3127 -0.2010
  150loPI   C2B 2398  17.921   6.383   8.540 -0.0851  0.3806  0.2129
  150loPI   C3B 2399  18.343   6.262   8.305  0.2639  0.0202 -0.0332
  150loPI   C4B 2400  18.365   6.112   7.926 -0.0915  0.1790  0.0488
  151loPI    C1 2401  15.107   1.064   9.774  0.0707 -0.0828  0.1666
  151loPI    C2 2402  15.192   1.398   9.976 -0.2044  0.1212 -0.0467
  151loPI    C3 2403  14.853   1.200  10.050  0.0119 -0.1809  0.1612
  151loPI   PO4 2404  15.011   1.086   9.444  0.0655  0.0292  0.1009
  151loPI   GL1 2405  14.753   0.940   9.200  0.0570  0.1139  0.1759
  151loPI   GL2 2406  14.581   0.691   9.152  0.3691 -0.1356  0.0749
  151loPI   C1A 2407  14.837   1.008   8.767 -0.2767 -0.1506 -0.2187
  151loPI   C2A 2408  15.118   0.928   8.557 -0.2295  0.0093 -0.0214
  151loPI   C3A 2409  15.211   0.815   8.081 -0.0242 -0.1120  0.0115
  151loPI   C4A 2410  15.026   0.834   7.641 -0.0013  0.1072 -0.0733
  151loPI   C5A 2411  14.779   0.435   7.662 -0.2665  0.1579 -0.0268
  151loPI   C6A 2412  14.796  -0.065   7.769  0.0907 -0.2129  0.0864
  151loPI   C1B 2413  14.538   0.614   8.724  0.2522  0.0697 -0.2673
  151loPI   C2B 2414  14.752   0.518   8.484 -0.1363  0.0646 -0.0023
  151loPI   C3B 2415  14.744   0.831   8.031 -0.1842  0.2875  0.1652
  151loPI   C4B 2416  14.486   0.906   7.734  0.4960  0.0210 -0.2609
  152loPI    C1 2417   5.291  14.905   9.848 -0.0858  0.4207 -0.1921
  152loPI    C2 2418   4.960  14.857  10.068  0.0634 -0.0921 -0.0671
  152loPI    C3 2419   5.219  15.148  10.158 -0.0873 -0.0286  0.1702
  152loPI   PO4 2420   5.211  14.817   9.584  0.1095  0.1919 -0.1646
  152loPI   GL1 2421   5.366  15.050   9.198  0.0375 -0.0640 -0.0981
  152loPI   GL2 2422   5.032  15.196   9.273  0.1255  0.0217 -0.1252
  152loPI   C1A 2423   5.562  15.127   8.825  0.2616  0.1512 -0.1169
  152loPI   C2A 2424   5.426  15.089   8.390  0.2664 -0.0463 -0.0437
  152loPI   C3A 2425   5.426  14.991   7.903  0.0568 -0.2262 -0.1726
  152loPI   C4A 2426   5.655  14.935   7.523 -0.0033  0.0230  0.2491
  152loPI   C5A 2427   5.586  14.867   7.126  0.1358 -0.1614 -0.0044
  152loPI   C6A 2428   5.391  15.124   6.719 -0.2862  0.1317 -0.0639
  152loPI   C1B 2429   5.034  15.234   8.795 -0.1156 -0.2045 -0.0617
  152loPI   C2B 2430   4.931  15.223   8.383 -0.1343 -0.1917  0.4213
  152loPI   C3B 2431   4.882  14.906   8.043  0.1167 -0.2365 -0.1343
  152loPI   C4B 2432   4.759  14.752   7.604  0.2981 -0.1951 -0.1544
  153loPI    C1 2433   3.438   5.572   9.684 -0.1381 -0.0354  0.0264
  153loPI    C2 2434   3.590   5.839   9.940 -0.0954 -0.0641  0.0309
  153loPI    C3 2435   3.700   5.455   9.963 -0.0547 -0.0580 -0.0611
  153loPI   PO4 2436   3.508   5.679   9.431  0.1094 -0.1810 -0.2314
  153loPI   GL1 2437   3.616   5.713   9.040  0.3362  0.0279 -0.0397
  153loPI   GL2 2438   3.627   6.070   9.035 -0.0545 -0.1847  0.2932
  153loPI   C1A 2439   3.325   5.717   8.683 -0.0799  0.0570 -0.0248
  153loPI   C2A 2440   3.278   5.867   8.340  0.0005  0.1238 -0.0802
  153loPI   C3A 2441   3.279   5.585   7.939 -0.1685 -0.1857  0.2284
  153loPI   C4A 2442   3.041   5.344   7.474  0.0650  0.1369 -0.2332
  153loPI   C5A 2443   3.162   4.928   7.319  0.1655 -0.0924 -0.3374
  153loPI   C6A 2444   3.505   4.820   7.091 -0.1391 -0.2053  0.1380
  153loPI   C1B 2445   3.618   6.212   8.641  0.1540  0.0523  0.0671
  153loPI   C2B 2446   3.574   6.272   8.235 -0.2300 -0.0511 -0.0695
  153loPI   C3B 2447   3.683   5.963   7.868 -0.1520  0.0251  0.1446
  153loPI   C4B 2448   3.974   5.826   7.587 -0.1605 -0.0140  0.0883
  154loPI    C1 2449   4.558  16.656   9.777 -0.2443 -0.1217 -0.0458
  154loPI    C2 2450   4.418  16.292   9.863  0.1056 -0.2375  0.0498
  154loPI    C3 2451   4.547  16.531  10.156 -0.0790 -0.0524 -0.0173
  154loPI   PO4 2452   4.672  16.665   9.474 -0.1005 -0.2169 -0.1942
  154loPI   GL1 2453   4.567  17.082   9.236 -0.3016  0.2187  0.4458
  154loPI   GL2 2454   4.304  16.969   9.197  0.0819  0.0658  0.2824
  154loPI   C1A 2455   4.846  17.017   8.845  0.1489 -0.1179  0.1920
  154loPI   C2A 2456   5.170  16.936   8.545  0.0386  0.4562  0.1984
  154loPI   C3A 2457   5.498  16.953   8.218 -0.1654 -0.4042 -0.0628
  154loPI   C4A 2458   5.601  16.637   7.880  0.0013  0.1287 -0.0653
  154loPI   C5A 2459   5.539  16.618   7.493 -0.0727  0.2052 -0.1135
  154loPI   C6A 2460   5.320  16.355   7.226  0.0853  0.2231  0.2176
  154loPI   C1B 2461   4.306  16.783   8.796  0.3645 -0.1751 -0.3644
  154loPI   C2B 2462   4.390  16.526   8.474 -0.0157 -0.2427 -0.1458
  154loPI   C3B 2463   4.363  16.289   8.162 -0.1959  0.2910 -0.0528
  154loPI   C4B 2464   4.081  16.434   7.837  0.1024 -0.1086 -0.0306
  155loPI    C1 2465  19.198   6.413   9.900 -0.0903 -0.2753 -0.3729
  155loPI    C2 2466  19.526   6.187   9.932  0.2145  0.2201  0.2200
  155loPI    C3 2467  19.331   6.303  10.261 -0.4863  0.0526 -0.1179
  155loPI   PO4 2468  19.080   6.186   9.675  0.3935 -0.0301 -0.0443
  155loPI   GL1 2469  18.857   6.188   9.359  0.1939 -0.0479  0.1443
  155loPI   GL2 2470  18.606   6.105   9.385 -0.0643  0.0497  0.0305
  155loPI   C1A 2471  19.086   6.347   9.009 -0.0777 -0.0388 -0.3235
  155loPI   C2A 2472  19.236   6.533   8.646  0.1472 -0.5028  0.3380
  155loPI   C3A 2473  19.360   6.710   8.257  0.0780  0.2611  0.1018
  155loPI   C4A 2474  19.398   6.751   7.749 -0.0667  0.3282  0.0288
  155loPI   C5A 2475  19.038   6.936   7.441 -0.0503 -0.1372 -0.3397
  155loPI   C6A 2476  18.615   6.891   7.385  0.0378 -0.1729 -0.0587
  155loPI   C1B 2477  18.629   5.964   9.015  0.2386  0.0376 -0.0604
  155loPI   C2B 2478  18.705   5.869   8.554  0.4095 -0.0917  0.0937
  155loPI   C3B 2479  18.604   5.669   8.129  0.0410 -0.1800 -0.0392
  155loPI   C4B 2480  18.619   5.286   7.950  0.1710 -0.1554  0.1673
  156loPI    C1 2481   9.593  12.221   9.762  0.3228 -0.2385 -0.1558
  156loPI    C2 2482   9.658  12.096  10.136 -0.0930 -0.0059  0.0004
  156loPI    C3 2483   9.889  12.381   9.978  0.1023 -0.1249  0.0679
  156loPI   PO4 2484   9.605  12.121   9.565  0.0300 -0.0775  0.0933
  156loPI   GL1 2485   9.681  11.890   9.265  0.0802  0.1502 -0.3836
  156loPI   GL2 2486   9.746  11.636   9.355  0.1525  0.0029  0.1803
  156loPI   C1A 2487   9.902  12.056   8.871 -0.1108 -0.0364 -0.3408
  156loPI   C2A 2488   9.920  11.925   8.403 -0.2331 -0.3240  0.1429
  156loPI   C3A 2489   9.929  11.847   7.993  0.0708  0.1137  0.1310
  156loPI   C4A 2490  10.166  11.719   7.637 -0.1113 -0.0356 -0.0980
  156loPI   C5A 2491  10.325  11.588   7.304 -0.3998 -0.4393  0.0595
  156loPI   C6A 2492  10.424  11.750   7.024  0.2597  0.0369  0.0349
  156loPI   C1B 2493   9.733  11.266   9.099  0.1903 -0.5807 -0.4724
  156loPI   C2B 2494   9.872  11.217   8.638  0.0874  0.2026 -0.1863
  156loPI   C3B 2495   9.861  11.385   8.305  0.0874  0.0553  0.2016
  156loPI   C4B 2496   9.826  11.350   7.804 -0.0903 -0.1373 -0.1743
  157loPI    C1 2497   6.078   7.615   9.924  0.0349 -0.0886 -0.0270
  157loPI    C2 2498   5.989   7.350  10.210  0.1368  0.1296  0.2112
  157loPI    C3 2499   6.026   7.738  10.301 -0.1145  0.2447 -0.1521
  157loPI   PO4 2500   5.931   7.541   9.760  0.1879 -0.0019  0.0484
  157loPI   GL1 2501   5.887   7.480   9.334 -0.1155 -0.0174  0.0638
  157loPI   GL2 2502   5.802   7.780   9.339  0.0608  0.0741  0.2907
  157loPI   C1A 2503   5.991   7.360   9.018 -0.1005  0.2918  0.1394
  157loPI   C2A 2504   5.986   7.369   8.686  0.2154 -0.0070 -0.1276
  157loPI   C3A 2505   6.050   7.418   8.322  0.3812 -0.1428 -0.0247
  157loPI   C4A 2506   6.350   7.573   8.156 -0.2783 -0.0447 -0.1294
  157loPI   C5A 2507   6.606   7.695   7.860 -0.3006 -0.1791 -0.0455
  157loPI   C6A 2508   6.991   7.632   7.825 -0.1199 -0.0429 -0.3097
  157loPI   C1B 2509   5.959   7.811   8.915  0.1720 -0.2332 -0.0520
  157loPI   C2B 2510   6.272   7.817   8.612  0.3751  0.3699 -0.2085
  157loPI   C3B 2511   6.662   7.712   8.530  0.0582 -0.3310  0.3051
  157loPI   C4B 2512   6.866   7.476   8.281  0.1841  0.3158 -0.1846
  158loPI    C1 2513  13.764  16.597   9.508 -0.1822  0.0597  0.2090
  158loPI    C2 2514  13.657  16.970   9.409  0.1710  0.1510  0.1600
  158loPI    C3 2515  13.838  16.899   9.759  0.1809  0.0388  0.1326
  158loPI   PO4 2516  13.777  16.498   9.345  0.1912  0.1325  0.3060
  158loPI   GL1 2517  13.535  16.645   9.013  0.0501  0.2045  0.2198
  158loPI   GL2 2518  13.701  16.429   8.831 -0.2088  0.0568  0.0118
  158loPI   C1A 2519  13.733  16.946   8.658 -0.1111 -0.3458  0.0804
  158loPI   C2A 2520  13.979  16.882   8.347 -0.0489  0.2255  0.1424
  158loPI   C3A 2521  14.208  16.611   8.067 -0.2688 -0.0968 -0.0708
  158loPI   C4A 2522  14.493  16.290   7.988 -0.2308 -0.0330 -0.0413
  158loPI   C5A 2523  14.483  16.154   7.651  0.2387 -0.2603  0.3997
  158loPI   C6A 2524  14.256  16.091   7.328 -0.0017 -0.0397 -0.2088
  158loPI   C1B 2525  13.827  16.373   8.403  0.0733  0.1057  0.1391
  158loPI   C2B 2526  13.621  16.243   7.926  0.2127  0.0689 -0.2159
  158loPI   C3B 2527  13.295  16.487   7.655  0.2627  0.0365  0.2301
  158loPI   C4B 2528  13.244  16.391   7.194 -0.0878  0.0876  0.2778
  159loPI    C1 2529   7.031   6.700   9.692  0.2704  0.1321  0.0817
  159loPI    C2 2530   7.286   6.415   9.809  0.2832  0.0560 -0.1288
  159loPI    C3 2531   7.316   6.784   9.960  0.3736 -0.0104  0.0177
  159loPI   PO4 2532   6.983   6.662   9.455 -0.0874  0.3040 -0.1558
  159loPI   GL1 2533   6.878   6.790   9.055  0.2133  0.0124  0.1414
  159loPI   GL2 2534   6.502   6.862   8.879  0.1053  0.0601 -0.0590
  159loPI   C1A 2535   7.290   6.684   8.750  0.2544  0.2964 -0.1982
  159loPI   C2A 2536   7.329   6.597   8.410 -0.1275  0.0607  0.0124
  159loPI   C3A 2537   7.618   6.787   8.103  0.1220  0.2663 -0.0851
  159loPI   C4A 2538   7.848   7.080   7.795  0.2669  0.3739  0.1398
  159loPI   C5A 2539   8.275   7.179   7.760  0.0723  0.1111  0.1712
  159loPI   C6A 2540   8.477   7.587   7.689 -0.2678  0.1051 -0.0635
  159loPI   C1B 2541   6.414   6.635   8.480 -0.0656 -0.1084 -0.2501
  159loPI   C2B 2542   6.385   6.694   7.986  0.0582 -0.0535  0.2790
  159loPI   C3B 2543   6.229   6.818   7.540 -0.1541  0.1110 -0.0707
  159loPI   C4B 2544   6.402   6.673   7.138 -0.3183  0.2470  0.0412
  160loPI    C1 2545   1.529  15.910   9.453 -0.0967  0.1517  0.4503
  160loPI    C2 2546   1.181  15.712   9.437  0.0477 -0.0786 -0.1345
  160loPI    C3 2547   1.405  15.699   9.769 -0.3344 -0.2110  0.1244
  160loPI   PO4 2548   1.591  15.836   9.186  0.0978  0.0503 -0.1981
  160loPI   GL1 2549   1.723  15.802   8.720  0.5467 -0.1723  0.0896
  160loPI   GL2 2550   1.515  15.601   8.761  0.0324  0.2179  0.0997
  160loPI   C1A 2551   1.319  15.963   8.440 -0.2129  0.0649 -0.3026
  160loPI   C2A 2552   1.092  16.025   8.037  0.1315  0.1876  0.0887
  160loPI   C3A 2553   0.828  16.372   7.910  0.4120  0.1350  0.2762
  160loPI   C4A 2554   0.478  16.181   7.684  0.0140  0.3592  0.1760
  160loPI   C5A 2555   0.434  16.131   7.287  0.2916  0.1306 -0.1148
  160loPI   C6A 2556   0.082  16.417   7.231 -0.0945 -0.1548  0.4042
  160loPI   C1B 2557   1.423  15.509   8.286 -0.2570  0.1899  0.1669
  160loPI   C2B 2558   1.403  15.554   7.864 -0.2958  0.0660  0.0754
  160loPI   C3B 2559   1.191  15.457   7.523 -0.1582  0.2030 -0.4066
  160loPI   C4B 2560   0.687  15.238   7.573 -0.2556 -0.0671  0.2651
  161loPI    C1 2561  18.946  11.160   9.615  0.0019 -0.3117  0.0258
  161loPI    C2 2562  19.196  11.142   9.927  0.0564 -0.0470 -0.0004
  161loPI    C3 2563  19.092  11.497   9.774 -0.0148 -0.1724 -0.2484
  161loPI   PO4 2564  18.954  11.004   9.482  0.4325  0.2223  0.2065
  161loPI   GL1 2565  19.110  10.707   9.228 -0.1937 -0.6743 -0.0578
  161loPI   GL2 2566  19.339  10.876   9.162  0.1002  0.2262  0.0433
  161loPI   C1A 2567  19.259  10.472   8.848  0.3583 -0.0373 -0.4908
  161loPI   C2A 2568  19.607  10.226   8.649 -0.0838  0.0744  0.0503
  161loPI   C3A 2569  19.635  10.065   8.156 -0.0137 -0.1534 -0.0875
  161loPI   C4A 2570  19.427  10.013   7.811 -0.1173  0.1764  0.1366
  161loPI   C5A 2571  19.323   9.958   7.367  0.2513 -0.1576  0.3026
  161loPI   C6A 2572  19.584   9.881   7.056 -0.0591 -0.2447 -0.0292
  161loPI   C1B 2573  18.985  11.021   8.846 -0.0112 -0.0696  0.3688
  161loPI   C2B 2574  18.909  10.783   8.548 -0.0337  0.0348  0.3127
  161loPI   C3B 2575  18.871  10.716   8.102  0.0052  0.1245 -0.0400
  161loPI   C4B 2576  19.056  10.414   7.794  0.5572  0.2344  0.2158
  162loPI    C1 2577   9.455   9.103  10.020 -0.0926  0.1007  0.0355
  162loPI    C2 2578   9.636   8.747  10.045 -0.2109  0.0186 -0.2322
  162loPI    C3 2579   9.249   8.782  10.141 -0.1961  0.0786 -0.1936
  162loPI   PO4 2580   9.577   9.185   9.681 -0.1127 -0.3364 -0.0884
  162loPI   GL1 2581   9.545   9.626   9.518 -0.0099  0.3727  0.3363
  162loPI   GL2 2582   9.651   9.853   9.585 -0.2343 -0.0962  0.0584
  162loPI   C1A 2583   9.598   9.328   9.022  0.1072 -0.4716  0.1212
  162loPI   C2A 2584   9.715   9.291   8.673 -0.1351 -0.2711  0.2699
  162loPI   C3A 2585   9.542   9.117   8.322 -0.1312 -0.0947 -0.0706
  162loPI   C4A 2586   9.684   9.033   7.928  0.0583 -0.2238  0.1932
  162loPI   C5A 2587   9.597   8.766   7.545  0.3098 -0.1360  0.1220
  162loPI   C6A 2588   9.503   8.432   7.274 -0.4449  0.1472  0.0725
  162loPI   C1B 2589   9.842   9.759   9.108 -0.1711 -0.0783 -0.0041
  162loPI   C2B 2590   9.770   9.951   8.645 -0.2376  0.0063  0.0223
  162loPI   C3B 2591   9.502  10.243   8.372 -0.2196 -0.0112  0.0814
  162loPI   C4B 2592   9.276  10.126   8.103  0.2683  0.2968 -0.2738
  163loPI    C1 2593  12.818   5.450   9.838 -0.0064 -0.1311 -0.0320
  163loPI    C2 2594  12.767   5.419  10.234  0.0176 -0.0569 -0.0228
  163loPI    C3 2595  12.814   5.779  10.066  0.1986 -0.1011 -0.0694
  163loPI   PO4 2596  13.013   5.226   9.781 -0.3155  0.1214 -0.0335
  163loPI   GL1 2597  13.114   4.999   9.377 -0.0946  0.2110  0.1165
  163loPI   GL2 2598  12.822   5.166   9.329  0.3186  0.2900  0.0354
  163loPI   C1A 2599  13.152   4.969   8.889 -0.4851 -0.0877  0.5719
  163loPI   C2A 2600  13.254   5.092   8.458  0.4988  0.6107 -0.2384
  163loPI   C3A 2601  13.487   5.344   8.142 -0.1726 -0.1349  0.2424
  163loPI   C4A 2602  13.522   5.486   7.708  0.0412  0.0515 -0.2353
  163loPI   C5A 2603  13.784   5.683   7.364 -0.0355  0.0259  0.0676
  163loPI   C6A 2604  14.116   5.644   7.090 -0.1074  0.0015 -0.1283
  163loPI   C1B 2605  12.653   5.069   8.964  0.2638  0.3275 -0.0298
  163loPI   C2B 2606  12.738   5.010   8.459 -0.1486  0.2008  0.2662
  163loPI   C3B 2607  12.919   5.146   8.003  0.1061 -0.4120  0.0759
  163loPI   C4B 2608  13.091   5.279   7.601 -0.2028  0.2788  0.0919
  164loPI    C1 2609  13.879   6.722  10.222 -0.2122  0.1247 -0.0300
  164loPI    C2 2610  13.593   6.444  10.258 -0.1500  0.0621 -0.0169
  164loPI    C3 2611  13.713   6.651  10.578 -0.1173  0.0249 -0.0050
  164loPI   PO4 2612  13.866   6.822  10.045  0.0488  0.0833  0.1090
  164loPI   GL1 2613  13.975   6.658   9.596  0.2773 -0.1268 -0.2054
  164loPI   GL2 2614  13.841   6.373   9.535  0.0655 -0.2570  0.2983
  164loPI   C1A 2615  14.087   6.961   9.239 -0.0219 -0.1537  0.1330
  164loPI   C2A 2616  14.395   7.180   9.080  0.2075 -0.0712  0.3742
  164loPI   C3A 2617  14.512   7.323   8.774 -0.0497 -0.2393 -0.1538
  164loPI   C4A 2618  14.541   7.479   8.453 -0.0404 -0.0075  0.4775
  164loPI   C5A 2619  14.652   7.671   8.172  0.1105 -0.2217  0.4044
  164loPI   C6A 2620  15.066   7.931   8.102 -0.1278  0.1613  0.0670
  164loPI   C1B 2621  13.552   6.271   9.221 -0.1349  0.1070 -0.0583
  164loPI   C2B 2622  13.597   6.066   8.824 -0.1965 -0.0109  0.1234
  164loPI   C3B 2623  13.851   5.755   8.706  0.2122  0.0209 -0.0319
  164loPI   C4B 2624  13.945   5.451   8.834  0.2175 -0.0568 -0.1744
  165loPI    C1 2625   2.402  18.823  10.136  0.0276 -0.4313  0.0081
  165loPI    C2 2626   2.777  18.697  10.196  0.0922 -0.2180  0.0586
  165loPI    C3 2627   2.479  18.551  10.419  0.1532 -0.3446  0.0578
  165loPI   PO4 2628   2.326  18.802   9.887 -0.0694 -0.1927  0.0453
  165loPI   GL1 2629   2.373  18.949   9.414  0.1110 -0.0722 -0.3527
  165loPI   GL2 2630   2.514  19.227   9.375  0.0676  0.0613  0.0369
  165loPI   C1A 2631   2.419  18.790   8.985 -0.1953 -0.2861 -0.2869
  165loPI   C2A 2632   2.412  18.714   8.526  0.0163  0.0895 -0.0966
  165loPI   C3A 2633   2.312  18.689   8.109  0.2724  0.2509 -0.0627
  165loPI   C4A 2634   2.195  18.638   7.725 -0.0691  0.0919 -0.0625
  165loPI   C5A 2635   1.964  18.357   7.531 -0.2903  0.2525  0.1728
  165loPI   C6A 2636   2.054  17.992   7.175 -0.4015 -0.1169  0.0142
  165loPI   C1B 2637   2.679  19.263   8.904  0.2110  0.0704 -0.3105
  165loPI   C2B 2638   2.704  19.309   8.485 -0.0215 -0.0838  0.1146
  165loPI   C3B 2639   2.758  19.420   7.964  0.0531  0.1003  0.0075
  165loPI   C4B 2640   2.573  19.794   7.734  0.1284  0.2340 -0.0610
  166loPI    C1 2641   9.639  15.628   9.629  0.1357 -0.0980  0.0093
  166loPI    C2 2642   9.333  15.557   9.877  0.0734 -0.3331 -0.1316
  166loPI    C3 2643   9.617  15.820   9.979 -0.2799  0.0415 -0.0875
  166loPI   PO4 2644   9.560  15.712   9.400 -0.0662  0.3555 -0.0737
  166loPI   GL1 2645   9.211  15.767   9.143  0.1601  0.0686  0.0151
  166loPI   GL2 2646   9.451  15.506   8.954  0.2458  0.0696 -0.1732
  166loPI   C1A 2647   8.927  15.828   8.831 -0.2619 -0.1597 -0.2151
  166loPI   C2A 2648   8.699  16.003   8.438 -0.1138 -0.0284  0.1583
  166loPI   C3A 2649   8.692  15.988   7.960 -0.0399 -0.0839 -0.0039
  166loPI   C4A 2650   8.704  16.018   7.508 -0.1268 -0.1090 -0.1485
  166loPI   C5A 2651   9.074  15.926   7.306 -0.1534 -0.2702  0.5699
  166loPI   C6A 2652   9.432  16.250   7.092  0.1768  0.0157 -0.0910
  166loPI   C1B 2653   9.306  15.605   8.521 -0.0423  0.0119  0.0776
  166loPI   C2B 2654   9.099  15.835   8.236  0.0212  0.1072  0.1476
  166loPI   C3B 2655   9.120  15.691   7.772 -0.0121 -0.0521 -0.4870
  166loPI   C4B 2656   9.503  15.437   7.586 -0.0844  0.2823 -0.1523
  167loPI    C1 2657  11.709  11.567   9.719  0.1733 -0.0555  0.2701
  167loPI    C2 2658  11.845  11.440  10.073  0.1002  0.0948  0.3530
  167loPI    C3 2659  12.053  11.710   9.864  0.3410 -0.2766  0.0988
  167loPI   PO4 2660  11.549  11.319   9.563 -0.2826 -0.0082 -0.2322
  167loPI   GL1 2661  11.711  10.898   9.259 -0.2152 -0.2896 -0.2868
  167loPI   GL2 2662  11.448  10.915   9.282  0.0928 -0.1140  0.2637
  167loPI   C1A 2663  11.803  10.942   8.857  0.2427 -0.1522 -0.2250
  167loPI   C2A 2664  12.016  10.963   8.432 -0.1338 -0.0652 -0.1353
  167loPI   C3A 2665  11.869  11.071   8.034 -0.1118 -0.2153  0.1938
  167loPI   C4A 2666  11.665  10.995   7.649 -0.4539  0.0670 -0.0919
  167loPI   C5A 2667  11.339  10.716   7.473  0.1401  0.1279  0.3690
  167loPI   C6A 2668  11.317  10.578   7.113  0.0976 -0.0973 -0.0745
  167loPI   C1B 2669  11.164  10.903   8.906  0.1041  0.1275  0.0537
  167loPI   C2B 2670  10.995  11.225   8.697  0.2779 -0.0360  0.1662
  167loPI   C3B 2671  10.801  11.362   8.238 -0.3607  0.0166 -0.1622
  167loPI   C4B 2672  10.635  11.717   7.908 -0.1055 -0.0051 -0.0993
  168loPI    C1 2673   8.159   0.029   9.755 -0.0722  0.0294 -0.1164
  168loPI    C2 2674   8.112   0.313  10.032  0.1107  0.1316 -0.1882
  168loPI    C3 2675   8.065  -0.071  10.130 -0.0916  0.1824 -0.0796
  168loPI   PO4 2676   8.390   0.035   9.678 -0.1829  0.1282  0.0363
  168loPI   GL1 2677   8.531   0.083   9.281  0.0763 -0.1708 -0.1045
  168loPI   GL2 2678   8.515  -0.257   9.326 -0.0812  0.4571  0.0056
  168loPI   C1A 2679   8.532   0.272   8.919 -0.0112 -0.4723  0.0490
  168loPI   C2A 2680   8.554   0.304   8.578  0.1513  0.2938  0.0808
  168loPI   C3A 2681   8.636   0.384   8.104 -0.0784 -0.3462  0.1031
  168loPI   C4A 2682   8.834   0.153   7.772  0.3170  0.1931 -0.0182
  168loPI   C5A 2683   9.031   0.143   7.406 -0.1846 -0.2426  0.0103
  168loPI   C6A 2684   9.333   0.051   7.208  0.2268 -0.3743 -0.1445
  168loPI   C1B 2685   8.617  -0.255   8.891  0.0182  0.0054 -0.0377
  168loPI   C2B 2686   8.837  -0.239   8.474  0.1377  0.2966  0.1637
  168loPI   C3B 2687   9.076  -0.128   8.129  0.0831  0.1172 -0.1579
  168loPI   C4B 2688   9.276   0.031   7.943  0.2160 -0.0414 -0.0506
  169loPI    C1 2689   3.052  10.063   9.952  0.1505  0.2102  0.0713
  169loPI    C2 2690   3.167   9.854  10.273  0.1804  0.1394  0.0149
  169loPI    C3 2691   2.840  10.084  10.290 -0.0355 -0.1589 -0.0170
  169loPI   PO4 2692   2.984   9.878   9.694  0.4215  0.1466 -0.1766
  169loPI   GL1 2693   3.085   9.878   9.304  0.3486 -0.1306 -0.0334
  169loPI   GL2 2694   2.739   9.898   9.259  0.0336 -0.2217 -0.1939
  169loPI   C1A 2695   3.065  10.233   8.952 -0.1776 -0.1076 -0.2718
  169loPI   C2A 2696   2.876  10.305   8.577  0.2850 -0.1159  0.1496
  169loPI   C3A 2697   2.603  10.321   8.337  0.0843 -0.2149  0.2885
  169loPI   C4A 2698   2.309  10.533   8.035 -0.0970  0.3825  0.1839
  169loPI   C5A 2699   2.394  10.715   7.688 -0.2131  0.0893 -0.2768
  169loPI   C6A 2700   2.759  10.989   7.662 -0.0669  0.2718  0.1237
  169loPI   C1B 2701   2.732   9.816   8.796  0.0197 -0.1001 -0.3572
  169loPI   C2B 2702   2.710   9.806   8.256 -0.0115  0.1748  0.2222
  169loPI   C3B 2703   2.772   9.578   7.825  0.1090  0.1222 -0.1348
  169loPI   C4B 2704   2.697   9.718   7.457 -0.2764  0.0452  0.1677
  170loPI    C1 2705   0.354  18.347  10.057  0.0058 -0.0459  0.1095
  170loPI    C2 2706   0.123  18.112   9.829 -0.0634 -0.1282  0.2636
  170loPI    C3 2707   0.453  17.964  10.000  0.0360 -0.0436  0.1472
  170loPI   PO4 2708   0.312  18.645   9.847 -0.0345 -0.0895 -0.2057
  170loPI   GL1 2709   0.359  18.921   9.568 -0.1062 -0.1324 -0.0299
  170loPI   GL2 2710   0.491  19.216   9.330 -0.0279  0.2075 -0.0552
  170loPI   C1A 2711   0.468  18.712   9.264 -0.1364  0.0588 -0.0149
  170loPI   C2A 2712   0.433  18.856   8.890 -0.2789 -0.1407 -0.0523
  170loPI   C3A 2713   0.454  18.995   8.557 -0.2437  0.0140  0.0099
  170loPI   C4A 2714   0.434  18.984   8.192  0.1241 -0.1279  0.0816
  170loPI   C5A 2715   0.522  19.203   7.821 -0.1723  0.1351 -0.0060
  170loPI   C6A 2716   0.303  19.153   7.379  0.1326 -0.0957 -0.2127
  170loPI   C1B 2717   0.725  19.321   9.007  0.0088 -0.1285  0.0863
  170loPI   C2B 2718   0.733  19.343   8.669  0.0168 -0.0740 -0.1552
  170loPI   C3B 2719   0.646  19.402   8.231 -0.0744 -0.1790 -0.0018
  170loPI   C4B 2720   0.767  19.750   8.037 -0.2356 -0.0292  0.1530
  171loPI    C1 2721  13.552  11.007   9.646 -0.1479 -0.0675 -0.3520
  171loPI    C2 2722  13.723  10.665   9.764  0.0997  0.2284  0.1860
  171loPI    C3 2723  13.386  10.790   9.939 -0.1870  0.0943 -0.2531
  171loPI   PO4 2724  13.553  10.979   9.441  0.0032 -0.0961  0.0838
  171loPI   GL1 2725  13.160  10.977   9.075  0.0020 -0.1214 -0.0548
  171loPI   GL2 2726  13.160  11.099   8.734 -0.2994  0.0846  0.1707
  171loPI   C1A 2727  13.440  10.699   8.785  0.2208  0.1172 -0.2740
  171loPI   C2A 2728  13.356  10.476   8.389 -0.0843 -0.1767  0.1207
  171loPI   C3A 2729  13.154  10.493   8.037 -0.1222 -0.1327  0.1410
  171loPI   C4A 2730  13.115  10.498   7.560  0.1778 -0.3638 -0.0157
  171loPI   C5A 2731  13.182  10.666   7.199  0.0340  0.1009  0.0321
  171loPI   C6A 2732  13.487  10.990   7.365  0.1170 -0.3439  0.0767
  171loPI   C1B 2733  13.347  11.036   8.265 -0.4241  0.1106 -0.1175
  171loPI   C2B 2734  13.237  10.940   7.895 -0.1257 -0.1903  0.3490
  171loPI   C3B 2735  13.028  10.981   7.518  0.1509  0.1953 -0.3293
  171loPI   C4B 2736  12.696  10.711   7.377  0.1712  0.2340  0.2346
  172loPI    C1 2737   7.025   7.618   9.434 -0.0549  0.1090  0.2050
  172loPI    C2 2738   7.243   7.525   9.111 -0.1031  0.0005  0.2029
  172loPI    C3 2739   6.998   7.253   9.272 -0.2060  0.1080  0.2304
  172loPI   PO4 2740   6.869   7.869   9.416  0.1213 -0.0426  0.1230
  172loPI   GL1 2741   6.983   8.104   9.068 -0.0178 -0.1547 -0.1428
  172loPI   GL2 2742   6.807   7.708   8.959  0.1558 -0.0120 -0.0484
  172loPI   C1A 2743   7.056   8.143   8.605  0.0400  0.2388  0.3100
  172loPI   C2A 2744   6.961   8.047   8.084  0.3674  0.0840 -0.3370
  172loPI   C3A 2745   6.972   8.093   7.634 -0.1021 -0.2173  0.1642
  172loPI   C4A 2746   6.800   7.717   7.343 -0.2932  0.2556 -0.2073
  172loPI   C5A 2747   6.746   7.392   6.906 -0.1229 -0.0019 -0.0537
  172loPI   C6A 2748   6.716   7.147   6.528 -0.2314 -0.2276 -0.0932
  172loPI   C1B 2749   6.939   7.305   8.776  0.1037  0.2406 -0.3160
  172loPI   C2B 2750   6.869   6.841   8.516 -0.2480 -0.1488 -0.4907
  172loPI   C3B 2751   6.845   6.585   8.205 -0.3402 -0.3887  0.1588
  172loPI   C4B 2752   6.823   6.547   7.740 -0.2221  0.1456  0.0288
  173loPI    C1 2753  13.121  15.411   9.524  0.1264  0.2302  0.1758
  173loPI    C2 2754  12.852  15.132   9.622  0.2432  0.0702  0.0492
  173loPI    C3 2755  12.952  15.416   9.886 -0.0511  0.1344  0.0955
  173loPI   PO4 2756  13.103  15.395   9.194  0.0010 -0.0789  0.1707
  173loPI   GL1 2757  13.271  15.299   8.863 -0.2787 -0.2124  0.2893
  173loPI   GL2 2758  13.394  15.085   8.746 -0.2155 -0.2104 -0.0930
  173loPI   C1A 2759  13.242  15.558   8.509  0.0363  0.3228 -0.1195
  173loPI   C2A 2760  13.302  15.776   8.148  0.0403  0.0163 -0.1731
  173loPI   C3A 2761  13.250  15.921   7.678 -0.0038  0.3020 -0.0280
  173loPI   C4A 2762  13.228  15.806   7.223 -0.0814  0.2124  0.1886
  173loPI   C5A 2763  13.253  15.426   6.993  0.0327 -0.1840 -0.1633
  173loPI   C6A 2764  12.808  15.287   6.875 -0.1749 -0.2441  0.1006
  173loPI   C1B 2765  13.212  14.985   8.364  0.0027  0.1432  0.2551
  173loPI   C2B 2766  13.285  15.197   8.006  0.1666  0.1993 -0.2626
  173loPI   C3B 2767  13.533  15.488   7.590  0.1179 -0.0917  0.3136
  173loPI   C4B 2768  13.835  15.796   7.602  0.2181 -0.0711  0.2632
  174loPI    C1 2769  19.435   6.874  10.138 -0.0801  0.1086  0.1020
  174loPI    C2 2770  19.174   6.771  10.423  0.0396 -0.3919  0.0404
  174loPI    C3 2771  19.566   6.768  10.501  0.0453  0.1481  0.0688
  174loPI   PO4 2772  19.204   6.921   9.912  0.0936  0.2536  0.0425
  174loPI   GL1 2773  19.214   7.099   9.491 -0.6326  0.2592  0.1018
  174loPI   GL2 2774  18.913   7.274   9.548  0.1097  0.2154  0.0812
  174loPI   C1A 2775  19.277   7.052   9.081 -0.0216  0.1060 -0.0679
  174loPI   C2A 2776  19.429   7.062   8.630  0.0849 -0.1848 -0.0161
  174loPI   C3A 2777  19.493   7.172   8.261  0.0023 -0.1146 -0.3872
  174loPI   C4A 2778  19.631   7.178   7.854  0.0339 -0.1695  0.1940
  174loPI   C5A 2779  19.534   7.359   7.486  0.0801  0.1067  0.0973
  174loPI   C6A 2780  19.445   7.141   7.058  0.0885  0.1599  0.1372
  174loPI   C1B 2781  18.766   7.013   9.122  0.2054  0.0879  0.1140
  174loPI   C2B 2782  18.886   6.798   8.863 -0.3308  0.0331  0.0868
  174loPI   C3B 2783  18.969   6.927   8.443  0.0612 -0.1559 -0.1093
  174loPI   C4B 2784  18.886   6.739   8.056 -0.3378 -0.1559  0.1220
  175loPI    C1 2785   6.096   8.471   9.909  0.1015  0.1075  0.0552
  175loPI    C2 2786   6.230   8.542  10.279 -0.0744  0.1351  0.1146
  175loPI    C3 2787   6.119   8.172  10.174  0.1970  0.0799  0.0159
  175loPI   PO4 2788   6.351   8.525   9.758  0.1203 -0.1843  0.1600
  175loPI   GL1 2789   6.329   8.603   9.377 -0.2128  0.1283  0.2358
  175loPI   GL2 2790   6.034   8.436   9.388 -0.1218  0.0649  0.1496
  175loPI   C1A 2791   6.473   8.585   8.902  0.3499 -0.0911  0.0707
  175loPI   C2A 2792   6.600   8.805   8.597 -0.2044  0.1360 -0.1577
  175loPI   C3A 2793   6.593   8.853   8.203 -0.0708  0.1216 -0.0511
  175loPI   C4A 2794   6.310   9.020   7.876 -0.2497  0.0253  0.0711
  175loPI   C5A 2795   6.063   8.907   7.573 -0.4404 -0.1416 -0.5011
  175loPI   C6A 2796   5.975   8.523   7.378 -0.2431  0.2762  0.6192
  175loPI   C1B 2797   5.998   8.292   8.969 -0.3097 -0.1090 -0.1947
  175loPI   C2B 2798   5.799   8.181   8.509 -0.1842 -0.0060  0.2548
  175loPI   C3B 2799   5.950   7.924   8.108 -0.0916  0.0308 -0.1085
  175loPI   C4B 2800   6.075   7.670   7.758  0.1596  0.0095 -0.0896
  176loPI    C1 2801   1.822  10.813  10.011 -0.0895 -0.0147  0.0430
  176loPI    C2 2802   2.119  10.728  10.266  0.0506 -0.0491 -0.1290
  176loPI    C3 2803   2.017  11.109  10.196  0.0960 -0.0347 -0.1167
  176loPI   PO4 2804   1.851  10.692   9.751 -0.1727 -0.2959  0.2615
  176loPI   GL1 2805   1.921  10.826   9.329  0.1401  0.0456 -0.0170
  176loPI   GL2 2806   1.939  11.175   9.084  0.0493  0.0049  0.0707
  176loPI   C1A 2807   2.155  10.661   9.074  0.0234  0.1016 -0.1265
  176loPI   C2A 2808   2.387  10.318   8.939  0.1278 -0.4243  0.0420
  176loPI   C3A 2809   2.320  10.010   8.598 -0.0642  0.1158  0.0577
  176loPI   C4A 2810   2.259  10.029   8.144 -0.0355  0.3293  0.0710
  176loPI   C5A 2811   2.303   9.743   7.805  0.3537 -0.0833  0.2806
  176loPI   C6A 2812   2.232   9.534   7.486  0.2201 -0.0763 -0.1286
  176loPI   C1B 2813   2.181  11.083   8.604  0.1904 -0.0085 -0.2310
  176loPI   C2B 2814   2.279  11.017   8.200  0.0811 -0.0791  0.0577
  176loPI   C3B 2815   1.984  11.015   7.835  0.2009  0.1733  0.3831
  176loPI   C4B 2816   1.922  10.918   7.368  0.2751 -0.0207 -0.0266
  177loPI    C1 2817  14.507   6.305  10.240 -0.0061 -0.0912 -0.0168
  177loPI    C2 2818  14.797   6.573  10.302 -0.0047 -0.0749 -0.0926
  177loPI    C3 2819  14.666   6.346  10.605 -0.1604  0.1654  0.0241
  177loPI   PO4 2820  14.563   6.252   9.945 -0.1297 -0.0423  0.2898
  177loPI   GL1 2821  14.450   6.481   9.555  0.1308  0.2288  0.0911
  177loPI   GL2 2822  14.285   6.218   9.526  0.0785  0.1117 -0.2179
  177loPI   C1A 2823  14.515   6.675   9.178 -0.2413 -0.0111  0.1251
  177loPI   C2A 2824  14.344   6.752   8.802  0.2459 -0.2016  0.0392
  177loPI   C3A 2825  13.954   6.671   8.458  0.0268 -0.0280 -0.1123
  177loPI   C4A 2826  13.804   6.565   8.005  0.4045 -0.1319 -0.1207
  177loPI   C5A 2827  13.917   6.380   7.704  0.2767 -0.4361  0.0767
  177loPI   C6A 2828  14.219   6.328   7.469 -0.0558 -0.0659  0.0991
  177loPI   C1B 2829  14.475   6.188   9.123 -0.0627  0.0709 -0.0736
  177loPI   C2B 2830  14.325   6.273   8.692  0.1054  0.1583  0.0860
  177loPI   C3B 2831  14.411   6.358   8.334 -0.0175 -0.0336  0.2614
  177loPI   C4B 2832  14.330   6.505   7.915  0.0717  0.0518  0.3027
  178loPI    C1 2833   7.503   3.607   9.698  0.2749 -0.0034 -0.1700
  178loPI    C2 2834   7.512   3.981   9.555  0.2345 -0.0171 -0.2082
  178loPI    C3 2835   7.743   3.880   9.865  0.3766 -0.0063 -0.3093
  178loPI   PO4 2836   7.547   3.467   9.507 -0.0507 -0.3727 -0.1159
  178loPI   GL1 2837   7.783   3.345   9.099 -0.3032  0.2110 -0.0723
  178loPI   GL2 2838   7.483   3.159   9.090 -0.0928 -0.0450  0.0689
  178loPI   C1A 2839   7.942   3.216   8.712  0.2779  0.1767  0.1072
  178loPI   C2A 2840   7.964   3.190   8.220  0.0525 -0.1713  0.0759
  178loPI   C3A 2841   7.882   2.968   7.868  0.0394 -0.0642 -0.1163
  178loPI   C4A 2842   7.498   2.966   7.638 -0.1762 -0.0409  0.2812
  178loPI   C5A 2843   7.137   2.872   7.436 -0.1274  0.0222 -0.1813
  178loPI   C6A 2844   6.989   2.399   7.240 -0.1385  0.3794 -0.0876
  178loPI   C1B 2845   7.437   3.632   8.911 -0.1920  0.0999 -0.0240
  178loPI   C2B 2846   7.325   3.839   8.559  0.0773 -0.0287 -0.0760
  178loPI   C3B 2847   7.259   3.907   8.084  0.0067  0.0895 -0.1765
  178loPI   C4B 2848   7.148   3.995   7.702 -0.0476  0.1852  0.0338
  179loPI    C1 2849  17.225   2.745  10.301  0.0026 -0.0414  0.2868
  179loPI    C2 2850  17.438   3.023  10.495  0.0510  0.0853  0.0567
  179loPI    C3 2851  17.081   2.909  10.636  0.0340  0.2587  0.1569
  179loPI   PO4 2852  17.206   2.883  10.099  0.1997  0.0148  0.3859
  179loPI   GL1 2853  17.272   2.922   9.692  0.1620 -0.2345  0.1293
  179loPI   GL2 2854  17.163   2.600   9.572  0.0201 -0.0205  0.0383
  179loPI   C1A 2855  17.344   2.823   9.133 -0.0558  0.1326 -0.0598
  179loPI   C2A 2856  17.533   2.842   8.798 -0.4725  0.2758 -0.1213
  179loPI   C3A 2857  17.389   2.734   8.316 -0.0322  0.0371  0.0856
  179loPI   C4A 2858  17.482   2.789   7.836  0.0248  0.1723 -0.0884
  179loPI   C5A 2859  17.709   2.545   7.506 -0.1343 -0.0624  0.0319
  179loPI   C6A 2860  17.725   2.214   7.342 -0.0624 -0.2282  0.0838
  179loPI   C1B 2861  17.001   2.498   9.129 -0.2404  0.1823  0.2377
  179loPI   C2B 2862  17.016   2.637   8.753 -0.0079  0.1022 -0.1383
  179loPI   C3B 2863  16.879   2.863   8.410  0.1245 -0.0467 -0.1861
  179loPI   C4B 2864  16.864   2.742   8.026 -0.3741  0.1188 -0.1031
  180loPI    C1 2865   9.220   8.179  10.072  0.1052 -0.2598 -0.1159
  180loPI    C2 2866   9.410   8.400  10.346 -0.1421 -0.0962 -0.0735
  180loPI    C3 2867   9.304   8.024  10.431  0.0413 -0.1437 -0.0503
  180loPI   PO4 2868   9.344   8.372   9.849 -0.2043  0.2421  0.1505
  180loPI   GL1 2869   9.266   8.442   9.351  0.1560 -0.1561  0.2143
  180loPI   GL2 2870   9.486   8.729   9.524  0.0736 -0.1968  0.1261
  180loPI   C1A 2871   9.205   8.512   8.886 -0.0685  0.1720  0.2703
  180loPI   C2A 2872   9.189   8.631   8.414  0.4441 -0.2071  0.3067
  180loPI   C3A 2873   9.296   8.691   7.987 -0.0634 -0.1881  0.2523
  180loPI   C4A 2874   9.083   8.808   7.706 -0.0383  0.1363 -0.1365
  180loPI   C5A 2875   9.174   8.934   7.228  0.1616 -0.3595 -0.1717
  180loPI   C6A 2876   9.285   8.661   6.867  0.1369  0.0491  0.0483
  180loPI   C1B 2877   9.546   8.783   9.065 -0.0997  0.1575  0.2783
  180loPI   C2B 2878   9.687   8.630   8.583  0.0266  0.1395 -0.1855
  180loPI   C3B 2879   9.721   8.556   8.131 -0.3557 -0.2945 -0.0670
  180loPI   C4B 2880   9.822   8.317   7.839  0.0823  0.1361  0.4347
  181loPI    C1 2881   0.860  16.545   9.874 -0.1607 -0.0415  0.0933
  181loPI    C2 2882   0.746  16.869  10.079 -0.0327  0.0253  0.0591
  181loPI    C3 2883   0.883  16.548  10.273 -0.1232  0.0058  0.0908
  181loPI   PO4 2884   1.001  16.625   9.673  0.4080  0.1314  0.0343
  181loPI   GL1 2885   0.910  16.792   9.217  0.2833 -0.1159  0.1088
  181loPI   GL2 2886   0.704  16.668   9.006 -0.1406  0.0925  0.0681
  181loPI   C1A 2887   1.078  17.107   8.833  0.1742 -0.5624 -0.3444
  181loPI   C2A 2888   0.846  17.236   8.531 -0.1678  0.0578  0.2508
  181loPI   C3A 2889   0.853  17.351   8.103 -0.0494 -0.2102  0.2030
  181loPI   C4A 2890   0.918  17.329   7.697  0.2054 -0.0702 -0.2669
  181loPI   C5A 2891   0.779  17.089   7.484  0.1934 -0.0910  0.0896
  181loPI   C6A 2892   0.843  16.618   7.417 -0.0209 -0.1936  0.2156
  181loPI   C1B 2893   0.842  16.699   8.695 -0.2104  0.2000 -0.0860
  181loPI   C2B 2894   0.833  16.705   8.290 -0.3172 -0.1607  0.1441
  181loPI   C3B 2895   0.967  16.825   7.897  0.4473 -0.0975 -0.1303
  181loPI   C4B 2896   1.349  16.933   7.800  0.1530  0.1713  0.0328
  182loPI    C1 2897  18.506  11.432   9.716 -0.0430 -0.0033 -0.0450
  182loPI    C2 2898  18.695  11.644   9.997  0.4569 -0.0248 -0.3527
  182loPI    C3 2899  18.662  11.247  10.034  0.0039  0.0339 -0.0462
  182loPI   PO4 2900  18.579  11.498   9.528 -0.0749  0.0662 -0.1935
  182loPI   GL1 2901  18.541  11.629   9.149 -0.1402 -0.2010 -0.2480
  182loPI   GL2 2902  18.202  11.492   9.137  0.0233 -0.1838  0.1002
  182loPI   C1A 2903  18.656  11.415   8.815  0.0082 -0.4559 -0.2004
  182loPI   C2A 2904  18.928  11.359   8.371  0.1783 -0.0984 -0.2297
  182loPI   C3A 2905  18.878  11.417   7.872  0.0263 -0.3352 -0.0557
  182loPI   C4A 2906  18.967  11.291   7.383  0.0505 -0.1705 -0.1098
  182loPI   C5A 2907  18.792  10.875   7.473 -0.3074  0.0882  0.0303
  182loPI   C6A 2908  18.767  10.486   7.219 -0.0688 -0.2677 -0.1217
  182loPI   C1B 2909  18.107  11.261   8.752 -0.1330  0.0062  0.2494
  182loPI   C2B 2910  17.783  11.203   8.406  0.1219  0.0595 -0.1675
  182loPI   C3B 2911  17.652  11.457   8.002  0.1334 -0.1003 -0.1054
  182loPI   C4B 2912  17.540  11.310   7.629 -0.1106 -0.1514  0.1378
  183loPI    C1 2913  19.311   2.727  10.110  0.0474  0.1440  0.2589
  183loPI    C2 2914  19.308   2.369  10.288 -0.0270  0.0041 -0.0189
  183loPI    C3 2915  19.036   2.644  10.389 -0.0327 -0.0527  0.1232
  183loPI   PO4 2916  19.246   2.782   9.895  0.0114 -0.2925  0.1068
  183loPI   GL1 2917  19.316   2.960   9.536  0.0799  0.0540 -0.1126
  183loPI   GL2 2918  19.052   3.022   9.383  0.4052 -0.2741 -0.1939
  183loPI   C1A 2919  19.397   2.822   9.125  0.0880 -0.2374  0.0530
  183loPI   C2A 2920  19.303   2.798   8.694 -0.1878 -0.1096 -0.0755
  183loPI   C3A 2921  19.372   2.762   8.202 -0.3121  0.0606  0.2573
  183loPI   C4A 2922  19.437   2.625   7.771 -0.3562 -0.1614 -0.1259
  183loPI   C5A 2923  19.339   2.709   7.349 -0.1388 -0.0230  0.0744
  183loPI   C6A 2924  19.044   2.768   6.927  0.1476 -0.2956 -0.3143
  183loPI   C1B 2925  18.933   2.947   9.000  0.0390 -0.4192 -0.3341
  183loPI   C2B 2926  18.813   2.917   8.590  0.1551  0.3203  0.0255
  183loPI   C3B 2927  18.728   3.039   8.107  0.1748 -0.1094 -0.0537
  183loPI   C4B 2928  18.672   3.054   7.677 -0.0214 -0.2664  0.1533
  184loPI    C1 2929  19.449   8.022  10.050 -0.0794 -0.0127  0.0893
  184loPI    C2 2930  19.275   7.752  10.289  0.1219 -0.0919  0.1480
  184loPI    C3 2931  19.082   8.090  10.195 -0.1992 -0.3271 -0.0589
  184loPI   PO4 2932  19.562   7.869   9.818 -0.0613  0.0867 -0.1275
  184loPI   GL1 2933  19.567   7.974   9.327 -0.1498 -0.3378  0.4790
  184loPI   GL2 2934  19.988   8.000   9.244 -0.1976  0.0772 -0.2534
  184loPI   C1A 2935  19.534   7.928   8.878 -0.0552  0.0042  0.0111
  184loPI   C2A 2936  19.466   7.728   8.402  0.1243  0.0725 -0.0951
  184loPI   C3A 2937  19.214   7.815   8.042  0.4927 -0.0451  0.4267
  184loPI   C4A 2938  19.075   7.617   7.700  0.3070  0.0745  0.2632
  184loPI   C5A 2939  18.996   7.410   7.305  0.1638 -0.0827  0.3077
  184loPI   C6A 2940  19.089   7.572   6.850  0.1578 -0.0938 -0.1026
  184loPI   C1B 2941  20.031   7.893   8.911 -0.1659 -0.0923  0.0908
  184loPI   C2B 2942  19.943   7.933   8.511  0.3959  0.1377 -0.1199
  184loPI   C3B 2943  19.978   8.017   8.121  0.0634  0.0372  0.0110
  184loPI   C4B 2944  20.007   8.058   7.715 -0.1925  0.1014 -0.0562
  185loPI    C1 2945   6.497  10.450  10.180 -0.1414  0.4642 -0.0622
  185loPI    C2 2946   6.605  10.195  10.469 -0.0329  0.1734 -0.3514
  185loPI    C3 2947   6.343  10.488  10.547  0.0763  0.1676  0.0645
  185loPI   PO4 2948   6.380  10.291   9.899  0.0373 -0.0437 -0.1029
  185loPI   GL1 2949   6.557  10.314   9.451 -0.0389  0.1598  0.1231
  185loPI   GL2 2950   6.256  10.276   9.453 -0.1807  0.3386  0.1455
  185loPI   C1A 2951   6.844  10.124   9.105 -0.0318  0.0036 -0.1513
  185loPI   C2A 2952   6.985  10.098   8.696  0.1415 -0.1158 -0.0609
  185loPI   C3A 2953   7.068  10.013   8.331  0.2318 -0.1362  0.3346
  185loPI   C4A 2954   7.206  10.048   7.946 -0.0640 -0.1122 -0.0819
  185loPI   C5A 2955   6.922  10.060   7.518  0.3302 -0.4081 -0.1688
  185loPI   C6A 2956   6.781  10.112   7.111 -0.3561 -0.1163  0.0116
  185loPI   C1B 2957   6.259  10.306   8.933 -0.2710  0.0240 -0.0287
  185loPI   C2B 2958   6.499  10.263   8.616  0.4139 -0.3702  0.0513
  185loPI   C3B 2959   6.411  10.115   8.220 -0.0637 -0.3198  0.2563
  185loPI   C4B 2960   6.701  10.228   7.949 -0.0552  0.1539  0.0725
  186loPI    C1 2961  15.941   4.551   9.643  0.0692  0.3180  0.1861
  186loPI    C2 2962  16.084   4.235   9.843  0.0298  0.1340 -0.0715
  186loPI    C3 2963  15.833   4.489  10.024 -0.0264 -0.0444  0.1040
  186loPI   PO4 2964  15.888   4.437   9.411 -0.3142 -0.3553 -0.0189
  186loPI   GL1 2965  16.021   4.345   9.078 -0.1259  0.0744 -0.2050
  186loPI   GL2 2966  16.179   4.568   9.016 -0.1077 -0.0384 -0.1659
  186loPI   C1A 2967  15.903   3.903   8.898 -0.1698  0.2087 -0.1166
  186loPI   C2A 2968  15.965   3.641   8.565  0.2392  0.1569  0.0899
  186loPI   C3A 2969  16.329   3.561   8.332  0.2881 -0.2496  0.1570
  186loPI   C4A 2970  16.554   3.708   8.022 -0.0171 -0.2638 -0.0048
  186loPI   C5A 2971  16.769   3.695   7.759  0.1842 -0.2388 -0.0427
  186loPI   C6A 2972  17.153   3.454   7.557  0.0401 -0.0232  0.0008
  186loPI   C1B 2973  15.906   4.832   8.759  0.0741  0.0463  0.2677
  186loPI   C2B 2974  15.700   5.043   8.406  0.3961  0.3508 -0.1731
  186loPI   C3B 2975  15.708   4.808   7.966  0.0384 -0.3415  0.3226
  186loPI   C4B 2976  15.790   4.768   7.522  0.1174 -0.1208 -0.0383
  187loPI    C1 2977  11.130   4.762   9.517 -0.1990 -0.1563 -0.2467
  187loPI    C2 2978  11.079   4.743   9.913  0.0209  0.0723 -0.2045
  187loPI    C3 2979  11.047   5.094   9.724  0.0858 -0.0076 -0.3656
  187loPI   PO4 2980  11.525   4.683   9.485 -0.3288  0.2623  0.0560
  187loPI   GL1 2981  11.792   4.485   9.155  0.2773 -0.0261  0.3663
  187loPI   GL2 2982  11.876   4.079   9.201  0.1500  0.1901  0.1008
  187loPI   C1A 2983  11.746   4.597   8.747 -0.0137  0.0364 -0.3661
  187loPI   C2A 2984  11.805   4.633   8.370 -0.2556  0.1008  0.3584
  187loPI   C3A 2985  12.063   4.626   8.015 -0.1513  0.0936 -0.0085
  187loPI   C4A 2986  12.297   4.282   7.858  0.1259 -0.0191 -0.3669
  187loPI   C5A 2987  12.334   3.928   7.594 -0.1883  0.2200 -0.0858
  187loPI   C6A 2988  11.969   3.755   7.280  0.0406 -0.0066  0.1727
  187loPI   C1B 2989  12.001   4.029   8.777 -0.2271  0.3751  0.2662
  187loPI   C2B 2990  11.864   3.717   8.431  0.1171 -0.1270  0.3676
  187loPI   C3B 2991  11.601   3.721   8.061 -0.1158  0.0569 -0.2619
  187loPI   C4B 2992  11.543   3.570   7.683 -0.0344 -0.3514 -0.2752
  188loPI    C1 2993  10.256   1.765   9.942  0.2416 -0.1491  0.1115
  188loPI    C2 2994  10.213   2.106   9.737  0.0293 -0.2511 -0.0169
  188loPI    C3 2995  10.202   2.110  10.137  0.0570 -0.1041 -0.0173
  188loPI   PO4 2996  10.381   1.668   9.835 -0.2281  0.0802 -0.0311
  188loPI   GL1 2997  10.626   1.874   9.690  0.0913 -0.0391 -0.0109
  188loPI   GL2 2998  11.009   1.991   9.596  0.2523  0.1718 -0.1062
  188loPI   C1A 2999  10.446   1.949   9.241  0.1695  0.1210  0.1923
  188loPI   C2A 3000  10.470   2.033   8.729 -0.2811  0.2045 -0.0900
  188loPI   C3A 3001  10.705   2.082   8.327  0.0823  0.2872 -0.2880
  188loPI   C4A 3002  10.836   1.977   7.911  0.1426 -0.4455 -0.0338
  188loPI   C5A 3003  10.837   1.847   7.527 -0.0887 -0.0814  0.3591
  188loPI   C6A 3004  10.636   2.090   7.242 -0.2059  0.0476  0.2598
  188loPI   C1B 3005  10.961   1.893   9.136  0.1951  0.0714  0.1186
  188loPI   C2B 3006  10.953   1.531   8.858  0.1535  0.0283 -0.1164
  188loPI   C3B 3007  11.028   1.205   8.671 -0.0888 -0.1651  0.0612
  188loPI   C4B 3008  10.814   1.053   8.339 -0.0655 -0.0911 -0.1144
  189loPI    C1 3009  13.429   7.622  10.312 -0.0111 -0.0271 -0.0276
  189loPI    C2 3010  13.672   7.497  10.604  0.0286  0.2641  0.0670
  189loPI    C3 3011  13.771   7.816  10.383  0.0152  0.0270 -0.2907
  189loPI   PO4 3012  13.272   7.475  10.143  0.0172 -0.0757 -0.1726
  189loPI   GL1 3013  13.117   7.472   9.658 -0.1258  0.2339 -0.1169
  189loPI   GL2 3014  13.038   7.806   9.454  0.1386  0.1809  0.3492
  189loPI   C1A 3015  13.096   7.085   9.401 -0.0603 -0.3422 -0.0265
  189loPI   C2A 3016  13.067   6.904   8.966 -0.0764 -0.1794 -0.0435
  189loPI   C3A 3017  13.101   6.980   8.541  0.0748  0.0345  0.1121
  189loPI   C4A 3018  13.256   6.886   8.110  0.1984 -0.0321  0.1740
  189loPI   C5A 3019  13.336   6.865   7.651 -0.1056  0.2390 -0.0382
  189loPI   C6A 3020  13.554   6.612   7.472 -0.1490  0.2123  0.1677
  189loPI   C1B 3021  13.072   7.764   9.033  0.2337  0.1368 -0.0357
  189loPI   C2B 3022  13.156   7.574   8.704 -0.1435 -0.2585  0.1532
  189loPI   C3B 3023  13.251   7.420   8.316 -0.0167  0.4172  0.0787
  189loPI   C4B 3024  12.858   7.249   8.105 -0.0165 -0.2591 -0.1167
  190loPI    C1 3025   4.356   2.570  10.021 -0.0629 -0.0367  0.0246
  190loPI    C2 3026   4.583   2.722  10.314 -0.1416 -0.0550  0.0957
  190loPI    C3 3027   4.526   2.327  10.289  0.0035 -0.0682 -0.0458
  190loPI   PO4 3028   4.444   2.751   9.775  0.1172 -0.0115 -0.0871
  190loPI   GL1 3029   4.381   2.664   9.437 -0.0695 -0.1964 -0.1892
  190loPI   GL2 3030   4.561   2.355   9.363 -0.2297  0.0096 -0.0166
  190loPI   C1A 3031   4.075   2.551   9.175 -0.0568 -0.0147  0.2102
  190loPI   C2A 3032   4.101   2.632   8.758 -0.1423 -0.0837 -0.0586
  190loPI   C3A 3033   4.176   2.519   8.306 -0.2875  0.3211 -0.4985
  190loPI   C4A 3034   4.376   2.562   7.891  0.0868 -0.0988  0.1420
  190loPI   C5A 3035   4.713   2.492   7.522 -0.0331 -0.0591 -0.1454
  190loPI   C6A 3036   4.775   2.307   7.117 -0.1071  0.1873  0.1396
  190loPI   C1B 3037   4.641   2.061   9.097 -0.0141 -0.0053 -0.0649
  190loPI   C2B 3038   4.545   1.757   8.827  0.3925  0.0913  0.1275
  190loPI   C3B 3039   4.379   1.610   8.429 -0.2729 -0.2389 -0.2870
  190loPI   C4B 3040   4.007   1.598   8.262  0.0915 -0.2614  0.1483
  191loPI    C1 3041  17.132  12.069   9.575 -0.3190 -0.0723 -0.0020
  191loPI    C2 3042  17.057  11.808   9.869 -0.2395  0.1033  0.1760
  191loPI    C3 3043  16.937  12.188   9.903 -0.0905  0.1626  0.0517
  191loPI   PO4 3044  17.051  12.038   9.398  0.0942  0.2395  0.2588
  191loPI   GL1 3045  16.932  11.731   9.029 -0.1105 -0.2600 -0.2126
  191loPI   GL2 3046  16.761  11.459   8.910  0.1658 -0.0591  0.0373
  191loPI   C1A 3047  16.983  11.767   8.602 -0.2239 -0.1519 -0.1636
  191loPI   C2A 3048  16.820  11.832   8.302  0.2207 -0.0360  0.1551
  191loPI   C3A 3049  16.780  12.133   7.871  0.1634 -0.1131  0.2334
  191loPI   C4A 3050  16.412  12.452   7.868  0.0458 -0.1639 -0.0935
  191loPI   C5A 3051  16.102  12.478   7.597  0.0387  0.1323  0.0558
  191loPI   C6A 3052  15.839  12.576   7.279  0.2117 -0.2195 -0.2404
  191loPI   C1B 3053  16.750  11.315   8.515 -0.7016  0.1967 -0.1761
  191loPI   C2B 3054  16.799  11.363   8.082  0.0031 -0.3764 -0.1300
  191loPI   C3B 3055  17.038  11.595   7.788  0.1182 -0.0104 -0.1177
  191loPI   C4B 3056  16.939  11.893   7.431  0.0266 -0.0561 -0.1350
  192loPI    C1 3057   8.421  12.435   9.842 -0.0545 -0.3670  0.0405
  192loPI    C2 3058   8.237  12.572  10.170  0.0959 -0.2565  0.0792
  192loPI    C3 3059   8.576  12.362  10.203  0.1403 -0.1994 -0.0078
  192loPI   PO4 3060   8.256  12.397   9.639  0.2005  0.0675  0.0786
  192loPI   GL1 3061   8.104  12.520   9.217 -0.3140  0.0465  0.0175
  192loPI   GL2 3062   7.947  12.244   9.277  0.0485 -0.1808 -0.1900
  192loPI   C1A 3063   8.369  12.771   8.868 -0.0164 -0.0494  0.1514
  192loPI   C2A 3064   8.323  12.885   8.474 -0.1259 -0.2078 -0.2184
  192loPI   C3A 3065   8.504  12.813   8.091 -0.0911  0.1171 -0.1625
  192loPI   C4A 3066   8.482  12.733   7.684 -0.1748 -0.2200 -0.0152
  192loPI   C5A 3067   8.605  12.254   7.496  0.1352  0.1364 -0.2904
  192loPI   C6A 3068   8.876  12.220   7.135  0.1462 -0.0793  0.0374
  192loPI   C1B 3069   7.901  12.078   8.963  0.1497  0.0349 -0.2252
  192loPI   C2B 3070   7.655  12.190   8.622  0.0400  0.1885  0.3669
  192loPI   C3B 3071   7.205  12.164   8.472  0.0731 -0.0010 -0.0142
  192loPI   C4B 3072   6.883  12.035   8.139  0.1555  0.2286  0.3124
  193loPI    C1 3073   7.165  15.794  10.024 -0.1889 -0.1320  0.0450
  193loPI    C2 3074   7.480  16.018   9.921 -0.1858 -0.1601 -0.0064
  193loPI    C3 3075   7.263  16.115  10.243 -0.2847  0.0137 -0.1238
  193loPI   PO4 3076   7.024  15.764   9.741 -0.0120 -0.2008 -0.0370
  193loPI   GL1 3077   7.144  15.808   9.363  0.1090 -0.0374 -0.2038
  193loPI   GL2 3078   7.467  15.977   9.356  0.3382 -0.3258 -0.1461
  193loPI   C1A 3079   6.919  15.859   8.938 -0.3990 -0.1039  0.2465
  193loPI   C2A 3080   6.888  15.819   8.459 -0.0631  0.1709  0.2350
  193loPI   C3A 3081   6.821  15.856   8.071 -0.2318 -0.0956  0.1125
  193loPI   C4A 3082   6.817  15.903   7.614 -0.1664  0.1472 -0.0516
  193loPI   C5A 3083   6.890  16.249   7.321 -0.2278  0.0914 -0.0594
  193loPI   C6A 3084   6.736  16.392   6.913  0.0221 -0.1403 -0.0538
  193loPI   C1B 3085   7.257  16.201   9.083 -0.3707  0.0018 -0.2148
  193loPI   C2B 3086   7.125  16.565   8.809  0.1942  0.0359 -0.1773
  193loPI   C3B 3087   7.066  16.630   8.417  0.0504 -0.0100 -0.0900
  193loPI   C4B 3088   7.357  16.789   8.183  0.2623 -0.2713 -0.0874
  194loPI    C1 3089   9.130  17.551  10.096 -0.0990  0.1992  0.1354
  194loPI    C2 3090   8.923  17.622  10.431 -0.0651 -0.2339  0.2542
  194loPI    C3 3091   9.315  17.543  10.451 -0.0490 -0.1946  0.1048
  194loPI   PO4 3092   8.940  17.440   9.895  0.1931 -0.2120 -0.0230
  194loPI   GL1 3093   8.742  17.328   9.467  0.0017 -0.2158 -0.0645
  194loPI   GL2 3094   8.867  17.135   9.135  0.0702 -0.2074  0.0710
  194loPI   C1A 3095   8.547  17.550   9.048 -0.1580  0.0493 -0.0723
  194loPI   C2A 3096   8.487  17.892   8.839 -0.0231 -0.2787 -0.3249
  194loPI   C3A 3097   8.573  18.056   8.399  0.2265  0.1079 -0.1917
  194loPI   C4A 3098   8.502  17.971   8.086 -0.1312 -0.0989  0.0049
  194loPI   C5A 3099   8.670  17.987   7.722  0.0841  0.0691 -0.1496
  194loPI   C6A 3100   8.418  17.901   7.313 -0.1973 -0.0489  0.1013
  194loPI   C1B 3101   8.982  17.315   8.799 -0.2204 -0.1200 -0.1385
  194loPI   C2B 3102   9.097  17.330   8.411 -0.0342 -0.1723  0.1762
  194loPI   C3B 3103   9.105  17.416   7.960  0.2037  0.1609  0.1166
  194loPI   C4B 3104   9.211  17.600   7.571  0.0052  0.0366 -0.0655
  195loPI    C1 3105  19.028   8.676  10.102 -0.3978  0.2735 -0.0172
  195loPI    C2 3106  19.268   8.875  10.353 -0.1912  0.1370 -0.1044
  195loPI    C3 3107  19.011   8.604  10.495  0.1345 -0.1567 -0.0615
  195loPI   PO4 3108  19.189   8.612   9.899  0.0440  0.2876  0.1186
  195loPI   GL1 3109  19.251   8.676   9.421 -0.1280  0.0980  0.3970
  195loPI   GL2 3110  19.402   8.484   9.272  0.0287  0.1099  0.1529
  195loPI   C1A 3111  19.109   8.931   9.119 -0.2673  0.1282 -0.1577
  195loPI   C2A 3112  18.643   8.987   8.909  0.2130  0.0444 -0.2608
  195loPI   C3A 3113  18.443   8.899   8.528  0.2120 -0.1508 -0.2489
  195loPI   C4A 3114  18.147   8.909   8.087  0.2211  0.1627 -0.4740
  195loPI   C5A 3115  18.107   9.125   7.776 -0.0700  0.1466 -0.0723
  195loPI   C6A 3116  18.084   8.954   7.364 -0.0330 -0.0082 -0.2658
  195loPI   C1B 3117  19.447   8.405   8.885  0.2775 -0.1462 -0.2851
  195loPI   C2B 3118  19.468   8.274   8.533 -0.1170  0.1853 -0.2140
  195loPI   C3B 3119  19.200   8.252   8.210  0.2280  0.3703  0.0195
  195loPI   C4B 3120  18.898   8.122   7.870 -0.0095  0.0934  0.1376
  196loPI    C1 3121   4.905   9.845   9.914 -0.2538  0.0972  0.0121
  196loPI    C2 3122   4.835  10.077  10.232 -0.1599  0.1613 -0.0136
  196loPI    C3 3123   4.677   9.710  10.213 -0.1061  0.1293  0.1407
  196loPI   PO4 3124   4.845   9.964   9.696  0.3454  0.0900  0.0695
  196loPI   GL1 3125   5.290   9.933   9.501  0.0536 -0.0557 -0.1586
  196loPI   GL2 3126   5.599  10.041   9.577 -0.0583  0.3253 -0.0279
  196loPI   C1A 3127   5.423   9.903   9.015  0.0858  0.0763 -0.2875
  196loPI   C2A 3128   5.661   9.748   8.635  0.0915  0.3516 -0.0169
  196loPI   C3A 3129   5.717   9.802   8.219 -0.0423  0.0057  0.0830
  196loPI   C4A 3130   5.805   9.890   7.785  0.2772 -0.0102 -0.5236
  196loPI   C5A 3131   5.689   9.685   7.422  0.0525 -0.2534  0.1471
  196loPI   C6A 3132   5.839   9.389   7.069  0.2321 -0.2556 -0.4372
  196loPI   C1B 3133   5.723   9.644   9.323  0.1693 -0.0610  0.1493
  196loPI   C2B 3134   5.838   9.378   8.915  0.3828  0.1342 -0.0534
  196loPI   C3B 3135   5.871   9.317   8.437  0.0287 -0.1588 -0.1721
  196loPI   C4B 3136   5.931   9.063   8.152  0.0064 -0.0511 -0.2906
  197loPI    C1 3137   0.838   1.128  10.099 -0.0979  0.0752  0.2183
  197loPI    C2 3138   0.760   1.519  10.134 -0.0757  0.1172 -0.1591
  197loPI    C3 3139   1.006   1.340  10.394 -0.0426  0.3649 -0.0169
  197loPI   PO4 3140   0.617   1.034  10.030  0.0425  0.0673 -0.0909
  197loPI   GL1 3141   0.500   1.107   9.643 -0.3177 -0.2135  0.0481
  197loPI   GL2 3142   0.501   1.433   9.642  0.2753 -0.1744  0.1384
  197loPI   C1A 3143   0.494   1.152   9.229  0.1604  0.0205 -0.1034
  197loPI   C2A 3144   0.717   1.201   8.799 -0.0134 -0.1503 -0.3290
  197loPI   C3A 3145   0.630   1.038   8.414  0.0078  0.1500  0.1614
  197loPI   C4A 3146   0.599   0.826   8.148  0.1974  0.1194 -0.1616
  197loPI   C5A 3147   0.451   0.696   7.745 -0.1609  0.0312  0.0901
  197loPI   C6A 3148   0.586   0.512   7.393 -0.1175  0.2616 -0.0174
  197loPI   C1B 3149   0.558   1.603   9.168  0.0238 -0.2683 -0.0680
  197loPI   C2B 3150   0.577   1.709   8.801  0.0631  0.1885 -0.1837
  197loPI   C3B 3151   0.603   1.508   8.451  0.3810  0.0182  0.2416
  197loPI   C4B 3152   0.611   1.522   7.934 -0.1129 -0.1163  0.2446
  198loPI    C1 3153   0.783  12.319   9.495  0.0510  0.1757  0.0401
  198loPI    C2 3154   1.056  12.180   9.752 -0.3470 -0.2086  0.2703
  198loPI    C3 3155   0.978  12.572   9.736  0.4655 -0.0403 -0.0598
  198loPI   PO4 3156   0.819  12.123   9.266  0.1849  0.1091  0.0746
  198loPI   GL1 3157   0.514  12.050   9.005  0.2101  0.0832 -0.1186
  198loPI   GL2 3158   0.439  12.116   8.694  0.4707  0.0778  0.0405
  198loPI   C1A 3159   0.793  11.704   8.797  0.3689 -0.2691  0.0903
  198loPI   C2A 3160   0.829  11.676   8.397 -0.0296  0.1393  0.0962
  198loPI   C3A 3161   1.010  11.596   7.877  0.0838  0.1837 -0.1747
  198loPI   C4A 3162   1.027  11.651   7.496 -0.1225 -0.2090 -0.2748
  198loPI   C5A 3163   1.349  11.509   7.209  0.2086 -0.0907 -0.0975
  198loPI   C6A 3164   1.587  11.459   6.858  0.0239  0.0005  0.1437
  198loPI   C1B 3165   0.595  12.086   8.256  0.0468  0.2156 -0.2373
  198loPI   C2B 3166   0.713  12.057   7.807  0.1085  0.1071  0.2566
  198loPI   C3B 3167   0.929  12.097   7.439 -0.0312 -0.0416  0.3067
  198loPI   C4B 3168   1.184  12.433   7.165  0.0111  0.1167  0.2760
  199loPI    C1 3169   3.627  14.822   9.892 -0.2029  0.0525 -0.3597
  199loPI    C2 3170   3.494  15.198   9.878  0.1603  0.2059  0.0739
  199loPI    C3 3171   3.769  15.094  10.148  0.1880 -0.3355 -0.1519
  199loPI   PO4 3172   3.587  14.679   9.616  0.0273 -0.0697  0.0572
  199loPI   GL1 3173   3.790  14.867   9.314 -0.0058 -0.0238  0.0949
  199loPI   GL2 3174   3.555  14.756   9.120 -0.1858  0.0963  0.2462
  199loPI   C1A 3175   3.870  15.108   8.894 -0.3256 -0.3146 -0.1413
  199loPI   C2A 3176   4.113  15.075   8.499 -0.4101 -0.1768  0.0389
  199loPI   C3A 3177   3.998  15.007   8.118  0.0649 -0.0698  0.1772
  199loPI   C4A 3178   3.921  15.378   7.743  0.1964 -0.1733 -0.2302
  199loPI   C5A 3179   3.685  15.306   7.392  0.1368  0.1150 -0.3277
  199loPI   C6A 3180   3.660  15.360   6.971  0.3133 -0.1706 -0.1415
  199loPI   C1B 3181   3.336  15.119   8.875  0.0531 -0.4503 -0.0692
  199loPI   C2B 3182   2.871  15.062   8.887  0.0971 -0.0467 -0.3996
  199loPI   C3B 3183   2.625  15.164   8.464  0.0639 -0.0796 -0.0582
  199loPI   C4B 3184   2.496  15.040   8.012 -0.0141  0.2334 -0.0226
  200loPI    C1 3185  18.400  18.206   9.936  0.0176  0.0837 -0.2866
  200loPI    C2 3186  18.171  18.332  10.239  0.2054  0.0748 -0.1389
  200loPI    C3 3187  18.252  17.942  10.197  0.3228  0.0942 -0.0977
  200loPI   PO4 3188  18.483  18.335   9.630  0.0735 -0.1796 -0.1095
  200loPI   GL1 3189  18.539  18.248   9.262  0.1192  0.0261 -0.2269
  200loPI   GL2 3190  18.586  18.582   9.198 -0.0064 -0.1039  0.0265
  200loPI   C1A 3191  18.637  18.238   8.808 -0.1115 -0.2231 -0.1056
  200loPI   C2A 3192  18.804  18.271   8.349 -0.2307  0.1003  0.1441
  200loPI   C3A 3193  18.953  18.117   8.081  0.0306  0.1228 -0.1028
  200loPI   C4A 3194  19.084  18.028   7.672  0.4424  0.5011 -0.0499
  200loPI   C5A 3195  19.317  18.065   7.339  0.0308 -0.2343  0.4832
  200loPI   C6A 3196  19.577  17.792   7.099  0.1904  0.1202  0.0225
  200loPI   C1B 3197  18.668  18.803   8.830  0.1239  0.2529  0.1746
  200loPI   C2B 3198  18.299  19.073   8.625  0.1987 -0.0776  0.1390
  200loPI   C3B 3199  18.098  18.969   8.305 -0.0627 -0.0124  0.1548
  200loPI   C4B 3200  17.795  18.898   7.971 -0.0547 -0.1078 -0.2146
  201loPI    C1 3201   8.578  12.881   9.553  0.0942  0.0983 -0.0735
  201loPI    C2 3202   8.812  13.139   9.750  0.1695 -0.1208  0.1289
  201loPI    C3 3203   8.520  12.946   9.944 -0.0652  0.0151 -0.0824
  201loPI   PO4 3204   8.698  12.692   9.515  0.2415  0.1481 -0.2301
  201loPI   GL1 3205   8.813  12.490   9.145  0.2144  0.0775 -0.1005
  201loPI   GL2 3206   8.581  12.232   9.256 -0.0919  0.2940 -0.5411
  201loPI   C1A 3207   9.054  12.382   8.749  0.1707 -0.0813 -0.1045
  201loPI   C2A 3208   9.352  12.227   8.503 -0.2178  0.0454 -0.0193
  201loPI   C3A 3209   9.471  12.195   8.032  0.1402  0.0587 -0.1172
  201loPI   C4A 3210   9.749  12.238   7.593  0.0525  0.1893 -0.1102
  201loPI   C5A 3211   9.619  12.528   7.215 -0.1449  0.0704  0.0180
  201loPI   C6A 3212   9.213  12.536   6.990 -0.0422 -0.1511 -0.2281
  201loPI   C1B 3213   8.385  12.272   8.824 -0.0374 -0.0356 -0.1326
  201loPI   C2B 3214   8.320  12.377   8.401 -0.2859 -0.3827  0.3063
  201loPI   C3B 3215   8.164  12.403   7.949 -0.1766 -0.1667 -0.0209
  201loPI   C4B 3216   8.150  12.436   7.494  0.0187 -0.0336  0.0737
  202loPI    C1 3217   1.335  14.968   9.715 -0.2754 -0.2964  0.1808
  202loPI    C2 3218   1.092  15.285   9.718 -0.0554 -0.1170 -0.1955
  202loPI    C3 3219   1.401  15.269   9.971 -0.2540 -0.1860  0.0471
  202loPI   PO4 3220   1.455  14.932   9.447 -0.2449  0.0280 -0.1105
  202loPI   GL1 3221   1.458  14.909   8.991  0.0072 -0.2591  0.1924
  202loPI   GL2 3222   1.832  14.785   8.940  0.1652 -0.1080 -0.2153
  202loPI   C1A 3223   1.530  14.872   8.505 -0.1135  0.1582  0.2076
  202loPI   C2A 3224   1.515  15.065   8.193  0.2156  0.2869 -0.0567
  202loPI   C3A 3225   1.786  15.148   7.828  0.0718 -0.0277 -0.1222
  202loPI   C4A 3226   1.824  15.161   7.417 -0.0599  0.1729 -0.1127
  202loPI   C5A 3227   1.869  15.014   7.009 -0.4922  0.1316 -0.0942
  202loPI   C6A 3228   1.971  14.760   6.625 -0.0352  0.2880  0.2119
  202loPI   C1B 3229   2.093  14.864   8.635  0.0285 -0.0526  0.0265
  202loPI   C2B 3230   2.001  14.836   8.283 -0.0607 -0.1689  0.1940
  202loPI   C3B 3231   2.028  14.774   7.734 -0.0402 -0.0016 -0.0483
  202loPI   C4B 3232   2.174  14.772   7.302  0.1700 -0.1191 -0.0449
  203loPI    C1 3233   2.983   0.717   9.805  0.0010  0.3182  0.1764
  203loPI    C2 3234   2.825   0.501  10.102  0.1422  0.0768  0.0783
  203loPI    C3 3235   3.002   0.850  10.182  0.0412  0.0880  0.2570
  203loPI   PO4 3236   3.151   0.598   9.666  0.1030 -0.1148 -0.0594
  203loPI   GL1 3237   2.915   0.523   9.350 -0.0562 -0.1868  0.2228
  203loPI   GL2 3238   2.611   0.616   9.267  0.0258  0.1661 -0.0992
  203loPI   C1A 3239   2.929   0.678   8.837  0.1198  0.1195  0.0960
  203loPI   C2A 3240   2.770   0.983   8.686  0.1014 -0.4699 -0.1725
  203loPI   C3A 3241   2.622   1.011   8.240  0.2164  0.2147  0.2291
  203loPI   C4A 3242   2.645   1.085   7.858 -0.6058  0.1271 -0.1843
  203loPI   C5A 3243   2.876   1.235   7.518  0.0523 -0.2808 -0.2267
  203loPI   C6A 3244   3.166   1.230   7.160  0.1407  0.0121 -0.1167
  203loPI   C1B 3245   2.373   0.633   8.882  0.0747  0.0571 -0.2222
  203loPI   C2B 3246   2.543   0.533   8.459 -0.0920 -0.1188 -0.0588
  203loPI   C3B 3247   2.722   0.594   8.017 -0.0562 -0.0303  0.2421
  203loPI   C4B 3248   2.657   0.703   7.569 -0.2750  0.2983  0.3833
  204loPI    C1 3249   3.197  18.866   9.985  0.0300  0.1115 -0.1138
  204loPI    C2 3250   3.516  18.854  10.225  0.0939  0.1763 -0.1945
  204loPI    C3 3251   3.190  19.058  10.336 -0.0554 -0.1834  0.0489
  204loPI   PO4 3252   3.257  18.891   9.769 -0.0224  0.0119  0.1222
  204loPI   GL1 3253   3.544  19.077   9.454  0.0263 -0.0391 -0.0965
  204loPI   GL2 3254   3.459  18.825   9.237 -0.1430  0.3828 -0.1544
  204loPI   C1A 3255   3.534  19.272   8.994 -0.1153 -0.0802 -0.0090
  204loPI   C2A 3256   3.680  19.364   8.529  0.0959 -0.1233 -0.0284
  204loPI   C3A 3257   3.828  19.517   8.115  0.2365  0.0904 -0.1654
  204loPI   C4A 3258   4.232  19.520   7.927  0.0679 -0.1386 -0.2915
  204loPI   C5A 3259   4.492  19.483   7.558 -0.3106  0.1383 -0.0208
  204loPI   C6A 3260   4.741  19.254   7.293  0.0161 -0.1425  0.1467
  204loPI   C1B 3261   3.482  18.744   8.783  0.0339 -0.1466  0.0104
  204loPI   C2B 3262   3.584  18.913   8.395 -0.2135  0.0093 -0.2811
  204loPI   C3B 3263   3.593  19.064   7.978  0.0537  0.3888 -0.1221
  204loPI   C4B 3264   4.030  19.147   7.705 -0.3463  0.1022  0.1953
  205loPI    C1 3265   4.006   9.858   9.782  0.2227  0.0764  0.3050
  205loPI    C2 3266   3.686   9.870  10.022 -0.0187  0.2872 -0.0175
  205loPI    C3 3267   3.896   9.531   9.985 -0.1294  0.1810  0.2900
  205loPI   PO4 3268   3.994   9.941   9.584  0.0574  0.1392  0.2991
  205loPI   GL1 3269   4.265  10.093   9.281  0.2100 -0.1390 -0.0232
  205loPI   GL2 3270   4.530   9.956   9.284 -0.2566 -0.3033 -0.3078
  205loPI   C1A 3271   4.086  10.206   8.972 -0.3629 -0.1492 -0.1302
  205loPI   C2A 3272   3.976  10.317   8.581  0.0186  0.3590 -0.0538
  205loPI   C3A 3273   3.944  10.328   8.190  0.1849 -0.0643 -0.2245
  205loPI   C4A 3274   3.809  10.488   7.829  0.1109  0.1014 -0.1675
  205loPI   C5A 3275   3.957  10.656   7.458 -0.1395  0.3207 -0.3148
  205loPI   C6A 3276   4.254  10.395   7.148 -0.3965  0.0056  0.0325
  205loPI   C1B 3277   4.401   9.869   8.816  0.0268  0.0696 -0.1451
  205loPI   C2B 3278   4.431  10.019   8.426 -0.0269 -0.2914 -0.4375
  205loPI   C3B 3279   4.497  10.288   8.082  0.1597 -0.0531  0.0438
  205loPI   C4B 3280   4.224  10.286   7.713  0.0027 -0.2660 -0.1752
  206loPI    C1 3281   5.929   4.536   9.896  0.2371 -0.0320 -0.2061
  206loPI    C2 3282   6.233   4.508  10.155  0.1856  0.0452 -0.1367
  206loPI    C3 3283   5.896   4.302  10.219  0.1859  0.0374 -0.1605
  206loPI   PO4 3284   6.018   4.373   9.692 -0.3088 -0.1110  0.3668
  206loPI   GL1 3285   5.973   4.223   9.332  0.0478  0.3017  0.0992
  206loPI   GL2 3286   5.754   4.436   9.238 -0.1554 -0.1961  0.0981
  206loPI   C1A 3287   5.946   4.108   8.963 -0.2946  0.3102  0.0318
  206loPI   C2A 3288   5.753   4.090   8.566 -0.0893 -0.1458 -0.2577
  206loPI   C3A 3289   5.805   4.016   8.193  0.1397  0.0244 -0.1276
  206loPI   C4A 3290   5.768   3.833   7.797 -0.0625 -0.3423 -0.0141
  206loPI   C5A 3291   5.631   4.068   7.421 -0.1701 -0.2921 -0.0224
  206loPI   C6A 3292   5.972   4.181   7.163  0.0248  0.3859  0.1271
  206loPI   C1B 3293   5.624   4.511   8.786  0.3498  0.0435 -0.0068
  206loPI   C2B 3294   5.322   4.502   8.538 -0.2104 -0.0738  0.2283
  206loPI   C3B 3295   5.288   4.244   8.261 -0.3553 -0.0966  0.0166
  206loPI   C4B 3296   5.277   4.037   7.906 -0.0837  0.3049  0.0654
  207loPI    C1 3297  16.896   3.706   9.831  0.3106  0.0833  0.2250
  207loPI    C2 3298  16.761   4.023  10.034 -0.1724 -0.0718  0.1599
  207loPI    C3 3299  16.676   3.653  10.161 -0.2714 -0.1712 -0.1863
  207loPI   PO4 3300  17.198   3.774   9.923 -0.0975 -0.1650 -0.3123
  207loPI   GL1 3301  17.472   3.885   9.604 -0.0109  0.1033 -0.4618
  207loPI   GL2 3302  17.247   3.839   9.397  0.4365 -0.2236  0.1397
  207loPI   C1A 3303  17.696   3.942   9.230 -0.2497 -0.2150 -0.1716
  207loPI   C2A 3304  17.784   3.806   8.842  0.0851 -0.0537 -0.1586
  207loPI   C3A 3305  17.583   3.672   8.447  0.0635  0.1978 -0.2453
  207loPI   C4A 3306  17.323   3.623   8.080 -0.1252 -0.0816  0.2586
  207loPI   C5A 3307  17.139   3.322   8.051  0.1908  0.0611 -0.0156
  207loPI   C6A 3308  16.729   3.223   7.934 -0.2945 -0.2172 -0.0953
  207loPI   C1B 3309  17.174   3.299   9.349 -0.1926 -0.0789  0.2826
  207loPI   C2B 3310  16.781   3.064   9.161 -0.0722  0.1325 -0.0578
  207loPI   C3B 3311  16.570   2.846   8.819  0.1056  0.1105  0.3262
  207loPI   C4B 3312  16.508   2.532   8.519  0.0387 -0.0284  0.0543
  208loPI    C1 3313   1.857  13.993   9.580  0.1926  0.1577 -0.0826
  208loPI    C2 3314   1.956  13.840   9.937 -0.0040 -0.1449 -0.1545
  208loPI    C3 3315   1.800  14.208   9.913 -0.0054 -0.1297  0.0728
  208loPI   PO4 3316   1.690  13.768   9.433 -0.2266  0.0964  0.0973
  208loPI   GL1 3317   1.979  13.584   9.156  0.0463  0.1147  0.0960
  208loPI   GL2 3318   1.880  13.736   8.881  0.1136 -0.0527 -0.1976
  208loPI   C1A 3319   2.159  13.209   8.793  0.1740  0.0534 -0.1313
  208loPI   C2A 3320   1.858  13.027   8.610 -0.1758 -0.0561 -0.0571
  208loPI   C3A 3321   1.788  12.787   8.265 -0.1488  0.0868 -0.1067
  208loPI   C4A 3322   1.747  12.808   7.872  0.1146  0.0820 -0.0161
  208loPI   C5A 3323   1.703  12.436   7.561  0.1820 -0.4769  0.1267
  208loPI   C6A 3324   1.877  12.243   7.159  0.1460 -0.0667  0.3437
  208loPI   C1B 3325   1.782  13.930   8.536 -0.0277 -0.0956 -0.2607
  208loPI   C2B 3326   1.757  13.901   8.077 -0.0076 -0.1294 -0.0070
  208loPI   C3B 3327   1.771  13.941   7.605 -0.0840  0.0835  0.0099
  208loPI   C4B 3328   1.557  14.029   7.207 -0.1467 -0.1257  0.1557
  209loPI    C1 3329  12.035   0.323  10.125 -0.1814  0.1342 -0.0120
  209loPI    C2 3330  12.214   0.559  10.394 -0.2320 -0.0104  0.1508
  209loPI    C3 3331  11.951   0.282  10.514  0.0277 -0.3338 -0.0093
  209loPI   PO4 3332  11.916   0.492   9.946 -0.0919 -0.0890  0.0472
  209loPI   GL1 3333  11.826   0.508   9.524  0.0920 -0.1502 -0.0148
  209loPI   GL2 3334  11.686   0.664   9.297 -0.0602 -0.2291  0.0617
  209loPI   C1A 3335  12.022   0.324   9.222  0.2064  0.0008 -0.0712
  209loPI   C2A 3336  12.316   0.420   8.867  0.1524 -0.0667 -0.1254
  209loPI   C3A 3337  12.439   0.473   8.473 -0.1138 -0.1698 -0.1384
  209loPI   C4A 3338  12.272   0.616   8.177 -0.1049 -0.3203  0.0803
  209loPI   C5A 3339  12.100   0.432   7.774  0.0929 -0.0771  0.2143
  209loPI   C6A 3340  11.898   0.756   7.528 -0.2006  0.0058  0.1283
  209loPI   C1B 3341  11.532   0.455   8.915  0.1416  0.1992 -0.0096
  209loPI   C2B 3342  11.447   0.358   8.492  0.1897 -0.0227 -0.1828
  209loPI   C3B 3343  11.512   0.241   8.116 -0.3146  0.1770 -0.1328
  209loPI   C4B 3344  11.316  -0.150   7.861  0.0098 -0.2152 -0.3738
  210loPI    C1 3345   9.430  10.662  10.214  0.3624  0.1084  0.2097
  210loPI    C2 3346   9.642  10.837  10.505  0.0464  0.2861  0.3382
  210loPI    C3 3347   9.293  10.661  10.590  0.0400  0.1770  0.0959
  210loPI   PO4 3348   9.404  10.814  10.019 -0.0841  0.1046  0.2497
  210loPI   GL1 3349   9.318  10.733   9.635 -0.0433  0.1263  0.0589
  210loPI   GL2 3350   9.623  10.551   9.624 -0.1834 -0.0729 -0.0146
  210loPI   C1A 3351   9.532  10.759   9.211 -0.0633  0.1585 -0.3037
  210loPI   C2A 3352   9.473  10.949   8.838 -0.0186 -0.3044  0.1847
  210loPI   C3A 3353   9.365  11.188   8.448  0.0328  0.1043  0.1160
  210loPI   C4A 3354   9.340  11.287   8.037 -0.1149 -0.1352 -0.0010
  210loPI   C5A 3355   9.136  11.447   7.696 -0.0245  0.0356  0.0332
  210loPI   C6A 3356   8.859  11.784   7.397 -0.0064 -0.1318  0.2055
  210loPI   C1B 3357   9.326  10.274   9.316  0.0886 -0.2371 -0.0195
  210loPI   C2B 3358   9.308   9.854   9.140 -0.1504 -0.0984  0.0120
  210loPI   C3B 3359   9.376   9.678   8.777 -0.1430  0.0134 -0.4535
  210loPI   C4B 3360   9.456   9.626   8.326 -0.0995 -0.2785  0.1245
  211loPI    C1 3361   3.373  18.344   9.775  0.1603 -0.0142 -0.1544
  211loPI    C2 3362   3.016  18.374   9.952  0.0525 -0.1218 -0.3508
  211loPI    C3 3363   3.349  18.373  10.173 -0.0674 -0.0131 -0.1672
  211loPI   PO4 3364   3.326  18.470   9.551  0.0661 -0.0502  0.2989
  211loPI   GL1 3365   3.168  18.366   9.099 -0.0740  0.1150  0.3259
  211loPI   GL2 3366   2.861  18.527   9.185 -0.1197 -0.2320 -0.3856
  211loPI   C1A 3367   3.234  18.299   8.746 -0.1366 -0.0791 -0.2573
  211loPI   C2A 3368   3.270  18.468   8.392 -0.1653 -0.2906 -0.0238
  211loPI   C3A 3369   3.182  18.653   8.063  0.1451 -0.1825 -0.1584
  211loPI   C4A 3370   3.397  18.602   7.680  0.0730 -0.2219 -0.1634
  211loPI   C5A 3371   3.425  18.585   7.266  0.3144  0.1254 -0.0331
  211loPI   C6A 3372   3.473  18.618   6.921 -0.0238 -0.2189  0.0826
  211loPI   C1B 3373   2.765  18.476   8.791  0.0326  0.2095 -0.1493
  211loPI   C2B 3374   2.772  18.419   8.338  0.1528 -0.0202  0.0483
  211loPI   C3B 3375   2.601  18.301   7.964  0.3098  0.0966 -0.1090
  211loPI   C4B 3376   2.478  18.242   7.546 -0.1532 -0.0820 -0.1526
  212loPI    C1 3377   9.636   2.467  10.143  0.1137  0.1045 -0.0568
  212loPI    C2 3378   9.468   2.808  10.019 -0.0255  0.0816  0.0660
  212loPI    C3 3379   9.252   2.471  10.031  0.1006 -0.0030 -0.0177
  212loPI   PO4 3380   9.846   2.462  10.004 -0.1831 -0.0072 -0.0936
  212loPI   GL1 3381   9.907   2.551   9.556 -0.1167  0.0405  0.0583
  212loPI   GL2 3382  10.019   2.727   9.278 -0.0590  0.1222  0.0986
  212loPI   C1A 3383   9.973   2.198   9.268  0.2337 -0.0293  0.1234
  212loPI   C2A 3384   9.979   2.158   8.827  0.0924 -0.0995  0.0562
  212loPI   C3A 3385   9.957   2.139   8.515 -0.1258  0.1117  0.0309
  212loPI   C4A 3386  10.142   2.201   8.210 -0.3634 -0.1248  0.1309
  212loPI   C5A 3387   9.860   2.040   7.885  0.1475 -0.2394 -0.2136
  212loPI   C6A 3388   9.949   2.035   7.401  0.0276 -0.0985  0.1142
  212loPI   C1B 3389   9.813   2.820   8.926 -0.3005 -0.0797 -0.1940
  212loPI   C2B 3390   9.724   2.567   8.531  0.0216  0.1545 -0.1514
  212loPI   C3B 3391   9.707   2.415   8.166 -0.0508 -0.5307 -0.0502
  212loPI   C4B 3392   9.805   2.565   7.777  0.1113  0.2101  0.0424
  213loPI    C1 3393  17.641   7.702   9.833  0.1741  0.0426  0.0005
  213loPI    C2 3394  17.441   8.048   9.839 -0.1411 -0.1383  0.1580
  213loPI    C3 3395  17.568   7.884  10.181 -0.0478 -0.2103  0.0894
  213loPI   PO4 3396  17.819   7.810   9.584  0.0231  0.1799  0.0020
  213loPI   GL1 3397  17.803   7.946   9.180 -0.0206 -0.1336  0.0654
  213loPI   GL2 3398  18.140   7.745   9.135  0.1885  0.1098 -0.3455
  213loPI   C1A 3399  17.646   7.748   8.890 -0.0496  0.0673 -0.0156
  213loPI   C2A 3400  17.727   7.655   8.457 -0.1672  0.3141 -0.0455
  213loPI   C3A 3401  17.631   7.689   8.033  0.0318 -0.0351  0.0651
  213loPI   C4A 3402  17.325   7.676   7.710 -0.2130  0.1981  0.2198
  213loPI   C5A 3403  16.928   7.625   7.577  0.1636  0.1002  0.1291
  213loPI   C6A 3404  16.534   7.781   7.607  0.1459 -0.0696 -0.0244
  213loPI   C1B 3405  18.551   7.490   8.939  0.2072 -0.2225 -0.1773
  213loPI   C2B 3406  18.596   7.307   8.490 -0.0425 -0.0563 -0.1640
  213loPI   C3B 3407  18.461   7.148   8.088  0.0542 -0.2429  0.0827
  213loPI   C4B 3408  18.293   7.111   7.700 -0.0572 -0.0649  0.1209
  214loPI    C1 3409  14.434   9.788   9.999  0.1499  0.0015  0.0070
  214loPI    C2 3410  14.244   9.992  10.286  0.0516 -0.0694 -0.0072
  214loPI    C3 3411  14.454   9.665  10.379 -0.0866 -0.1667 -0.0324
  214loPI   PO4 3412  14.253   9.847   9.755 -0.2757  0.1575 -0.1070
  214loPI   GL1 3413  14.197   9.578   9.489 -0.2415 -0.3201 -0.1121
  214loPI   GL2 3414  14.019   9.312   9.503 -0.3194  0.1778  0.2755
  214loPI   C1A 3415  14.091   9.739   9.052 -0.0486 -0.0893  0.0405
  214loPI   C2A 3416  14.099   9.848   8.588 -0.0896 -0.1027 -0.0558
  214loPI   C3A 3417  14.124  10.032   8.217 -0.2566 -0.0471  0.0346
  214loPI   C4A 3418  14.016  10.243   7.816  0.0023 -0.0051  0.2229
  214loPI   C5A 3419  14.050  10.628   7.693 -0.3832 -0.1150  0.1366
  214loPI   C6A 3420  13.986  10.807   7.346  0.1862  0.2812  0.0721
  214loPI   C1B 3421  13.817   9.367   9.150  0.0870  0.0567 -0.0202
  214loPI   C2B 3422  13.882   9.404   8.701 -0.0225 -0.1575  0.0919
  214loPI   C3B 3423  13.931   9.534   8.204  0.1470 -0.1110  0.0120
  214loPI   C4B 3424  14.057   9.573   7.767 -0.0592  0.2764 -0.0014
  215loPI    C1 3425   8.982  19.228   9.751 -0.1167 -0.0929  0.2407
  215loPI    C2 3426   9.270  19.484   9.642 -0.3491  0.0772  0.0140
  215loPI    C3 3427   9.356  19.178   9.885  0.0165  0.1367 -0.0344
  215loPI   PO4 3428   8.873  19.090   9.594 -0.0109 -0.0416  0.0600
  215loPI   GL1 3429   9.155  19.086   9.280 -0.1965 -0.1071 -0.1614
  215loPI   GL2 3430   9.049  19.490   9.202 -0.1215  0.1699  0.1060
  215loPI   C1A 3431   9.007  18.849   8.910 -0.1869 -0.4308 -0.1499
  215loPI   C2A 3432   9.074  18.813   8.457 -0.0007  0.1741  0.2079
  215loPI   C3A 3433   9.070  18.910   8.015  0.1170  0.0829  0.1281
  215loPI   C4A 3434   9.239  19.049   7.560 -0.1278 -0.1363 -0.1348
  215loPI   C5A 3435   8.996  19.164   7.268  0.1430 -0.0238  0.2915
  215loPI   C6A 3436   8.874  19.496   7.016  0.1562 -0.0374 -0.1798
  215loPI   C1B 3437   9.244  19.316   8.769  0.0643 -0.1498 -0.1369
  215loPI   C2B 3438   9.390  19.174   8.385  0.0926 -0.0919  0.0540
  215loPI   C3B 3439   9.548  19.203   7.942  0.0257  0.1441 -0.0325
  215loPI   C4B 3440   9.658  19.361   7.557 -0.1049  0.0763 -0.2545
  216loPI    C1 3441  12.200  14.200   9.561 -0.1636 -0.0580  0.0504
  216loPI    C2 3442  11.993  14.405   9.287 -0.2728 -0.4178 -0.1440
  216loPI    C3 3443  11.825  14.315   9.639 -0.0761  0.1865  0.1182
  216loPI   PO4 3444  12.357  14.018   9.365  0.0492  0.0389 -0.0371
  216loPI   GL1 3445  12.268  14.111   8.871  0.0253 -0.2171  0.1153
  216loPI   GL2 3446  12.599  13.936   8.917 -0.1490 -0.1340  0.0933
  216loPI   C1A 3447  12.238  14.357   8.493  0.0197 -0.1535 -0.2197
  216loPI   C2A 3448  12.250  14.344   8.086  0.1596 -0.0789 -0.0815
  216loPI   C3A 3449  12.121  14.277   7.710  0.1833 -0.2306 -0.2470
  216loPI   C4A 3450  11.941  14.352   7.288 -0.0639 -0.2779  0.1577
  216loPI   C5A 3451  11.964  14.532   6.916  0.2177 -0.1789 -0.1327
  216loPI   C6A 3452  12.012  14.913   6.617  0.0083  0.1551  0.1558
  216loPI   C1B 3453  12.690  13.983   8.455 -0.2262 -0.1157  0.1398
  216loPI   C2B 3454  12.725  13.928   8.027 -0.0111  0.1056  0.1080
  216loPI   C3B 3455  12.654  14.013   7.719  0.2588  0.1769 -0.0128
  216loPI   C4B 3456  12.362  13.992   7.431 -0.0008  0.1239 -0.0002
  217loPI    C1 3457  19.422  16.120   9.620  0.1556  0.0506  0.0693
  217loPI    C2 3458  19.173  16.299   9.876 -0.0751  0.0947 -0.1811
  217loPI    C3 3459  19.355  15.958   9.979  0.1691  0.3334  0.2018
  217loPI   PO4 3460  19.240  16.054   9.396 -0.1267  0.0728  0.0916
  217loPI   GL1 3461  19.066  15.982   9.086  0.5113  0.2638 -0.0813
  217loPI   GL2 3462  18.766  16.151   9.041  0.0063  0.1604  0.2121
  217loPI   C1A 3463  19.196  16.282   8.761  0.0854 -0.1427 -0.2792
  217loPI   C2A 3464  19.140  16.472   8.328  0.0782  0.1983  0.0836
  217loPI   C3A 3465  19.035  16.714   7.988  0.2134  0.0280 -0.1507
  217loPI   C4A 3466  18.941  16.673   7.617  0.0805 -0.0215  0.1962
  217loPI   C5A 3467  18.590  16.610   7.319  0.0438 -0.1789 -0.0571
  217loPI   C6A 3468  18.201  16.360   7.045 -0.1115 -0.0121  0.0297
  217loPI   C1B 3469  18.756  16.129   8.589 -0.1424 -0.1579 -0.1137
  217loPI   C2B 3470  18.717  16.274   8.149 -0.0318  0.2027  0.0608
  217loPI   C3B 3471  18.501  16.232   7.849  0.0472 -0.0165 -0.0023
  217loPI   C4B 3472  18.480  16.129   7.404  0.1395 -0.0370 -0.0412
  218loPI    C1 3473   1.992   3.805  10.260  0.1263 -0.0767 -0.1206
  218loPI    C2 3474   1.930   4.019  10.593 -0.1473 -0.0581 -0.1813
  218loPI    C3 3475   2.133   3.674  10.611 -0.2307 -0.0976  0.0188
  218loPI   PO4 3476   1.725   3.850  10.090 -0.0015 -0.1481 -0.2302
  218loPI   GL1 3477   1.424   3.805   9.742  0.0939 -0.1981  0.2360
  218loPI   GL2 3478   1.669   3.861   9.589 -0.0985  0.2521  0.0073
  218loPI   C1A 3479   1.249   3.825   9.269 -0.2019  0.1223 -0.1237
  218loPI   C2A 3480   1.014   3.871   8.864  0.2512 -0.0320 -0.0374
  218loPI   C3A 3481   1.008   3.600   8.466 -0.0177 -0.1055 -0.0269
  218loPI   C4A 3482   0.992   3.669   8.016 -0.2665 -0.1345  0.2754
  218loPI   C5A 3483   0.846   3.799   7.613 -0.0984 -0.5116  0.1351
  218loPI   C6A 3484   0.943   3.717   7.216 -0.0664  0.2022 -0.0316
  218loPI   C1B 3485   1.651   3.967   9.124  0.0092 -0.0799  0.1977
  218loPI   C2B 3486   1.503   3.830   8.776 -0.2631  0.0663  0.0908
  218loPI   C3B 3487   1.287   3.954   8.348  0.1114  0.0073  0.1742
  218loPI   C4B 3488   1.537   4.117   7.968 -0.0072  0.0323 -0.0887
  219loPI    C1 3489   2.819  14.692   9.709 -0.1359 -0.1212  0.1981
  219loPI    C2 3490   3.166  14.547   9.845  0.1013  0.0883 -0.1660
  219loPI    C3 3491   3.039  14.907   9.964  0.0919  0.0839 -0.1627
  219loPI   PO4 3492   2.715  14.691   9.433 -0.3312 -0.1240 -0.1755
  219loPI   GL1 3493   2.639  14.446   9.060 -0.1232  0.0323  0.1693
  219loPI   GL2 3494   2.327  14.557   9.019  0.1966 -0.1013  0.1632
  219loPI   C1A 3495   2.980  14.561   8.776 -0.0412 -0.0429  0.0016
  219loPI   C2A 3496   2.933  14.749   8.374  0.2796  0.1191  0.1253
  219loPI   C3A 3497   2.944  14.783   7.949 -0.0374  0.0291 -0.0103
  219loPI   C4A 3498   3.094  14.943   7.502 -0.0385  0.2042 -0.0085
  219loPI   C5A 3499   3.380  14.880   7.263  0.2762  0.2400 -0.1103
  219loPI   C6A 3500   3.714  14.758   7.016  0.1138  0.0406  0.0927
  219loPI   C1B 3501   2.445  14.397   8.609 -0.2175  0.1002  0.1611
  219loPI   C2B 3502   2.424  14.578   8.144  0.1641  0.1714 -0.0281
  219loPI   C3B 3503   2.532  14.697   7.663  0.4239 -0.0721  0.2977
  219loPI   C4B 3504   2.651  14.911   7.367 -0.1874 -0.0064  0.3419
  220loPI    C1 3505  17.684  15.272   9.665  0.0915  0.1317 -0.0775
  220loPI    C2 3506  18.075  15.334   9.727  0.0178  0.3226  0.2200
  220loPI    C3 3507  17.805  15.497   9.974 -0.2423 -0.0030  0.1577
  220loPI   PO4 3508  17.584  15.373   9.463 -0.1231  0.1940  0.2758
  220loPI   GL1 3509  17.669  15.279   9.087 -0.0070 -0.1102  0.0558
  220loPI   GL2 3510  17.453  15.443   8.977  0.1250 -0.0400 -0.0211
  220loPI   C1A 3511  17.798  14.999   8.696 -0.0195  0.0651 -0.1636
  220loPI   C2A 3512  17.775  15.065   8.292 -0.1324  0.0106  0.2535
  220loPI   C3A 3513  17.697  14.957   7.851 -0.0012  0.0678 -0.1856
  220loPI   C4A 3514  17.719  14.988   7.315  0.3381  0.1224  0.1850
  220loPI   C5A 3515  17.849  14.866   6.919 -0.0183  0.0898  0.0322
  220loPI   C6A 3516  17.980  14.766   6.466 -0.0330  0.0599 -0.1122
  220loPI   C1B 3517  17.390  15.344   8.561 -0.0663 -0.2075  0.0099
  220loPI   C2B 3518  17.359  15.233   8.130 -0.1031  0.0558  0.0981
  220loPI   C3B 3519  17.468  15.386   7.783 -0.1455 -0.1757 -0.3786
  220loPI   C4B 3520  17.437  15.457   7.291  0.3192 -0.1874 -0.0946
  221loPI    C1 3521  15.753  17.404   9.531 -0.1141  0.2030  0.0817
  221loPI    C2 3522  15.902  17.624   9.232  0.0957 -0.0276  0.0136
  221loPI    C3 3523  16.008  17.702   9.609  0.3546 -0.1577 -0.0299
  221loPI   PO4 3524  15.446  17.429   9.429  0.0834  0.1169 -0.0387
  221loPI   GL1 3525  15.292  17.427   9.060 -0.1904  0.0192  0.2593
  221loPI   GL2 3526  15.495  17.676   8.957  0.2867 -0.1291 -0.2088
  221loPI   C1A 3527  15.159  17.457   8.589  0.0280 -0.1530 -0.1425
  221loPI   C2A 3528  15.244  17.538   8.147 -0.0859 -0.0757 -0.1834
  221loPI   C3A 3529  15.515  17.433   7.840 -0.1327 -0.0195  0.2077
  221loPI   C4A 3530  15.894  17.249   7.732 -0.2833  0.1217  0.0842
  221loPI   C5A 3531  16.235  17.275   7.447 -0.2205  0.2045  0.0644
  221loPI   C6A 3532  16.645  17.156   7.273 -0.0405 -0.0130  0.0344
  221loPI   C1B 3533  15.668  17.555   8.530  0.1398  0.0645  0.5135
  221loPI   C2B 3534  15.788  17.340   8.262 -0.1202  0.1751  0.0115
  221loPI   C3B 3535  15.667  16.937   8.102  0.0914 -0.4248 -0.2537
  221loPI   C4B 3536  15.761  16.562   7.757  0.0413  0.0388  0.1359
  222loPI    C1 3537  19.434  13.907   9.436  0.0563  0.0560 -0.0341
  222loPI    C2 3538  19.051  13.801   9.475  0.0335  0.1060 -0.1188
  222loPI    C3 3539  19.214  14.060   9.733  0.1233 -0.2250  0.1640
  222loPI   PO4 3540  19.478  13.980   9.220  0.0388  0.0041 -0.1511
  222loPI   GL1 3541  19.437  14.280   8.821  0.1241  0.0093 -0.0899
  222loPI   GL2 3542  19.775  14.349   8.944  0.0212 -0.0303  0.0450
  222loPI   C1A 3543  19.355  14.058   8.352  0.2809  0.3737 -0.2583
  222loPI   C2A 3544  19.406  14.071   7.919  0.2501  0.0051  0.0649
  222loPI   C3A 3545  19.362  14.118   7.448 -0.2541 -0.1885  0.0051
  222loPI   C4A 3546  19.557  14.271   7.051  0.1310  0.1451  0.0384
  222loPI   C5A 3547  19.408  14.623   6.825 -0.3063  0.1284  0.0033
  222loPI   C6A 3548  19.526  14.891   6.419  0.0143  0.2991  0.1154
  222loPI   C1B 3549  19.801  14.005   8.562  0.2214  0.2404 -0.2664
  222loPI   C2B 3550  19.861  13.879   8.082  0.0383  0.0789  0.1641
  222loPI   C3B 3551  19.754  13.846   7.667  0.1265  0.2507  0.0423
  222loPI   C4B 3552  19.785  13.922   7.239 -0.0318 -0.1709 -0.2942
  223loPI    C1 3553  16.579   7.608   9.784  0.0764  0.0294  0.0187
  223loPI    C2 3554  16.293   7.469  10.028 -0.1197  0.0340 -0.2055
  223loPI    C3 3555  16.511   7.214   9.810 -0.0027  0.0355 -0.0912
  223loPI   PO4 3556  16.530   7.763   9.623  0.2937 -0.0686 -0.1058
  223loPI   GL1 3557  16.564   7.971   9.286 -0.1022 -0.0920  0.0010
  223loPI   GL2 3558  16.460   7.714   9.081 -0.2005  0.0476 -0.3347
  223loPI   C1A 3559  16.801   7.943   8.847  0.0647 -0.3894  0.0016
  223loPI   C2A 3560  16.964   8.108   8.473 -0.0241 -0.5636  0.1343
  223loPI   C3A 3561  17.064   8.410   8.164  0.2469 -0.0467 -0.0087
  223loPI   C4A 3562  17.177   8.733   7.833  0.1067 -0.2843  0.0993
  223loPI   C5A 3563  16.917   8.750   7.419 -0.0117 -0.0949 -0.0330
  223loPI   C6A 3564  17.018   8.880   6.993 -0.0947  0.0311 -0.3682
  223loPI   C1B 3565  16.175   7.599   8.710  0.1570 -0.0313  0.1025
  223loPI   C2B 3566  16.051   7.483   8.301 -0.1235 -0.2485 -0.1898
  223loPI   C3B 3567  16.148   7.388   7.886  0.0984 -0.0070  0.3396
  223loPI   C4B 3568  16.525   7.202   7.774 -0.0478 -0.3897 -0.0065
  224loPI    C1 3569  16.086  15.466   9.603 -0.0233  0.2157  0.1815
  224loPI    C2 3570  15.995  15.146   9.825  0.0081  0.0973  0.0264
  224loPI    C3 3571  15.876  15.511   9.940 -0.1996  0.0076  0.1019
  224loPI   PO4 3572  16.105  15.394   9.322 -0.0529  0.1266 -0.0740
  224loPI   GL1 3573  15.979  15.179   8.899  0.1149  0.1467  0.0904
  224loPI   GL2 3574  16.029  15.382   8.620  0.0599  0.1448 -0.2209
  224loPI   C1A 3575  15.961  14.831   8.633  0.1519  0.1637 -0.0294
  224loPI   C2A 3576  15.848  14.628   8.234 -0.2045  0.0788 -0.0653
  224loPI   C3A 3577  15.829  14.641   7.863  0.0383  0.0872  0.1391
  224loPI   C4A 3578  15.963  14.617   7.571 -0.3097 -0.0782  0.0033
  224loPI   C5A 3579  16.219  14.501   7.292  0.2048  0.0383  0.1639
  224loPI   C6A 3580  16.548  14.363   7.055  0.0103  0.0953  0.2160
  224loPI   C1B 3581  16.132  15.217   8.309 -0.1201 -0.1404 -0.1395
  224loPI   C2B 3582  16.025  15.095   7.876  0.0482 -0.2664  0.1954
  224loPI   C3B 3583  16.056  15.119   7.404  0.1668  0.2795  0.1190
  224loPI   C4B 3584  16.113  15.326   6.987 -0.4063  0.1648  0.1212
  225loPI    C1 3585   7.204  10.075  10.294  0.2579  0.0309 -0.3515
  225loPI    C2 3586   7.497  10.027  10.563  0.1919  0.0096 -0.2830
  225loPI    C3 3587   7.279   9.712  10.445 -0.0810  0.0934 -0.0162
  225loPI   PO4 3588   7.322  10.254  10.120 -0.1995  0.2773  0.0936
  225loPI   GL1 3589   7.189  10.237   9.619  0.0471  0.1874 -0.0391
  225loPI   GL2 3590   7.278  10.094   9.421  0.0074  0.1735  0.0650
  225loPI   C1A 3591   6.988  10.531   9.380 -0.2105 -0.1416 -0.0417
  225loPI   C2A 3592   6.666  10.614   9.018 -0.1296  0.1046  0.0228
  225loPI   C3A 3593   6.576  10.729   8.572  0.1281 -0.0559 -0.1863
  225loPI   C4A 3594   6.580  10.641   8.164  0.2908 -0.0138  0.0626
  225loPI   C5A 3595   6.694  10.818   7.756  0.0888  0.0376  0.1664
  225loPI   C6A 3596   6.837  10.925   7.404 -0.0043  0.1004  0.2455
  225loPI   C1B 3597   7.381  10.264   8.957 -0.1262  0.1036 -0.1114
  225loPI   C2B 3598   7.425  10.489   8.621 -0.1233  0.2103  0.0715
  225loPI   C3B 3599   7.511  10.918   8.518 -0.0367 -0.0364 -0.0763
  225loPI   C4B 3600   7.551  11.351   8.717 -0.0905 -0.0078  0.1662
  226loPI    C1 3601  11.800  17.336   9.325  0.0411 -0.0114 -0.1336
  226loPI    C2 3602  11.621  17.662   9.472  0.0594 -0.0627  0.0048
  226loPI    C3 3603  11.930  17.499   9.666 -0.1166 -0.3157  0.0769
  226loPI   PO4 3604  11.843  17.387   9.105 -0.2769 -0.1933  0.1959
  226loPI   GL1 3605  11.782  17.086   8.722  0.0089 -0.3880  0.1422
  226loPI   GL2 3606  11.509  17.294   8.745 -0.2021 -0.3540 -0.1083
  226loPI   C1A 3607  11.520  16.955   8.250  0.2547 -0.3944 -0.1292
  226loPI   C2A 3608  11.383  17.108   7.900 -0.1034  0.0586  0.0426
  226loPI   C3A 3609  11.330  16.965   7.514  0.0430 -0.0025 -0.1964
  226loPI   C4A 3610  11.176  17.212   7.205  0.1944 -0.2304  0.0366
  226loPI   C5A 3611  11.094  17.317   6.848  0.1973  0.0724 -0.1532
  226loPI   C6A 3612  10.780  17.469   6.575  0.0974  0.1739 -0.0691
  226loPI   C1B 3613  11.634  17.471   8.379 -0.1509 -0.1649 -0.2305
  226loPI   C2B 3614  11.814  17.632   8.049  0.1556  0.1308  0.2295
  226loPI   C3B 3615  11.794  17.514   7.653  0.1797 -0.1887 -0.0550
  226loPI   C4B 3616  11.761  17.184   7.350 -0.1898  0.0827 -0.1799
  227loPI    C1 3617  13.963  11.675   9.301  0.1168  0.0947 -0.0816
  227loPI    C2 3618  14.185  12.008   9.307  0.1143  0.0941  0.1420
  227loPI    C3 3619  13.993  11.889   9.638  0.1600 -0.1595  0.0794
  227loPI   PO4 3620  13.807  11.679   9.154 -0.0929 -0.0281 -0.2159
  227loPI   GL1 3621  13.912  11.571   8.806  0.1320 -0.3255  0.0487
  227loPI   GL2 3622  14.233  11.760   8.864  0.1382  0.1513  0.1827
  227loPI   C1A 3623  13.996  11.807   8.432  0.1755  0.0004  0.1094
  227loPI   C2A 3624  13.932  11.775   8.015  0.0738 -0.2223  0.1973
  227loPI   C3A 3625  13.886  12.112   7.643 -0.0294  0.1203 -0.0665
  227loPI   C4A 3626  13.654  12.508   7.415 -0.1159 -0.2043 -0.2046
  227loPI   C5A 3627  13.838  12.692   7.094 -0.2370 -0.0274  0.1781
  227loPI   C6A 3628  13.970  12.814   6.673 -0.0566 -0.0969 -0.1025
  227loPI   C1B 3629  14.346  11.477   8.556 -0.0189 -0.2927 -0.2448
  227loPI   C2B 3630  14.396  11.547   8.118  0.3135 -0.0381 -0.1803
  227loPI   C3B 3631  14.473  11.563   7.665 -0.0640  0.1471  0.0061
  227loPI   C4B 3632  14.305  11.676   7.215  0.2579  0.0212  0.2698
  228loPI    C1 3633  14.807   1.680   9.941  0.2071 -0.3771  0.1539
  228loPI    C2 3634  14.545   1.886  10.162  0.1286  0.0419 -0.3112
  228loPI    C3 3635  14.860   1.712  10.336 -0.2869 -0.2142  0.2138
  228loPI   PO4 3636  14.660   1.589   9.725  0.1192 -0.1124 -0.2391
  228loPI   GL1 3637  14.672   1.450   9.341 -0.0250 -0.1955  0.3896
  228loPI   GL2 3638  14.927   1.437   9.029  0.0631  0.0687  0.3003
  228loPI   C1A 3639  14.463   1.328   8.999  0.2712 -0.0878  0.0168
  228loPI   C2A 3640  14.389   1.151   8.682  0.0349 -0.0099 -0.3083
  228loPI   C3A 3641  14.361   0.909   8.285  0.0505  0.0953 -0.3812
  228loPI   C4A 3642  14.095   0.485   8.278  0.1321 -0.0959  0.0769
  228loPI   C5A 3643  13.772   0.424   8.437 -0.0734  0.1085 -0.0157
  228loPI   C6A 3644  13.411   0.669   8.448 -0.0419  0.3501 -0.5511
  228loPI   C1B 3645  14.665   1.521   8.591  0.0920 -0.1601 -0.2030
  228loPI   C2B 3646  14.555   1.505   8.142 -0.1426 -0.1477  0.0927
  228loPI   C3B 3647  14.620   1.806   7.731 -0.3460 -0.3480  0.0040
  228loPI   C4B 3648  14.855   2.263   7.494 -0.2960  0.2403 -0.1631
  229loPI    C1 3649  16.860   5.753  10.289 -0.1248  0.0472  0.0829
  229loPI    C2 3650  17.231   5.704  10.432 -0.0177  0.0974 -0.1716
  229loPI    C3 3651  17.034   6.046  10.499 -0.0911  0.0014  0.1191
  229loPI   PO4 3652  16.912   5.642  10.047  0.0796 -0.4259  0.1040
  229loPI   GL1 3653  16.728   5.639   9.495  0.0146 -0.0411  0.0011
  229loPI   GL2 3654  16.875   5.383   9.346 -0.3116  0.1558 -0.0682
  229loPI   C1A 3655  16.751   5.751   8.982  0.0524  0.1895  0.2052
  229loPI   C2A 3656  16.843   5.883   8.646 -0.4072 -0.0125  0.3892
  229loPI   C3A 3657  16.853   6.024   8.257  0.0478  0.0158  0.1780
  229loPI   C4A 3658  16.933   5.812   7.810  0.0314  0.3141  0.2319
  229loPI   C5A 3659  17.011   5.499   7.505  0.0612  0.0314 -0.0430
  229loPI   C6A 3660  17.148   5.429   7.134  0.1237  0.1282 -0.0365
  229loPI   C1B 3661  16.928   5.308   8.831  0.0680 -0.0192 -0.0138
  229loPI   C2B 3662  17.016   5.388   8.419  0.0738 -0.4147 -0.0800
  229loPI   C3B 3663  16.928   5.267   8.001 -0.1489 -0.0447  0.3962
  229loPI   C4B 3664  16.580   5.355   7.760  0.1202  0.0834 -0.2175
  230loPI    C1 3665  10.001   4.134  10.235 -0.2248 -0.1154 -0.1744
  230loPI    C2 3666  10.081   4.463  10.022  0.0031 -0.0126  0.0633
  230loPI    C3 3667   9.874   4.491  10.363 -0.0691 -0.1317  0.0302
  230loPI   PO4 3668   9.919   3.918   9.977 -0.0704 -0.2170  0.2776
  230loPI   GL1 3669   9.883   4.061   9.533  0.2755  0.0041  0.1377
  230loPI   GL2 3670  10.082   3.782   9.318 -0.0183  0.1187 -0.4825
  230loPI   C1A 3671   9.731   4.090   9.060 -0.0823  0.2818  0.2246
  230loPI   C2A 3672   9.494   4.178   8.734 -0.0417 -0.2946 -0.2381
  230loPI   C3A 3673   9.255   3.925   8.291  0.2722 -0.0237 -0.2348
  230loPI   C4A 3674   8.967   3.874   8.045 -0.1531  0.0272 -0.2372
  230loPI   C5A 3675   8.819   3.716   7.656  0.1480  0.0747 -0.0507
  230loPI   C6A 3676   8.785   3.475   7.304 -0.1153 -0.1014  0.2182
  230loPI   C1B 3677  10.089   3.742   8.991 -0.1511 -0.0689  0.2148
  230loPI   C2B 3678  10.129   3.721   8.607  0.0769  0.0435  0.2014
  230loPI   C3B 3679  10.159   3.729   8.213 -0.1946 -0.1788  0.4903
  230loPI   C4B 3680  10.149   3.872   7.791 -0.1634  0.1051 -0.2827
  231loPI    C1 3681  18.898  18.234   9.983 -0.1385  0.0858 -0.1157
  231loPI    C2 3682  18.945  18.234  10.380 -0.2601 -0.2221 -0.0985
  231loPI    C3 3683  18.834  17.899  10.192 -0.2303 -0.0712 -0.3903
  231loPI   PO4 3684  19.190  18.223   9.793 -0.3303 -0.0719 -0.0134
  231loPI   GL1 3685  19.104  18.311   9.335 -0.0875  0.2691  0.0115
  231loPI   GL2 3686  19.042  18.035   9.131 -0.3555  0.1886 -0.3423
  231loPI   C1A 3687  19.092  18.533   8.947 -0.2656 -0.0417  0.1391
  231loPI   C2A 3688  19.012  18.684   8.544 -0.1650  0.1004  0.1701
  231loPI   C3A 3689  18.984  18.958   8.265  0.3818 -0.1300 -0.1789
  231loPI   C4A 3690  19.046  19.124   7.814 -0.0823  0.4192 -0.1941
  231loPI   C5A 3691  19.311  19.340   7.523 -0.0338 -0.1011  0.1194
  231loPI   C6A 3692  19.671  19.600   7.508 -0.3151 -0.1476 -0.2277
  231loPI   C1B 3693  19.228  18.052   8.743 -0.0796  0.0412 -0.0548
  231loPI   C2B 3694  19.348  18.354   8.435 -0.1415 -0.1425  0.1143
  231loPI   C3B 3695  19.765  18.524   8.194  0.1216 -0.0405  0.0759
  231loPI   C4B 3696  19.963  18.607   7.823 -0.1780 -0.0711 -0.1679
  232loPI    C1 3697   0.597  12.949   9.646  0.0073  0.2420  0.0243
  232loPI    C2 3698   0.964  13.051   9.768  0.0564  0.1014 -0.0049
  232loPI    C3 3699   0.705  12.889  10.026  0.0386  0.1353 -0.0014
  232loPI   PO4 3700   0.384  13.087   9.487 -0.2624  0.0815  0.0612
  232loPI   GL1 3701   0.198  13.132   9.207 -0.0003  0.1693 -0.4318
  232loPI   GL2 3702  -0.041  12.990   9.054  0.1958  0.2086 -0.2610
  232loPI   C1A 3703   0.194  13.159   8.646 -0.0939  0.0126  0.2666
  232loPI   C2A 3704   0.074  13.036   8.249  0.0350  0.0104  0.0470
  232loPI   C3A 3705  -0.229  12.864   7.917 -0.0299  0.0476 -0.2124
  232loPI   C4A 3706  -0.203  12.983   7.478  0.0316  0.1384  0.0440
  232loPI   C5A 3707  -0.175  13.163   7.035 -0.1051  0.1574 -0.2757
  232loPI   C6A 3708  -0.379  13.414   6.784  0.2444  0.0342 -0.1295
  232loPI   C1B 3709  -0.109  12.813   8.714 -0.1554 -0.0541 -0.3543
  232loPI   C2B 3710   0.190  12.485   8.476 -0.0080 -0.0781 -0.1994
  232loPI   C3B 3711   0.296  12.443   8.068  0.1610 -0.0666  0.0041
  232loPI   C4B 3712   0.104  12.495   7.556 -0.3523  0.1489 -0.2547
  233loPI    C1 3713  11.759  16.278   9.723 -0.1939  0.0359 -0.1357
  233loPI    C2 3714  11.686  16.530  10.025  0.0948 -0.2208  0.1561
  233loPI    C3 3715  11.389  16.310   9.872 -0.0902  0.0451  0.1270
  233loPI   PO4 3716  11.899  16.483   9.524  0.3615 -0.1182 -0.1335
  233loPI   GL1 3717  11.819  16.345   9.026  0.1099 -0.1687 -0.0443
  233loPI   GL2 3718  11.575  16.123   8.918  0.1787  0.0618  0.0084
  233loPI   C1A 3719  12.022  16.191   8.635 -0.1119  0.1814  0.0014
  233loPI   C2A 3720  12.420  16.344   8.298  0.0856 -0.3624 -0.0139
  233loPI   C3A 3721  12.383  16.362   7.859  0.1526 -0.0212  0.0874
  233loPI   C4A 3722  12.459  16.202   7.457 -0.3589 -0.1900  0.0758
  233loPI   C5A 3723  12.156  16.321   7.119  0.0172  0.2789  0.1167
  233loPI   C6A 3724  11.871  16.180   6.752 -0.2196 -0.0390  0.2933
  233loPI   C1B 3725  11.577  16.068   8.473 -0.2262  0.0860 -0.0275
  233loPI   C2B 3726  11.515  16.121   8.091  0.0538 -0.0095  0.1367
  233loPI   C3B 3727  11.454  16.076   7.627 -0.1566 -0.0443  0.1029
  233loPI   C4B 3728  11.474  16.252   7.219  0.3007  0.1056  0.2366
  234loPI    C1 3729   9.915  18.762  10.121 -0.0795 -0.0357 -0.1308
  234loPI    C2 3730   9.833  19.130  10.255  0.0834 -0.0597  0.0400
  234loPI    C3 3731  10.207  18.989  10.274  0.0670 -0.1475 -0.2417
  234loPI   PO4 3732   9.654  18.749   9.906 -0.0346 -0.1005  0.2265
  234loPI   GL1 3733   9.593  18.880   9.440 -0.1972  0.2845  0.2386
  234loPI   GL2 3734   9.437  18.660   9.413  0.0647 -0.1434  0.1370
  234loPI   C1A 3735   9.522  18.943   9.034 -0.3922 -0.1284 -0.0636
  234loPI   C2A 3736   9.517  18.715   8.753  0.0658  0.0103 -0.1492
  234loPI   C3A 3737   9.562  18.696   8.265  0.1909  0.1409 -0.3153
  234loPI   C4A 3738   9.589  18.746   7.872  0.2073 -0.0336 -0.1877
  234loPI   C5A 3739   9.496  18.535   7.598  0.6112  0.2116  0.0325
  234loPI   C6A 3740   9.578  18.414   7.163 -0.0012  0.2200 -0.0719
  234loPI   C1B 3741   9.779  18.476   9.144 -0.2706  0.2772  0.0078
  234loPI   C2B 3742   9.975  18.496   8.773  0.1689  0.4447 -0.1552
  234loPI   C3B 3743  10.058  18.472   8.285 -0.1436 -0.0474 -0.1132
  234loPI   C4B 3744  10.065  18.263   7.901  0.0980 -0.0384  0.3858
  235loPI    C1 3745  10.573   7.031   9.669  0.2677 -0.0708 -0.0288
  235loPI    C2 3746  10.244   7.052   9.896  0.0393  0.2073 -0.3731
  235loPI    C3 3747  10.494   7.364   9.877  0.4440 -0.0776  0.0503
  235loPI   PO4 3748  10.571   6.928   9.486 -0.0596 -0.0209 -0.2222
  235loPI   GL1 3749  10.778   6.821   9.162 -0.1794  0.2656  0.1145
  235loPI   GL2 3750  10.563   6.537   9.189  0.1043 -0.1824 -0.0014
  235loPI   C1A 3751  10.931   6.603   8.810  0.0756 -0.0896 -0.1769
  235loPI   C2A 3752  10.940   6.612   8.373  0.0590 -0.1088 -0.0214
  235loPI   C3A 3753  11.025   6.694   8.007 -0.0861 -0.1866  0.1946
  235loPI   C4A 3754  11.124   6.910   7.686  0.4066  0.1157 -0.0778
  235loPI   C5A 3755  11.105   7.230   7.307 -0.1066  0.2614  0.0472
  235loPI   C6A 3756  11.119   7.705   7.292 -0.2686 -0.0276 -0.1034
  235loPI   C1B 3757  10.376   6.520   8.774  0.1591 -0.0882  0.0887
  235loPI   C2B 3758  10.299   6.677   8.314 -0.0911 -0.2890 -0.2189
  235loPI   C3B 3759  10.472   6.704   7.844 -0.5742  0.1955 -0.2258
  235loPI   C4B 3760  10.712   6.766   7.490 -0.0578 -0.2790  0.0601
  236loPI    C1 3761  11.736  10.330  10.067  0.2398  0.0035 -0.0890
  236loPI    C2 3762  11.574  10.002  10.229 -0.1387  0.1733 -0.1134
  236loPI    C3 3763  11.737  10.282  10.464  0.1444 -0.0075 -0.0899
  236loPI   PO4 3764  11.939  10.218   9.872  0.0517  0.0117  0.2899
  236loPI   GL1 3765  12.026  10.126   9.341 -0.0370  0.0771  0.0754
  236loPI   GL2 3766  11.810  10.321   9.408 -0.1956 -0.0462  0.4268
  236loPI   C1A 3767  11.833  10.012   8.980  0.1928  0.1346 -0.0063
  236loPI   C2A 3768  11.719   9.989   8.516 -0.1274  0.2485  0.1601
  236loPI   C3A 3769  11.702  10.027   8.133 -0.4037  0.1418  0.2049
  236loPI   C4A 3770  11.435  10.047   7.843  0.0034  0.1346  0.1269
  236loPI   C5A 3771  11.085   9.871   7.715  0.1664  0.1130  0.0461
  236loPI   C6A 3772  10.975   9.647   7.369  0.1346 -0.0287  0.1584
  236loPI   C1B 3773  11.902  10.503   9.005  0.0049  0.0015 -0.0431
  236loPI   C2B 3774  11.891  10.508   8.591 -0.0690 -0.1078  0.0458
  236loPI   C3B 3775  11.707  10.550   8.126 -0.0633 -0.1103  0.1692
  236loPI   C4B 3776  11.268  10.656   7.941  0.3357 -0.0795 -0.1862
  237loPI    C1 3777  18.903   5.542  10.096  0.1408  0.0426  0.0024
  237loPI    C2 3778  19.047   5.915  10.087 -0.0440  0.1133 -0.0661
  237loPI    C3 3779  18.680   5.845  10.229  0.0732 -0.0719  0.1527
  237loPI   PO4 3780  18.996   5.348   9.821  0.0549 -0.0500  0.0364
  237loPI   GL1 3781  19.172   5.408   9.426  0.1114  0.1019 -0.0220
  237loPI   GL2 3782  19.121   5.739   9.303  0.1853 -0.2310 -0.2993
  237loPI   C1A 3783  19.316   5.436   8.992  0.1481 -0.0287  0.4077
  237loPI   C2A 3784  19.394   5.296   8.537  0.3862 -0.0184  0.1552
  237loPI   C3A 3785  19.593   5.036   8.184 -0.1666  0.5238 -0.0362
  237loPI   C4A 3786  19.717   4.793   7.881 -0.0763  0.1997  0.3236
  237loPI   C5A 3787  19.974   4.847   7.495  0.0647  0.1859  0.3226
  237loPI   C6A 3788  20.203   5.054   7.120  0.2755 -0.3547 -0.3792
  237loPI   C1B 3789  19.258   5.892   9.019 -0.1795  0.1992  0.2107
  237loPI   C2B 3790  19.206   5.812   8.615  0.0805  0.1844 -0.3544
  237loPI   C3B 3791  19.137   5.722   8.194  0.0984 -0.2165  0.0607
  237loPI   C4B 3792  18.984   5.724   7.801  0.0924 -0.0210  0.1833
  238loPI    C1 3793  11.836   5.335   9.759  0.1222  0.0816  0.0173
  238loPI    C2 3794  11.962   5.708   9.688  0.2412  0.0340 -0.0252
  238loPI    C3 3795  11.739   5.631  10.011  0.2687  0.1305  0.0176
  238loPI   PO4 3796  11.646   5.190   9.604 -0.0499  0.0142  0.2823
  238loPI   GL1 3797  11.648   5.037   9.156 -0.2358 -0.0353  0.0919
  238loPI   GL2 3798  11.331   5.175   9.267  0.1052  0.2478 -0.3495
  238loPI   C1A 3799  11.562   5.050   8.706 -0.0671 -0.0522  0.1668
  238loPI   C2A 3800  11.564   5.157   8.268 -0.0215 -0.1866  0.1671
  238loPI   C3A 3801  11.758   5.001   8.032  0.0522 -0.1880  0.1191
  238loPI   C4A 3802  12.046   5.007   7.732  0.0754  0.2217  0.0900
  238loPI   C5A 3803  12.174   4.700   7.517  0.4291  0.1250  0.5247
  238loPI   C6A 3804  12.080   4.301   7.436  0.0651  0.2099  0.1108
  238loPI   C1B 3805  11.154   5.323   8.804  0.1485  0.0403 -0.2459
  238loPI   C2B 3806  11.162   5.441   8.274 -0.2032 -0.1613 -0.1594
  238loPI   C3B 3807  11.251   5.265   7.925  0.0379 -0.1730 -0.2210
  238loPI   C4B 3808  11.313   5.096   7.478 -0.1643 -0.1610 -0.1022
  239loPI    C1 3809   0.407   0.574  10.220  0.5181  0.0740  0.0816
  239loPI    C2 3810   0.460   0.181  10.170 -0.0410  0.0059 -0.0365
  239loPI    C3 3811   0.667   0.376  10.451  0.3930 -0.3283 -0.1139
  239loPI   PO4 3812   0.353   0.617   9.913  0.1646 -0.0140  0.0846
  239loPI   GL1 3813   0.578   0.352   9.652 -0.0197  0.0892  0.2393
  239loPI   GL2 3814   0.711   0.674   9.577 -0.1875  0.1477 -0.4970
  239loPI   C1A 3815   0.829   0.268   9.171  0.1110  0.1880 -0.0598
  239loPI   C2A 3816   0.856   0.292   8.792  0.0830 -0.1221 -0.3956
  239loPI   C3A 3817   1.105   0.273   8.422  0.2060  0.0526 -0.1506
  239loPI   C4A 3818   1.319   0.269   8.015 -0.2306  0.0312 -0.1509
  239loPI   C5A 3819   1.466   0.039   7.682  0.2651 -0.1316  0.3167
  239loPI   C6A 3820   1.254  -0.109   7.406  0.0861  0.1423  0.0726
  239loPI   C1B 3821   0.451   0.634   9.204 -0.1439  0.2579  0.0253
  239loPI   C2B 3822   0.429   0.768   8.759 -0.2389 -0.0373 -0.0711
  239loPI   C3B 3823   0.179   0.715   8.434 -0.1343  0.2063  0.0125
  239loPI   C4B 3824  -0.130   0.297   8.432  0.3040  0.2613  0.3482
  240loPI    C1 3825   5.949  18.323  10.021 -0.0458  0.1459 -0.0841
  240loPI    C2 3826   5.673  18.083  10.183  0.2276 -0.1145  0.0052
  240loPI    C3 3827   5.715  18.458  10.316  0.1140 -0.1665  0.1923
  240loPI   PO4 3828   5.925  18.158   9.701  0.0504 -0.0800 -0.4013
  240loPI   GL1 3829   5.901  18.413   9.359 -0.1990  0.0575 -0.1517
  240loPI   GL2 3830   5.712  18.569   9.250 -0.2302  0.1273 -0.1814
  240loPI   C1A 3831   5.711  18.097   9.046  0.1144  0.0877 -0.2561
  240loPI   C2A 3832   5.541  18.092   8.651 -0.3842  0.0305  0.3329
  240loPI   C3A 3833   5.495  17.921   8.270  0.0892 -0.3056  0.0424
  240loPI   C4A 3834   5.426  17.909   7.854 -0.2049 -0.3369  0.0421
  240loPI   C5A 3835   5.748  18.161   7.611 -0.2572  0.1981  0.2153
  240loPI   C6A 3836   5.789  18.567   7.499  0.0431  0.0338  0.0348
  240loPI   C1B 3837   5.597  18.581   8.777  0.1597  0.0693  0.0587
  240loPI   C2B 3838   5.828  18.759   8.488 -0.3752 -0.0340  0.1628
  240loPI   C3B 3839   5.944  19.085   8.193  0.1581  0.2625  0.0673
  240loPI   C4B 3840   6.235  19.317   7.887  0.0960 -0.1662 -0.1507
  241loPI    C1 3841   0.892   2.852   9.892 -0.1224  0.0717  0.0279
  241loPI    C2 3842   0.796   3.071   9.571 -0.2549 -0.0436 -0.0121
  241loPI    C3 3843   0.558   3.072   9.892 -0.0766  0.1417  0.1221
  241loPI   PO4 3844   1.259   3.005   9.995  0.2567 -0.1959  0.3223
  241loPI   GL1 3845   1.524   2.908   9.615  0.0834  0.1739  0.1230
  241loPI   GL2 3846   1.245   2.755   9.517  0.0418 -0.1317 -0.2397
  241loPI   C1A 3847   1.665   2.919   9.264 -0.0043 -0.3185  0.2131
  241loPI   C2A 3848   1.786   2.998   8.830  0.0474  0.0100  0.2704
  241loPI   C3A 3849   2.026   3.126   8.524  0.1643 -0.2971  0.1172
  241loPI   C4A 3850   2.222   3.206   8.077 -0.0385  0.1520  0.1363
  241loPI   C5A 3851   2.056   3.323   7.658 -0.2693  0.0467  0.1874
  241loPI   C6A 3852   1.854   3.479   7.290 -0.0642 -0.1135  0.0044
  241loPI   C1B 3853   1.222   2.869   9.019 -0.0655  0.2621 -0.0309
  241loPI   C2B 3854   1.095   3.019   8.625 -0.2428 -0.2806  0.0031
  241loPI   C3B 3855   0.831   3.013   8.250 -0.2210  0.0668  0.2262
  241loPI   C4B 3856   0.841   3.075   7.777 -0.1493 -0.4096 -0.1640
  242loPI    C1 3857  12.210   4.079   9.582 -0.2256 -0.1188  0.2369
  242loPI    C2 3858  11.855   3.958   9.720 -0.2540 -0.2301  0.0680
  242loPI    C3 3859  11.928   4.348   9.674 -0.3933 -0.2110  0.0019
  242loPI   PO4 3860  12.277   3.838   9.433  0.1214  0.0991 -0.0184
  242loPI   GL1 3861  12.359   3.698   9.073 -0.2679 -0.1995  0.4332
  242loPI   GL2 3862  12.603   3.370   9.106  0.4029 -0.0747 -0.1797
  242loPI   C1A 3863  12.350   3.692   8.696 -0.0710  0.1907 -0.1499
  242loPI   C2A 3864  12.350   3.385   8.316 -0.1329 -0.1357 -0.0292
  242loPI   C3A 3865  12.431   3.181   7.874 -0.2695 -0.1811  0.2677
  242loPI   C4A 3866  12.718   3.016   7.545  0.0637 -0.2291 -0.0397
  242loPI   C5A 3867  13.122   2.765   7.306  0.0209  0.1635 -0.1385
  242loPI   C6A 3868  13.534   2.769   7.147  0.2136 -0.0304  0.0619
  242loPI   C1B 3869  12.694   3.254   8.693  0.1190 -0.0649  0.0008
  242loPI   C2B 3870  12.748   3.107   8.261  0.0440 -0.2807  0.2096
  242loPI   C3B 3871  12.736   2.798   7.994 -0.1120  0.1458  0.0643
  242loPI   C4B 3872  12.649   2.367   7.869 -0.0526 -0.3099 -0.2842
  243loPI    C1 3873  14.498  15.917   9.443  0.1503 -0.0656  0.0325
  243loPI    C2 3874  14.655  15.773   9.781  0.1328  0.0915  0.1088
  243loPI    C3 3875  14.415  15.544   9.558 -0.0462  0.0653  0.3255
  243loPI   PO4 3876  14.687  16.125   9.360 -0.3564 -0.0090  0.1505
  243loPI   GL1 3877  14.956  16.059   8.979  0.1779 -0.1756 -0.0064
  243loPI   GL2 3878  15.156  15.784   9.013 -0.0124 -0.1136  0.1907
  243loPI   C1A 3879  14.791  16.258   8.547 -0.1242 -0.3818 -0.0621
  243loPI   C2A 3880  15.056  16.466   8.163  0.0003  0.1043 -0.1072
  243loPI   C3A 3881  15.326  16.435   7.887 -0.4612  0.2989 -0.3190
  243loPI   C4A 3882  15.451  16.617   7.400  0.0245  0.2334  0.0894
  243loPI   C5A 3883  15.665  16.882   7.348 -0.0075 -0.0968  0.1800
  243loPI   C6A 3884  15.811  17.285   7.168 -0.1411 -0.1716  0.0123
  243loPI   C1B 3885  14.922  15.687   8.581 -0.0250  0.1363 -0.1200
  243loPI   C2B 3886  14.627  15.335   8.397 -0.0883 -0.1871  0.0270
  243loPI   C3B 3887  14.688  15.203   7.975  0.0811 -0.0572 -0.2073
  243loPI   C4B 3888  15.085  14.991   7.793  0.1001 -0.2022  0.0078
  244loPI    C1 3889  17.761  13.990   9.697 -0.2730 -0.0322 -0.0261
  244loPI    C2 3890  17.480  14.242   9.830  0.0178  0.2158  0.1329
  244loPI    C3 3891  17.785  14.140  10.068 -0.0203 -0.1788  0.0193
  244loPI   PO4 3892  17.834  14.089   9.434 -0.1577  0.1769  0.2582
  244loPI   GL1 3893  18.196  14.273   9.112 -0.3248  0.0660  0.0242
  244loPI   GL2 3894  17.981  14.151   8.959 -0.0070  0.0565  0.1886
  244loPI   C1A 3895  18.323  14.391   8.631 -0.0745 -0.0662  0.1004
  244loPI   C2A 3896  18.518  14.521   8.286  0.0287  0.1128 -0.0064
  244loPI   C3A 3897  18.541  14.462   7.892 -0.2186  0.1610 -0.0697
  244loPI   C4A 3898  18.800  14.137   7.652 -0.3966  0.2499  0.0469
  244loPI   C5A 3899  18.809  14.168   7.288  0.0812 -0.2518  0.3559
  244loPI   C6A 3900  18.948  14.297   6.922 -0.3235 -0.1407  0.1773
  244loPI   C1B 3901  17.997  13.997   8.534 -0.0181 -0.3210 -0.0698
  244loPI   C2B 3902  18.174  14.139   8.088  0.1171 -0.0269  0.0031
  244loPI   C3B 3903  18.301  14.078   7.654  0.1444  0.4783 -0.1084
  244loPI   C4B 3904  18.315  14.225   7.195  0.0633 -0.3148 -0.0398
  245loPI    C1 3905  17.461  10.037   9.510  0.0849 -0.0261 -0.1520
  245loPI    C2 3906  17.626  10.325   9.732  0.0254 -0.1666  0.0777
  245loPI    C3 3907  17.341  10.091   9.888 -0.0299 -0.2555 -0.1538
  245loPI   PO4 3908  17.515  10.074   9.292 -0.2996  0.2489 -0.1028
  245loPI   GL1 3909  17.596   9.681   8.920 -0.0720  0.1715  0.2414
  245loPI   GL2 3910  17.240   9.615   8.717  0.0053  0.2163  0.2201
  245loPI   C1A 3911  18.040   9.730   8.580  0.1722  0.3888 -0.2112
  245loPI   C2A 3912  18.450   9.748   8.243 -0.0195 -0.0068  0.2200
  245loPI   C3A 3913  18.579   9.613   7.897  0.2786  0.0477  0.2147
  245loPI   C4A 3914  18.531   9.435   7.455 -0.1502 -0.1662  0.3689
  245loPI   C5A 3915  18.548   9.616   7.028 -0.4281  0.0121  0.0121
  245loPI   C6A 3916  18.744  10.088   6.913  0.3836  0.0849  0.0795
  245loPI   C1B 3917  17.440   9.684   8.327  0.2901  0.0810 -0.1536
  245loPI   C2B 3918  17.634   9.488   8.010 -0.1611 -0.2026  0.2625
  245loPI   C3B 3919  17.697   9.524   7.608  0.2565  0.2097 -0.1250
  245loPI   C4B 3920  18.065   9.478   7.399 -0.0083  0.0620 -0.4957
  246loPI    C1 3921   1.356  14.479   9.741 -0.0960  0.1122  0.0631
  246loPI    C2 3922   1.344  14.331  10.112 -0.0518  0.2541  0.1219
  246loPI    C3 3923   1.558  14.660  10.035  0.1395  0.0857 -0.0796
  246loPI   PO4 3924   1.409  14.212   9.593  0.1598  0.3565  0.0592
  246loPI   GL1 3925   1.418  14.071   9.112  0.1682  0.1882 -0.1249
  246loPI   GL2 3926   1.258  13.828   8.936  0.1131  0.1686 -0.2210
  246loPI   C1A 3927   1.455  14.261   8.712 -0.2167  0.4322  0.0163
  246loPI   C2A 3928   1.376  14.142   8.278 -0.1532  0.2611 -0.0017
  246loPI   C3A 3929   1.305  13.720   8.258 -0.3566 -0.2984 -0.0257
  246loPI   C4A 3930   1.141  13.393   8.144 -0.0382  0.0761  0.1694
  246loPI   C5A 3931   1.209  13.085   7.870  0.1216 -0.0901  0.0987
  246loPI   C6A 3932   1.462  12.946   7.449 -0.2615  0.0672  0.0256
  246loPI   C1B 3933   1.070  13.958   8.677 -0.2883  0.3846  0.0512
  246loPI   C2B 3934   0.840  13.790   8.359  0.2803 -0.3618 -0.0386
  246loPI   C3B 3935   0.789  13.676   7.914 -0.1645 -0.1318 -0.1933
  246loPI   C4B 3936   0.888  13.362   7.697  0.2957 -0.1938  0.0073
  247loPI    C1 3937  18.955   5.027  10.229 -0.1854 -0.2187  0.0869
  247loPI    C2 3938  18.905   5.301  10.517 -0.0452 -0.0899 -0.0096
  247loPI    C3 3939  19.188   5.021  10.554  0.2264  0.1549 -0.1892
  247loPI   PO4 3940  18.764   4.893  10.220 -0.1107  0.1497 -0.0364
  247loPI   GL1 3941  18.599   4.673   9.869 -0.2533  0.0965 -0.1545
  247loPI   GL2 3942  18.598   4.891   9.731 -0.0946  0.0548  0.0687
  247loPI   C1A 3943  18.794   4.532   9.502 -0.1894 -0.1071  0.1488
  247loPI   C2A 3944  18.969   4.379   9.127 -0.1278  0.0994 -0.2793
  247loPI   C3A 3945  19.144   4.350   8.765 -0.0405  0.0653  0.0205
  247loPI   C4A 3946  19.314   4.121   8.485 -0.0973 -0.1409 -0.0990
  247loPI   C5A 3947  19.250   4.094   8.010 -0.0495 -0.0119  0.1575
  247loPI   C6A 3948  19.515   4.321   7.695  0.1621  0.0475 -0.2094
  247loPI   C1B 3949  18.613   4.946   9.264 -0.1193 -0.0023 -0.1331
  247loPI   C2B 3950  18.550   4.976   8.768  0.1178 -0.0078 -0.2030
  247loPI   C3B 3951  18.630   4.865   8.344  0.1298 -0.0184  0.1583
  247loPI   C4B 3952  18.819   4.659   8.051  0.3178  0.0036 -0.1895
  248loPI    C1 3953   8.611   6.294   9.833 -0.2945 -0.1264 -0.0486
  248loPI    C2 3954   8.480   6.515  10.140  0.0763  0.2870 -0.1775
  248loPI    C3 3955   8.617   6.145  10.204  0.0042  0.3111  0.1310
  248loPI   PO4 3956   8.340   6.402   9.605 -0.3718 -0.3243 -0.0310
  248loPI   GL1 3957   8.110   6.154   9.331 -0.0067 -0.1331  0.0909
  248loPI   GL2 3958   7.891   6.366   9.323 -0.4025 -0.2226  0.1556
  248loPI   C1A 3959   8.318   6.105   8.901 -0.0345 -0.3242 -0.1821
  248loPI   C2A 3960   8.572   5.804   8.662  0.1672  0.1116 -0.0082
  248loPI   C3A 3961   8.659   5.655   8.265 -0.3040  0.2080  0.1493
  248loPI   C4A 3962   8.837   5.527   7.886 -0.3411 -0.2517 -0.0662
  248loPI   C5A 3963   8.984   5.067   7.644  0.0516  0.3958 -0.0236
  248loPI   C6A 3964   8.755   4.866   7.403  0.2201  0.0236  0.0353
  248loPI   C1B 3965   7.697   6.621   8.956 -0.2333  0.1083 -0.0047
  248loPI   C2B 3966   7.805   6.911   8.611 -0.0554  0.3327 -0.1710
  248loPI   C3B 3967   7.941   7.198   8.268 -0.0196 -0.2472 -0.0426
  248loPI   C4B 3968   8.341   7.523   8.351 -0.1357 -0.0846  0.1405
  249loPI    C1 3969   8.728   9.182   9.723 -0.1027  0.0830  0.2319
  249loPI    C2 3970   9.092   9.286   9.852  0.0783 -0.2756  0.0252
  249loPI    C3 3971   8.842   9.089  10.094 -0.0146  0.0451  0.1956
  249loPI   PO4 3972   8.693   9.324   9.539 -0.3166 -0.0231 -0.0448
  249loPI   GL1 3973   8.632   9.329   9.125 -0.2898 -0.1573  0.1680
  249loPI   GL2 3974   8.242   9.238   8.949  0.0510 -0.1159 -0.1557
  249loPI   C1A 3975   8.617   9.416   8.696 -0.3035  0.4402  0.3151
  249loPI   C2A 3976   8.671   9.451   8.239 -0.1995 -0.0880 -0.0653
  249loPI   C3A 3977   8.656   9.536   7.766 -0.0381 -0.0624  0.1158
  249loPI   C4A 3978   8.925   9.249   7.532  0.1194  0.2223 -0.2325
  249loPI   C5A 3979   9.368   9.277   7.592  0.0338 -0.0991 -0.1366
  249loPI   C6A 3980   9.754   9.541   7.801 -0.0482  0.4014  0.2163
  249loPI   C1B 3981   8.176   9.192   8.524 -0.2165 -0.0504 -0.1720
  249loPI   C2B 3982   8.256   9.201   8.155 -0.0715 -0.1025  0.0010
  249loPI   C3B 3983   8.266   8.781   7.977  0.2470 -0.0501 -0.0526
  249loPI   C4B 3984   8.241   8.508   7.652  0.0061  0.1867 -0.3711
  250loPI    C1 3985  14.638  17.638   9.868 -0.1889  0.0088  0.0282
  250loPI    C2 3986  14.529  17.975  10.053  0.1787  0.0796  0.1246
  250loPI    C3 3987  14.811  17.742  10.213  0.2001 -0.0770 -0.1357
  250loPI   PO4 3988  14.667  17.677   9.625  0.0535  0.0339  0.0692
  250loPI   GL1 3989  14.355  17.618   9.284  0.1556  0.0020 -0.0172
  250loPI   GL2 3990  14.317  17.374   9.163 -0.1094  0.4428 -0.0101
  250loPI   C1A 3991  14.240  17.686   8.777  0.2597 -0.0956  0.6127
  250loPI   C2A 3992  14.035  17.816   8.377  0.2443  0.0245 -0.1883
  250loPI   C3A 3993  13.958  17.600   7.962  0.0218 -0.0154 -0.2280
  250loPI   C4A 3994  13.868  17.701   7.535 -0.1214  0.1088  0.2776
  250loPI   C5A 3995  13.946  18.015   7.280 -0.0801 -0.4491  0.1907
  250loPI   C6A 3996  14.311  18.255   7.016 -0.0329  0.2651 -0.0151
  250loPI   C1B 3997  13.886  17.380   8.978 -0.0652  0.2215  0.0170
  250loPI   C2B 3998  13.821  17.399   8.531  0.1444  0.1120 -0.0833
  250loPI   C3B 3999  13.633  17.244   8.233  0.0310 -0.3389 -0.0375
  250loPI   C4B 4000  13.697  17.164   7.866 -0.0689 -0.0482 -0.1560
  251loPI    C1 4001   6.764  16.035  10.211 -0.2347 -0.0686  0.0143
  251loPI    C2 4002   6.820  16.367  10.427 -0.2209  0.1176 -0.2701
  251loPI    C3 4003   6.627  16.055  10.586 -0.0191  0.1677  0.0835
  251loPI   PO4 4004   6.737  16.159   9.941  0.0603 -0.0769 -0.0920
  251loPI   GL1 4005   6.633  16.027   9.602  0.1340 -0.2159 -0.0449
  251loPI   GL2 4006   6.251  16.138   9.501 -0.3237  0.1612  0.2256
  251loPI   C1A 4007   6.748  16.227   9.131 -0.0318 -0.1743 -0.0290
  251loPI   C2A 4008   6.615  16.249   8.704 -0.3974  0.1740 -0.1441
  251loPI   C3A 4009   6.703  16.291   8.302  0.1850 -0.1792 -0.3578
  251loPI   C4A 4010   6.778  16.386   7.968 -0.0575 -0.1080 -0.0117
  251loPI   C5A 4011   6.639  16.591   7.582 -0.0645 -0.3248 -0.0197
  251loPI   C6A 4012   6.607  16.763   7.184 -0.3649  0.0269 -0.1203
  251loPI   C1B 4013   6.170  15.936   9.112 -0.5704 -0.2341  0.0952
  251loPI   C2B 4014   6.120  16.192   8.765 -0.2235 -0.2221  0.1089
  251loPI   C3B 4015   6.022  16.264   8.301  0.2575  0.1756  0.0097
  251loPI   C4B 4016   5.938  16.321   7.914 -0.1391 -0.2939  0.0620
  252loPI    C1 4017   5.771  14.226   9.978 -0.1171  0.0972  0.0914
  252loPI    C2 4018   5.486  13.960  10.069 -0.0899 -0.0252 -0.1713
  252loPI    C3 4019   5.626  14.207  10.350 -0.3775 -0.0373 -0.0138
  252loPI   PO4 4020   5.648  14.351   9.708  0.1013  0.3037  0.0222
  252loPI   GL1 4021   5.324  14.456   9.287  0.2830 -0.0303  0.0871
  252loPI   GL2 4022   4.904  14.523   9.360  0.1320  0.0821 -0.2670
  252loPI   C1A 4023   5.199  14.643   8.903 -0.1631 -0.2204  0.0634
  252loPI   C2A 4024   5.069  14.762   8.525 -0.2408 -0.0906 -0.1841
  252loPI   C3A 4025   4.799  14.451   8.192  0.1491  0.1613 -0.2275
  252loPI   C4A 4026   4.661  14.153   7.919  0.0706 -0.1809 -0.1193
  252loPI   C5A 4027   4.688  13.837   7.502 -0.2676 -0.0689 -0.0866
  252loPI   C6A 4028   4.735  13.440   7.331 -0.0711 -0.0426  0.1322
  252loPI   C1B 4029   4.776  14.398   9.018  0.5514 -0.0449  0.3637
  252loPI   C2B 4030   4.813  14.135   8.698  0.0193 -0.1293 -0.1340
  252loPI   C3B 4031   4.961  13.896   8.376  0.2401  0.0771 -0.0832
  252loPI   C4B 4032   5.148  14.031   7.942  0.4200  0.3550 -0.1390
  253loPI    C1 4033  18.770   8.325   9.848  0.0949 -0.3178 -0.0528
  253loPI    C2 4034  18.495   8.072   9.992 -0.1767 -0.0892 -0.1600
  253loPI    C3 4035  18.669   8.339  10.235  0.0017 -0.2771 -0.0783
  253loPI   PO4 4036  18.594   8.499   9.671 -0.3823 -0.0016  0.2285
  253loPI   GL1 4037  18.540   8.440   9.170  0.0525 -0.0339 -0.3335
  253loPI   GL2 4038  18.833   8.494   9.192  0.1613 -0.2391 -0.1061
  253loPI   C1A 4039  18.141   8.329   8.892  0.2200 -0.1599 -0.3570
  253loPI   C2A 4040  17.942   8.089   8.585  0.3107  0.0943  0.1217
  253loPI   C3A 4041  17.852   8.100   8.150 -0.1706 -0.0718  0.0716
  253loPI   C4A 4042  18.085   8.129   7.852  0.1840 -0.0333  0.0563
  253loPI   C5A 4043  18.457   7.858   7.771  0.0810 -0.2542 -0.0155
  253loPI   C6A 4044  18.586   7.527   7.538 -0.0342 -0.2411  0.0270
  253loPI   C1B 4045  18.983   8.627   8.772  0.2619 -0.0987 -0.4354
  253loPI   C2B 4046  18.935   8.854   8.294 -0.0239 -0.1122 -0.2549
  253loPI   C3B 4047  19.105   8.709   7.954 -0.0643  0.0230 -0.1332
  253loPI   C4B 4048  18.990   8.954   7.641 -0.0741  0.0190  0.0360
  254loPI    C1 4049  14.806   0.648   9.701  0.0395  0.2696 -0.0572
  254loPI    C2 4050  15.147   0.506   9.855 -0.0057  0.0908 -0.1187
  254loPI    C3 4051  14.900   0.725  10.082 -0.0028 -0.0482  0.0199
  254loPI   PO4 4052  14.739   0.427   9.543 -0.2885 -0.2046 -0.0219
  254loPI   GL1 4053  14.895   0.312   9.202 -0.3940  0.0020 -0.2054
  254loPI   GL2 4054  15.028   0.567   8.925 -0.0690 -0.0642  0.0469
  254loPI   C1A 4055  14.787   0.060   8.887 -0.2043 -0.0538 -0.1971
  254loPI   C2A 4056  15.004  -0.279   8.652 -0.1072 -0.2051  0.0678
  254loPI   C3A 4057  15.040  -0.641   8.323 -0.1573 -0.0454 -0.0290
  254loPI   C4A 4058  15.034  -0.661   7.815  0.3553  0.1503  0.2999
  254loPI   C5A 4059  14.903  -0.533   7.384 -0.0903  0.1934  0.1089
  254loPI   C6A 4060  14.501  -0.470   7.043  0.0834 -0.0034  0.0044
  254loPI   C1B 4061  15.168   0.298   8.585 -0.1221  0.0407  0.1230
  254loPI   C2B 4062  15.245  -0.097   8.236  0.0196  0.1425 -0.1668
  254loPI   C3B 4063  15.270  -0.186   7.840 -0.3281  0.1608  0.1549
  254loPI   C4B 4064  15.425  -0.273   7.427  0.1356  0.0151  0.1286
  255loPI    C1 4065  15.499  14.052   9.799  0.2086 -0.3303  0.0198
  255loPI    C2 4066  15.122  13.997   9.921  0.1567  0.0956  0.0691
  255loPI    C3 4067  15.414  14.053  10.189  0.1909  0.1472  0.0214
  255loPI   PO4 4068  15.548  14.142   9.514 -0.0737  0.0210  0.1081
  255loPI   GL1 4069  15.472  14.238   9.099 -0.5205  0.2756  0.1269
  255loPI   GL2 4070  15.694  13.910   8.890  0.2086 -0.1210 -0.0747
  255loPI   C1A 4071  15.178  13.953   8.742  0.0511  0.0541 -0.2014
  255loPI   C2A 4072  15.203  13.806   8.350  0.0584 -0.0340  0.1535
  255loPI   C3A 4073  15.148  13.512   8.022 -0.2502 -0.4434  0.0500
  255loPI   C4A 4074  15.133  13.449   7.635  0.3756  0.1324 -0.1900
  255loPI   C5A 4075  15.059  13.221   7.241 -0.0035 -0.0593  0.1203
  255loPI   C6A 4076  14.754  13.098   6.989  0.0326  0.1968  0.0069
  255loPI   C1B 4077  15.644  13.702   8.502 -0.0238  0.3960 -0.4788
  255loPI   C2B 4078  15.938  13.360   8.227  0.2294 -0.3254  0.0675
  255loPI   C3B 4079  16.186  13.044   8.364  0.1560  0.1213  0.0860
  255loPI   C4B 4080  16.243  12.676   8.319  0.1575  0.0533  0.1951
  256loPI    C1 4081  14.159   7.519  10.314  0.2513 -0.1265 -0.1133
  256loPI    C2 4082  14.291   7.160  10.196  0.3345 -0.0409 -0.2842
  256loPI    C3 4083  14.448   7.335  10.520 -0.0203 -0.3576  0.0694
  256loPI   PO4 4084  13.845   7.429  10.014 -0.4006 -0.0796 -0.2343
  256loPI   GL1 4085  13.679   7.649   9.660 -0.1101  0.0891 -0.0603
  256loPI   GL2 4086  13.526   7.882   9.470  0.0016  0.0453  0.2196
  256loPI   C1A 4087  13.512   7.323   9.336  0.1743 -0.2437 -0.1921
  256loPI   C2A 4088  13.502   7.225   8.901  0.2193 -0.0900  0.1538
  256loPI   C3A 4089  13.656   7.111   8.383  0.0730  0.0040 -0.0607
  256loPI   C4A 4090  13.788   7.103   7.984  0.1298  0.3611 -0.0816
  256loPI   C5A 4091  13.776   7.365   7.589 -0.3920  0.0002 -0.0116
  256loPI   C6A 4092  13.757   7.570   7.178  0.0964  0.2356  0.2413
  256loPI   C1B 4093  13.569   7.735   9.083 -0.0129  0.0359 -0.0387
  256loPI   C2B 4094  13.690   7.564   8.656  0.1038  0.2437  0.0915
  256loPI   C3B 4095  14.016   7.520   8.339 -0.3081  0.0848 -0.1569
  256loPI   C4B 4096  14.162   7.435   7.972  0.0591 -0.2118 -0.1692
  257loPI    C1 4097   1.831   1.261   9.963  0.1655  0.0151 -0.1013
  257loPI    C2 4098   1.803   1.617   9.784  0.0464  0.1250  0.1315
  257loPI    C3 4099   1.790   1.593  10.183  0.1288 -0.1338  0.1198
  257loPI   PO4 4100   1.683   1.099   9.718 -0.0938  0.2556 -0.2634
  257loPI   GL1 4101   1.525   1.140   9.316  0.0907 -0.0990  0.1841
  257loPI   GL2 4102   1.827   0.965   9.108  0.1412  0.3260  0.2924
  257loPI   C1A 4103   1.281   1.160   8.916 -0.1179 -0.0559 -0.0892
  257loPI   C2A 4104   1.121   1.287   8.517 -0.0303  0.0204  0.0160
  257loPI   C3A 4105   0.969   1.175   8.114 -0.2356 -0.2284  0.2012
  257loPI   C4A 4106   0.736   1.158   7.640  0.0405 -0.2425 -0.1097
  257loPI   C5A 4107   0.886   0.862   7.336 -0.1882  0.0123  0.1176
  257loPI   C6A 4108   1.015   0.771   7.034 -0.0589  0.4158 -0.4074
  257loPI   C1B 4109   1.664   0.911   8.716 -0.2297  0.1170 -0.1220
  257loPI   C2B 4110   1.622   1.116   8.296 -0.3536  0.0271  0.1233
  257loPI   C3B 4111   1.339   1.007   7.872 -0.1831 -0.0616  0.3354
  257loPI   C4B 4112   1.348   1.196   7.504  0.0324  0.0763  0.0411
  258loPI    C1 4113  10.363   5.730   9.795 -0.0302  0.1292  0.1009
  258loPI    C2 4114  10.352   5.534  10.143 -0.0697 -0.0754 -0.0134
  258loPI    C3 4115  10.065   5.797  10.052 -0.2045 -0.2176 -0.0034
  258loPI   PO4 4116  10.653   5.708   9.753 -0.0343  0.1461  0.0964
  258loPI   GL1 4117  10.879   5.612   9.431  0.2207  0.1170 -0.2739
  258loPI   GL2 4118  10.846   5.312   9.321  0.0377  0.0245 -0.2353
  258loPI   C1A 4119  11.096   5.734   9.035 -0.0360  0.0145  0.1220
  258loPI   C2A 4120  11.302   5.794   8.707 -0.1183 -0.1147 -0.1150
  258loPI   C3A 4121  11.500   5.816   8.390  0.1692 -0.1249  0.1382
  258loPI   C4A 4122  11.582   5.587   7.983 -0.2935 -0.0138 -0.1742
  258loPI   C5A 4123  11.670   5.379   7.681  0.1043 -0.2079  0.0595
  258loPI   C6A 4124  11.895   5.181   7.276  0.0386  0.0340 -0.3845
  258loPI   C1B 4125  10.774   4.963   8.950 -0.1156 -0.1318 -0.0063
  258loPI   C2B 4126  10.802   5.047   8.478  0.1023  0.2755  0.3930
  258loPI   C3B 4127  10.889   5.009   8.039 -0.1378 -0.3487  0.0389
  258loPI   C4B 4128  10.568   5.022   7.664 -0.0483 -0.1408  0.2446
  259loPI    C1 4129  14.750  18.860   9.874 -0.1575  0.0699  0.1685
  259loPI    C2 4130  14.614  18.484   9.862 -0.2168  0.0939  0.0779
  259loPI    C3 4131  15.007  18.554   9.849 -0.2025  0.0321  0.1659
  259loPI   PO4 4132  14.514  18.995   9.744 -0.2827  0.2427  0.1695
  259loPI   GL1 4133  14.330  19.134   9.354  0.3581 -0.2593  0.1546
  259loPI   GL2 4134  14.149  18.875   9.229 -0.0868 -0.0714  0.1834
  259loPI   C1A 4135  14.261  19.449   8.945 -0.0286 -0.3500 -0.0284
  259loPI   C2A 4136  14.296  19.612   8.573  0.2341  0.0772 -0.0908
  259loPI   C3A 4137  14.303  19.523   8.110 -0.2694  0.1913 -0.3046
  259loPI   C4A 4138  14.337  19.748   7.695  0.0740 -0.1098 -0.1874
  259loPI   C5A 4139  14.417  20.030   7.312  0.0336  0.3356  0.1735
  259loPI   C6A 4140  14.597  20.338   7.256  0.2996  0.1422 -0.3269
  259loPI   C1B 4141  14.256  18.676   8.859  0.3583 -0.0873 -0.2580
  259loPI   C2B 4142  14.399  18.790   8.413 -0.0976 -0.0494  0.3905
  259loPI   C3B 4143  14.533  18.990   8.021 -0.1145  0.0589  0.1064
  259loPI   C4B 4144  14.335  19.178   7.688 -0.1641  0.2725 -0.3002
  260loPI    C1 4145  14.966  10.649   9.681 -0.0232 -0.0696 -0.1436
  260loPI    C2 4146  14.967  10.724  10.074 -0.1300  0.1091 -0.1766
  260loPI    C3 4147  15.149  10.397   9.933 -0.0451  0.0718  0.0157
  260loPI   PO4 4148  15.105  10.829   9.494  0.1737 -0.0861  0.1086
  260loPI   GL1 4149  15.093  10.874   9.002  0.1857 -0.0411 -0.3513
  260loPI   GL2 4150  15.159  10.570   9.078 -0.2103 -0.1208 -0.0040
  260loPI   C1A 4151  15.079  11.046   8.623 -0.2009  0.2777 -0.2235
  260loPI   C2A 4152  15.228  11.282   8.256 -0.0638  0.0451  0.2970
  260loPI   C3A 4153  15.508  11.256   7.864  0.5476 -0.0171 -0.2004
  260loPI   C4A 4154  15.691  11.090   7.522  0.1983 -0.3949  0.4180
  260loPI   C5A 4155  15.906  10.810   7.146  0.0383 -0.2423 -0.1904
  260loPI   C6A 4156  15.912  10.591   6.874 -0.1388  0.0924 -0.1995
  260loPI   C1B 4157  15.409  10.674   8.683  0.0028 -0.1162 -0.3233
  260loPI   C2B 4158  15.455  10.754   8.313  0.0077 -0.0556 -0.1702
  260loPI   C3B 4159  15.158  10.839   7.983 -0.1157  0.0201  0.2153
  260loPI   C4B 4160  15.087  10.868   7.587  0.0243 -0.3207 -0.0044
  261loPI    C1 4161  15.644  15.243   9.468  0.0016  0.1780  0.3564
  261loPI    C2 4162  15.288  15.086   9.565  0.0772 -0.0358  0.2946
  261loPI    C3 4163  15.386  15.454   9.690 -0.2329  0.0926  0.1694
  261loPI   PO4 4164  15.661  15.023   9.257 -0.2567  0.0074  0.1747
  261loPI   GL1 4165  15.524  14.764   8.933  0.0172 -0.1533  0.0897
  261loPI   GL2 4166  15.267  14.897   8.861 -0.1736 -0.0222  0.1828
  261loPI   C1A 4167  15.361  14.568   8.447  0.0143 -0.0248  0.0801
  261loPI   C2A 4168  15.350  14.623   8.009 -0.4030  0.1869 -0.2104
  261loPI   C3A 4169  15.354  14.419   7.632 -0.0236  0.1260 -0.3152
  261loPI   C4A 4170  15.096  14.533   7.267  0.1475 -0.0045  0.2746
  261loPI   C5A 4171  15.191  14.732   6.915 -0.0934 -0.0423 -0.0737
  261loPI   C6A 4172  15.390  15.009   6.578 -0.2058 -0.2741 -0.1083
  261loPI   C1B 4173  15.539  14.999   8.513 -0.0222 -0.0022  0.0373
  261loPI   C2B 4174  15.502  15.076   8.013  0.0510  0.2232 -0.3205
  261loPI   C3B 4175  15.585  14.970   7.628  0.1389  0.0742  0.0338
  261loPI   C4B 4176  15.603  14.792   7.262  0.2755  0.1366  0.3367
  262loPI    C1 4177  12.737  11.446   9.610  0.0994  0.0173 -0.2059
  262loPI    C2 4178  12.381  11.376   9.778  0.1538 -0.2954 -0.2156
  262loPI    C3 4179  12.716  11.317   9.988  0.2006  0.0808 -0.1782
  262loPI   PO4 4180  12.687  11.345   9.357 -0.0289 -0.0066 -0.0462
  262loPI   GL1 4181  12.488  11.607   8.960  0.0817 -0.0640 -0.2117
  262loPI   GL2 4182  12.114  11.730   8.921 -0.1369  0.2199 -0.3020
  262loPI   C1A 4183  12.679  11.532   8.577  0.1728 -0.5478  0.1806
  262loPI   C2A 4184  12.918  11.367   8.221 -0.0403  0.3341  0.2426
  262loPI   C3A 4185  13.020  11.401   7.721 -0.0465 -0.2548  0.2301
  262loPI   C4A 4186  13.145  11.373   7.268 -0.0654 -0.0227  0.0627
  262loPI   C5A 4187  13.099  11.071   6.935 -0.2213  0.0805  0.1936
  262loPI   C6A 4188  12.934  11.281   6.532 -0.1623  0.0320 -0.0685
  262loPI   C1B 4189  12.089  12.153   8.690  0.0896 -0.0090 -0.3760
  262loPI   C2B 4190  12.219  12.603   8.633 -0.2294 -0.0586  0.0809
  262loPI   C3B 4191  12.307  12.798   8.302 -0.1493 -0.2980 -0.3191
  262loPI   C4B 4192  12.507  12.898   7.916 -0.1578  0.0037  0.1985
  263loPI    C1 4193  16.231  10.765   9.404 -0.0160 -0.0534  0.0043
  263loPI    C2 4194  15.932  10.823   9.662 -0.0369  0.1396 -0.0622
  263loPI    C3 4195  16.286  11.001   9.722  0.0330 -0.0066 -0.0385
  263loPI   PO4 4196  16.127  10.721   9.211 -0.2432  0.2042  0.2614
  263loPI   GL1 4197  16.087  10.546   8.873 -0.0979  0.1555  0.2290
  263loPI   GL2 4198  16.253  10.424   8.685 -0.1254  0.0136  0.0277
  263loPI   C1A 4199  16.022  10.629   8.342 -0.0527  0.0768  0.0389
  263loPI   C2A 4200  16.034  10.343   7.973  0.0710  0.1349 -0.0311
  263loPI   C3A 4201  16.117  10.240   7.503 -0.0704 -0.1644 -0.1764
  263loPI   C4A 4202  16.290  10.296   7.118 -0.2878 -0.1206  0.0084
  263loPI   C5A 4203  16.530  10.011   6.833 -0.1315 -0.1075 -0.2279
  263loPI   C6A 4204  16.551   9.590   6.772  0.2263 -0.1356 -0.1503
  263loPI   C1B 4205  16.161  10.072   8.426  0.0726 -0.3079  0.0861
  263loPI   C2B 4206  16.366   9.926   8.175  0.1830  0.0140  0.1706
  263loPI   C3B 4207  16.271   9.843   7.772 -0.2865  0.2005 -0.3582
  263loPI   C4B 4208  16.427   9.803   7.357  0.1240 -0.1937 -0.6010
  264loPI    C1 4209   1.159   6.298  10.053 -0.2319  0.0601 -0.1997
  264loPI    C2 4210   0.974   5.990   9.877  0.0691 -0.1971 -0.0750
  264loPI    C3 4211   1.110   5.954  10.251  0.0237  0.1219 -0.0251
  264loPI   PO4 4212   1.287   6.412   9.833  0.1001  0.1768 -0.1942
  264loPI   GL1 4213   1.234   6.674   9.513 -0.4518 -0.0501 -0.1820
  264loPI   GL2 4214   0.945   6.592   9.486 -0.0242  0.2798 -0.1358
  264loPI   C1A 4215   1.418   6.819   9.117 -0.0852 -0.0995 -0.2972
  264loPI   C2A 4216   1.349   6.755   8.716 -0.1379 -0.3106 -0.3444
  264loPI   C3A 4217   1.362   6.719   8.231  0.2458 -0.0137 -0.0236
  264loPI   C4A 4218   1.180   6.936   7.895 -0.5126 -0.0877  0.1020
  264loPI   C5A 4219   1.098   7.193   7.596 -0.0800 -0.1712 -0.0582
  264loPI   C6A 4220   0.931   7.466   7.322  0.0421  0.0699  0.0028
  264loPI   C1B 4221   1.014   6.510   9.089 -0.1076  0.1460 -0.3110
  264loPI   C2B 4222   1.051   6.076   8.865 -0.0077  0.1362 -0.1117
  264loPI   C3B 4223   0.847   5.654   9.022  0.3213 -0.3419  0.1092
  264loPI   C4B 4224   0.577   5.457   9.209  0.0308  0.2648 -0.1552
  265loPI    C1 4225  13.271   8.411  10.013  0.3153  0.0678 -0.0885
  265loPI    C2 4226  13.226   8.502  10.400  0.0587 -0.0771 -0.0818
  265loPI    C3 4227  13.400   8.157  10.295 -0.0801 -0.1446 -0.0918
  265loPI   PO4 4228  13.399   8.663   9.905  0.1777 -0.4113 -0.2556
  265loPI   GL1 4229  13.356   8.826   9.620  0.0722 -0.1330 -0.3300
  265loPI   GL2 4230  13.642   8.942   9.478  0.2589 -0.0873 -0.0039
  265loPI   C1A 4231  13.085   8.656   9.233  0.2789 -0.2706  0.1234
  265loPI   C2A 4232  13.121   8.766   8.802 -0.1040 -0.0567  0.2058
  265loPI   C3A 4233  13.315   8.837   8.465 -0.0299 -0.3288  0.1702
  265loPI   C4A 4234  13.193   9.037   8.045 -0.1851  0.0511 -0.0952
  265loPI   C5A 4235  13.303   9.045   7.588 -0.1337 -0.0664 -0.0011
  265loPI   C6A 4236  13.356   9.131   7.177  0.2985 -0.1445  0.1013
  265loPI   C1B 4237  13.627   8.888   8.969  0.0284  0.0435  0.1414
  265loPI   C2B 4238  13.794   8.942   8.560 -0.0725 -0.1907 -0.0324
  265loPI   C3B 4239  14.146   9.091   8.414 -0.2350 -0.1462 -0.1822
  265loPI   C4B 4240  14.267   9.076   8.031  0.2891  0.3119 -0.2307
  266loPI    C1 4241  18.321  10.086   9.614  0.2037  0.0528  0.0456
  266loPI    C2 4242  18.202  10.083   9.996  0.2960 -0.0439  0.0741
  266loPI    C3 4243  18.285   9.739   9.809 -0.0427 -0.0219 -0.1270
  266loPI   PO4 4244  18.314  10.410   9.498 -0.0197  0.0967 -0.2136
  266loPI   GL1 4245  18.419  10.602   9.080 -0.0368  0.0483 -0.0874
  266loPI   GL2 4246  18.670  10.606   9.184  0.3406 -0.0406  0.3795
  266loPI   C1A 4247  18.451  10.842   8.765  0.0535  0.1175  0.2674
  266loPI   C2A 4248  18.519  11.161   8.429  0.0536 -0.0574 -0.0740
  266loPI   C3A 4249  18.205  11.401   8.091 -0.1014 -0.4060  0.1360
  266loPI   C4A 4250  18.070  11.482   7.688  0.0509  0.2769  0.1614
  266loPI   C5A 4251  18.340  11.442   7.327  0.0843 -0.0271  0.3779
  266loPI   C6A 4252  18.666  11.671   7.061 -0.0996 -0.2219 -0.0306
  266loPI   C1B 4253  18.797  10.398   8.818  0.0655 -0.1691  0.2023
  266loPI   C2B 4254  18.733  10.238   8.361 -0.3396  0.1437  0.0610
  266loPI   C3B 4255  18.605  10.181   7.969 -0.1164 -0.1246 -0.0170
  266loPI   C4B 4256  18.475  10.500   7.659 -0.2066 -0.0926 -0.0122
  267loPI    C1 4257  17.065   6.087   9.856 -0.3220  0.3070  0.1557
  267loPI    C2 4258  17.453   6.039   9.940 -0.2463  0.1881 -0.2378
  267loPI    C3 4259  17.239   6.317  10.132 -0.0572  0.0172  0.2354
  267loPI   PO4 4260  17.056   6.057   9.603  0.0281  0.2436  0.1579
  267loPI   GL1 4261  17.201   5.894   9.261  0.2433 -0.3476 -0.0943
  267loPI   GL2 4262  17.433   6.164   9.345 -0.0327  0.0857 -0.0472
  267loPI   C1A 4263  17.318   5.794   8.804 -0.2125  0.0256  0.3018
  267loPI   C2A 4264  17.692   5.952   8.546 -0.0355 -0.2850  0.3575
  267loPI   C3A 4265  17.866   6.071   8.054 -0.2267  0.1154  0.1924
  267loPI   C4A 4266  17.836   6.394   7.886  0.1741 -0.1143  0.1862
  267loPI   C5A 4267  18.101   6.509   7.444 -0.0005 -0.2132  0.1972
  267loPI   C6A 4268  18.361   6.624   7.097  0.2547 -0.0014  0.0636
  267loPI   C1B 4269  17.731   5.899   9.036 -0.2025  0.2696  0.0268
  267loPI   C2B 4270  17.862   5.469   8.700  0.2478  0.0803 -0.1750
  267loPI   C3B 4271  17.634   5.519   8.307  0.2157 -0.0013  0.1317
  267loPI   C4B 4272  17.353   5.608   8.032 -0.2552  0.0870  0.2512
  268loPI    C1 4273   1.993  16.834   9.431 -0.2022 -0.0479  0.0632
  268loPI    C2 4274   2.291  16.698   9.661  0.1029 -0.0641 -0.3325
  268loPI    C3 4275   2.248  17.091   9.600 -0.1034 -0.0460 -0.0881
  268loPI   PO4 4276   1.780  16.778   9.489  0.0011 -0.3551 -0.0778
  268loPI   GL1 4277   1.360  16.889   9.413 -0.1985  0.3368 -0.0216
  268loPI   GL2 4278   1.212  17.162   9.366  0.1136 -0.2624 -0.0567
  268loPI   C1A 4279   1.415  16.729   8.886 -0.2373  0.0621 -0.0489
  268loPI   C2A 4280   1.295  16.537   8.615  0.2428 -0.1619 -0.3294
  268loPI   C3A 4281   1.323  16.520   8.206 -0.2956  0.1885 -0.4601
  268loPI   C4A 4282   1.298  16.435   7.750 -0.0404  0.2005 -0.3390
  268loPI   C5A 4283   1.421  16.616   7.343 -0.1907  0.0039 -0.0090
  268loPI   C6A 4284   1.260  17.087   7.220  0.1973  0.1588 -0.0188
  268loPI   C1B 4285   1.444  17.308   9.086 -0.0128  0.1374 -0.1569
  268loPI   C2B 4286   1.645  17.206   8.745  0.0227 -0.2344  0.1237
  268loPI   C3B 4287   1.930  16.958   8.576  0.3575 -0.2962 -0.2646
  268loPI   C4B 4288   2.249  16.664   8.337  0.0814 -0.1925  0.3219
  269loPI    C1 4289   5.213  19.378  10.262 -0.0146  0.0421 -0.2031
  269loPI    C2 4290   4.977  19.643  10.076 -0.0426  0.2418  0.1089
  269loPI    C3 4291   4.816  19.360  10.309  0.0106  0.2006  0.0959
  269loPI   PO4 4292   5.469  19.530  10.147  0.4672  0.0123 -0.1357
  269loPI   GL1 4293   5.668  19.788   9.801 -0.1089 -0.0430  0.0046
  269loPI   GL2 4294   5.750  19.996   9.534 -0.3112 -0.2418 -0.4158
  269loPI   C1A 4295   5.659  19.453   9.442 -0.1532  0.1846 -0.2394
  269loPI   C2A 4296   5.666  19.477   8.991  0.1875  0.2289 -0.0328
  269loPI   C3A 4297   6.023  19.446   8.659 -0.0552  0.2817  0.1252
  269loPI   C4A 4298   6.344  19.328   8.357  0.5390  0.1442 -0.1066
  269loPI   C5A 4299   6.685  19.496   8.130  0.1420  0.1127 -0.1026
  269loPI   C6A 4300   7.062  19.471   8.003  0.1607  0.3295 -0.0573
  269loPI   C1B 4301   5.783  19.943   9.096  0.0785 -0.2310 -0.1547
  269loPI   C2B 4302   5.799  20.206   8.819 -0.1493  0.0088 -0.0441
  269loPI   C3B 4303   5.875  20.238   8.416  0.2133 -0.2029  0.0638
  269loPI   C4B 4304   5.944  20.124   8.008 -0.0030 -0.1554 -0.1392
  270loPI    C1 4305   8.533  18.847  10.224 -0.1707  0.1448 -0.1031
  270loPI    C2 4306   8.151  18.728  10.231 -0.1244 -0.0313 -0.3911
  270loPI    C3 4307   8.363  18.744  10.571 -0.3810  0.0523 -0.2323
  270loPI   PO4 4308   8.662  18.749   9.902 -0.0320  0.1180  0.0197
  270loPI   GL1 4309   8.543  18.748   9.481 -0.1465 -0.1538 -0.1677
  270loPI   GL2 4310   8.869  18.620   9.389 -0.1213 -0.1728 -0.0964
  270loPI   C1A 4311   8.381  18.870   9.141 -0.4362 -0.0255 -0.0027
  270loPI   C2A 4312   8.273  18.944   8.690  0.1848  0.1398 -0.0038
  270loPI   C3A 4313   8.465  18.942   8.254  0.1064 -0.4197 -0.1643
  270loPI   C4A 4314   8.277  19.053   7.947 -0.1240 -0.0311 -0.1445
  270loPI   C5A 4315   8.352  19.166   7.494 -0.1437 -0.0899 -0.1193
  270loPI   C6A 4316   8.438  19.251   7.116 -0.2972 -0.1366  0.0506
  270loPI   C1B 4317   9.193  18.373   9.036 -0.2643  0.2063  0.1693
  270loPI   C2B 4318   9.259  18.364   8.597  0.2609 -0.2497  0.1006
  270loPI   C3B 4319   9.167  18.369   8.184 -0.2584 -0.2364 -0.0834
  270loPI   C4B 4320   8.935  18.389   7.821 -0.0626 -0.2178 -0.0834
  271loPI    C1 4321   1.571  12.487   9.451  0.2141 -0.3203  0.0236
  271loPI    C2 4322   1.470  12.584   9.826 -0.0426 -0.5092  0.0060
  271loPI    C3 4323   1.656  12.851   9.594 -0.2108 -0.2646  0.1484
  271loPI   PO4 4324   1.335  12.388   9.358 -0.0863  0.3104  0.0627
  271loPI   GL1 4325   1.240  12.178   8.952 -0.0784  0.1338 -0.0297
  271loPI   GL2 4326   1.612  12.194   8.997  0.2029  0.0659  0.2349
  271loPI   C1A 4327   1.018  12.139   8.502  0.3126  0.1955  0.0188
  271loPI   C2A 4328   1.147  11.996   8.181 -0.1105  0.1551  0.2528
  271loPI   C3A 4329   1.267  12.105   7.757  0.2339  0.4558 -0.0545
  271loPI   C4A 4330   1.411  11.935   7.399  0.0016  0.0309  0.2229
  271loPI   C5A 4331   1.804  11.743   7.209  0.1744  0.1021  0.1481
  271loPI   C6A 4332   2.026  11.382   7.222 -0.1264  0.2327  0.1077
  271loPI   C1B 4333   1.556  12.045   8.523 -0.2067  0.1908 -0.1050
  271loPI   C2B 4334   1.687  12.074   8.070 -0.1122  0.1222 -0.4886
  271loPI   C3B 4335   1.916  11.957   7.639 -0.2481  0.1678 -0.1918
  271loPI   C4B 4336   2.305  11.856   7.327  0.2333  0.1126 -0.0436
  272loPI    C1 4337   4.393   5.147   9.655  0.0593 -0.1266  0.0144
  272loPI    C2 4338   4.443   5.502   9.831  0.1948 -0.1981  0.1227
  272loPI    C3 4339   4.187   5.236   9.986 -0.0026 -0.1008 -0.0309
  272loPI   PO4 4340   4.374   5.262   9.373 -0.0062  0.0312 -0.1198
  272loPI   GL1 4341   4.703   5.231   8.974  0.3098  0.2055 -0.3239
  272loPI   GL2 4342   4.374   5.145   8.896 -0.0385  0.1753 -0.2457
  272loPI   C1A 4343   4.805   5.403   8.641 -0.1111  0.0665 -0.2774
  272loPI   C2A 4344   5.127   5.318   8.354 -0.2649 -0.2481  0.3112
  272loPI   C3A 4345   5.348   4.966   8.263  0.2153 -0.0767  0.0243
  272loPI   C4A 4346   5.213   4.699   8.112 -0.2572  0.3350  0.0342
  272loPI   C5A 4347   5.057   4.599   7.639  0.1088 -0.0736 -0.2403
  272loPI   C6A 4348   5.007   4.833   7.317  0.3771 -0.4369 -0.2263
  272loPI   C1B 4349   4.385   4.911   8.579  0.3144  0.0323 -0.1486
  272loPI   C2B 4350   4.384   4.720   8.180  0.1061  0.1010  0.0736
  272loPI   C3B 4351   4.660   4.933   7.838  0.0410 -0.5591 -0.1318
  272loPI   C4B 4352   4.719   5.201   7.429  0.1458 -0.0321 -0.2315
  273loPI    C1 4353  14.258   1.869   9.740  0.1270 -0.2958  0.0492
  273loPI    C2 4354  13.862   1.871   9.681  0.1331 -0.2729  0.0083
  273loPI    C3 4355  14.009   1.898  10.052  0.1012  0.0722 -0.0010
  273loPI   PO4 4356  14.410   1.928   9.506  0.2405  0.0279 -0.0821
  273loPI   GL1 4357  14.605   1.840   8.956 -0.2695 -0.1914 -0.1848
  273loPI   GL2 4358  14.297   1.786   9.012  0.1235 -0.1782  0.0779
  273loPI   C1A 4359  14.556   2.170   8.617 -0.3209 -0.1981 -0.0870
  273loPI   C2A 4360  14.573   1.974   8.240 -0.0271 -0.2484 -0.0621
  273loPI   C3A 4361  14.218   1.808   8.050  0.0208  0.0208 -0.1572
  273loPI   C4A 4362  13.801   1.560   7.874 -0.0686 -0.0803  0.0434
  273loPI   C5A 4363  13.596   1.633   7.546  0.2139  0.1383  0.1577
  273loPI   C6A 4364  13.229   1.699   7.315 -0.0625  0.0921 -0.6880
  273loPI   C1B 4365  14.192   1.623   8.613 -0.1466 -0.0733  0.0952
  273loPI   C2B 4366  14.102   1.373   8.350  0.2316 -0.0247 -0.1009
  273loPI   C3B 4367  14.026   1.117   8.020  0.0969 -0.0094 -0.0069
  273loPI   C4B 4368  13.765   1.027   7.678 -0.2228  0.1296  0.1899
  274loPI    C1 4369   7.058  18.319   9.935  0.0477 -0.0473 -0.0107
  274loPI    C2 4370   6.754  18.536  10.077 -0.0514 -0.0876 -0.1598
  274loPI    C3 4371   7.088  18.497  10.292 -0.2421 -0.2419  0.1146
  274loPI   PO4 4372   6.960  18.191   9.782  0.4257  0.1059  0.4032
  274loPI   GL1 4373   7.129  18.147   9.433  0.0150  0.1636  0.0054
  274loPI   GL2 4374   7.411  18.106   9.310  0.0614 -0.3564 -0.0735
  274loPI   C1A 4375   6.900  18.216   9.047 -0.0573  0.0482  0.1978
  274loPI   C2A 4376   6.870  17.980   8.687 -0.2308 -0.0132  0.2404
  274loPI   C3A 4377   6.844  17.774   8.330  0.2027 -0.1146  0.0103
  274loPI   C4A 4378   6.812  17.613   7.915 -0.3155  0.2019 -0.0517
  274loPI   C5A 4379   6.581  17.717   7.512 -0.0879  0.1171  0.0271
  274loPI   C6A 4380   6.214  17.887   7.249 -0.0828 -0.3103 -0.1081
  274loPI   C1B 4381   7.216  17.799   9.139 -0.2232  0.2149 -0.0160
  274loPI   C2B 4382   7.602  17.662   8.872  0.0369  0.1292 -0.1380
  274loPI   C3B 4383   7.674  17.382   8.563 -0.2458  0.0156 -0.4093
  274loPI   C4B 4384   7.591  17.208   8.226 -0.2386 -0.1658  0.4326
  275loPI    C1 4385   0.928  14.212   9.533  0.4657 -0.1463 -0.0302
  275loPI    C2 4386   0.755  13.868   9.639  0.1390  0.0986  0.2558
  275loPI    C3 4387   1.032  14.034   9.876  0.1126  0.1597  0.2438
  275loPI   PO4 4388   0.891  14.151   9.223  0.3009  0.1803 -0.2062
  275loPI   GL1 4389   1.028  14.435   8.815 -0.2262 -0.1567 -0.2557
  275loPI   GL2 4390   1.134  14.684   8.706  0.2034  0.1356  0.1498
  275loPI   C1A 4391   0.843  14.314   8.361  0.1827  0.1771  0.0616
  275loPI   C2A 4392   0.910  14.165   7.993  0.0783 -0.0117 -0.1817
  275loPI   C3A 4393   0.851  14.140   7.589  0.1532  0.4926 -0.1209
  275loPI   C4A 4394   0.679  13.822   7.433  0.0532 -0.2751  0.0862
  275loPI   C5A 4395   0.573  13.567   7.095  0.1653 -0.1944 -0.1162
  275loPI   C6A 4396   0.305  13.192   6.890  0.1631  0.2951 -0.0956
  275loPI   C1B 4397   0.976  14.786   8.286 -0.0506  0.0827  0.1950
  275loPI   C2B 4398   0.986  14.624   7.850 -0.2023 -0.0250  0.2437
  275loPI   C3B 4399   1.241  14.436   7.444  0.0125  0.0957 -0.0082
  275loPI   C4B 4400   1.192  14.244   6.989 -0.0223 -0.0774 -0.0399
  276loPI    C1 4401   8.663   4.798   9.958 -0.0549  0.2401 -0.0238
  276loPI    C2 4402   8.679   5.131  10.179 -0.1514  0.2316 -0.0035
  276loPI    C3 4403   8.373   4.877  10.223 -0.0970  0.1588 -0.0453
  276loPI   PO4 4404   8.696   4.868   9.611  0.0923 -0.1541 -0.1241
  276loPI   GL1 4405   9.086   5.051   9.333  0.0133  0.2080 -0.3546
  276loPI   GL2 4406   9.258   5.258   9.156  0.2245  0.0260  0.0551
  276loPI   C1A 4407   8.783   4.937   8.996  0.2252 -0.1206 -0.0209
  276loPI   C2A 4408   8.597   4.507   8.761 -0.1118  0.3899 -0.1291
  276loPI   C3A 4409   8.438   4.080   8.622  0.1749  0.0531  0.2396
  276loPI   C4A 4410   8.242   3.717   8.456  0.0929 -0.0387 -0.2293
  276loPI   C5A 4411   7.786   3.646   8.405  0.2874  0.0728 -0.0168
  276loPI   C6A 4412   7.491   3.294   8.494  0.1059  0.1446 -0.0742
  276loPI   C1B 4413   9.266   5.370   8.836  0.1250 -0.1223 -0.0339
  276loPI   C2B 4414   9.453   5.353   8.456 -0.0572 -0.0464  0.2159
  276loPI   C3B 4415   9.736   5.464   8.051  0.1206  0.0335  0.0577
  276loPI   C4B 4416   9.852   5.472   7.576 -0.1108 -0.1075 -0.2113
  277loPI    C1 4417  17.335   8.533   9.864  0.1311 -0.3251  0.3078
  277loPI    C2 4418  17.112   8.661  10.170  0.2612  0.0556  0.2487
  277loPI    C3 4419  17.459   8.841  10.087  0.1666  0.0419 -0.2027
  277loPI   PO4 4420  17.146   8.437   9.666 -0.3277 -0.1837 -0.1150
  277loPI   GL1 4421  16.867   8.518   9.318 -0.2284 -0.1313 -0.2026
  277loPI   GL2 4422  17.171   8.600   9.103  0.0072  0.2469 -0.0621
  277loPI   C1A 4423  16.603   8.466   9.049 -0.1474  0.3056  0.0833
  277loPI   C2A 4424  16.530   8.468   8.663  0.1745 -0.2118 -0.1972
  277loPI   C3A 4425  16.601   8.396   8.259  0.2665  0.0554  0.2860
  277loPI   C4A 4426  16.727   8.445   7.828  0.0254  0.3514 -0.0325
  277loPI   C5A 4427  16.623   8.276   7.493 -0.0184 -0.3034 -0.1976
  277loPI   C6A 4428  16.602   8.419   7.091 -0.2437 -0.1355 -0.0985
  277loPI   C1B 4429  17.033   8.569   8.651 -0.2746 -0.0439 -0.2025
  277loPI   C2B 4430  17.100   8.875   8.302  0.2400  0.1392  0.3085
  277loPI   C3B 4431  17.128   9.171   8.019 -0.2903 -0.0589 -0.3819
  277loPI   C4B 4432  17.193   9.215   7.567  0.1855 -0.2765  0.0854
  278loPI    C1 4433   8.999   3.113   9.942  0.1983 -0.1462 -0.2210
  278loPI    C2 4434   8.971   2.833  10.226 -0.0168 -0.0957 -0.1908
  278loPI    C3 4435   9.165   3.174  10.301  0.1747 -0.2011 -0.2006
  278loPI   PO4 4436   9.074   3.002   9.691 -0.0724  0.2640  0.1355
  278loPI   GL1 4437   8.990   2.665   9.307 -0.4283 -0.5566 -0.0897
  278loPI   GL2 4438   8.978   2.415   9.178  0.0558  0.1814  0.0297
  278loPI   C1A 4439   9.111   2.955   9.052  0.3639 -0.1683  0.1380
  278loPI   C2A 4440   9.013   3.267   8.753 -0.0936  0.0215  0.0632
  278loPI   C3A 4441   9.228   3.417   8.315  0.1026 -0.2357  0.1808
  278loPI   C4A 4442   9.247   3.495   7.827  0.2895  0.3264  0.0647
  278loPI   C5A 4443   9.311   3.643   7.374 -0.2082  0.1844 -0.0230
  278loPI   C6A 4444   9.146   3.697   6.912  0.0023  0.2863 -0.0813
  278loPI   C1B 4445   9.027   2.310   8.601  0.1574 -0.2406 -0.1981
  278loPI   C2B 4446   9.249   2.277   8.275  0.1004 -0.0639  0.0627
  278loPI   C3B 4447   9.312   2.405   7.865 -0.1340 -0.4476 -0.0443
  278loPI   C4B 4448   9.505   2.242   7.518  0.1129  0.3545 -0.2740
  279loPI    C1 4449   7.631   7.244   9.903 -0.0922  0.0264  0.1124
  279loPI    C2 4450   7.733   7.451  10.230 -0.0148 -0.0619  0.1446
  279loPI    C3 4451   7.369   7.285  10.202 -0.0903  0.1084  0.1032
  279loPI   PO4 4452   7.837   7.128   9.803  0.0246  0.0517  0.0797
  279loPI   GL1 4453   8.053   6.869   9.408 -0.2397 -0.1029 -0.1357
  279loPI   GL2 4454   8.040   7.062   9.059 -0.3028  0.1870 -0.3189
  279loPI   C1A 4455   8.225   6.570   8.996 -0.1639 -0.3522  0.0204
  279loPI   C2A 4456   8.058   6.373   8.602  0.2061 -0.0986  0.2804
  279loPI   C3A 4457   8.239   6.254   8.159 -0.2100 -0.0019 -0.2672
  279loPI   C4A 4458   8.179   5.944   7.956  0.1939  0.0629 -0.0610
  279loPI   C5A 4459   8.332   5.556   7.959 -0.1523  0.0411  0.1172
  279loPI   C6A 4460   8.275   5.282   8.245 -0.1687  0.1627 -0.0057
  279loPI   C1B 4461   8.148   7.383   8.786 -0.2512  0.1092 -0.3662
  279loPI   C2B 4462   8.106   7.843   8.720 -0.2331  0.0644  0.0097
  279loPI   C3B 4463   8.257   8.089   8.404 -0.1046  0.1394  0.3542
  279loPI   C4B 4464   8.472   7.978   7.992 -0.5592  0.0620  0.0477
  280loPI    C1 4465  16.087   0.755   9.828  0.1425 -0.0961  0.1107
  280loPI    C2 4466  15.995   1.139   9.890 -0.1818 -0.1508 -0.0146
  280loPI    C3 4467  16.253   0.954  10.132 -0.0416  0.1384  0.0607
  280loPI   PO4 4468  16.086   0.791   9.515 -0.0555  0.1159 -0.0247
  280loPI   GL1 4469  16.177   1.027   9.162  0.1660 -0.3333 -0.1894
  280loPI   GL2 4470  16.436   0.932   9.210  0.0992 -0.0937 -0.2468
  280loPI   C1A 4471  16.337   1.319   8.800 -0.2020 -0.0104 -0.1175
  280loPI   C2A 4472  16.146   1.538   8.501 -0.1975  0.2074 -0.0041
  280loPI   C3A 4473  15.939   1.806   8.268  0.2792  0.1346 -0.0669
  280loPI   C4A 4474  15.930   2.176   8.078  0.2628 -0.5138  0.1249
  280loPI   C5A 4475  16.254   2.195   7.824  0.4603  0.2620 -0.4586
  280loPI   C6A 4476  16.670   2.314   7.693  0.1387  0.2053  0.1824
  280loPI   C1B 4477  16.531   0.749   8.891 -0.1431  0.0138  0.3025
  280loPI   C2B 4478  16.594   0.792   8.444  0.1317 -0.1160 -0.1791
  280loPI   C3B 4479  16.846   0.923   8.035  0.0577 -0.0688  0.1558
  280loPI   C4B 4480  17.197   0.954   7.840 -0.0684 -0.1444 -0.1126
  281loPI    C1 4481   7.634  13.156   9.649 -0.0935 -0.2245  0.3022
  281loPI    C2 4482   7.267  13.314   9.678 -0.0256 -0.0159  0.0625
  281loPI    C3 4483   7.472  13.220  10.009 -0.1615  0.1806  0.2043
  281loPI   PO4 4484   7.776  13.352   9.479 -0.0468 -0.1586 -0.2650
  281loPI   GL1 4485   7.828  13.569   9.074  0.1835  0.1329 -0.3297
  281loPI   GL2 4486   7.757  13.862   9.035 -0.4567 -0.3643 -0.0564
  281loPI   C1A 4487   7.820  13.262   8.741  0.0310 -0.0647 -0.0960
  281loPI   C2A 4488   7.712  13.006   8.429 -0.3494 -0.2723 -0.3628
  281loPI   C3A 4489   7.963  13.008   8.063  0.2522 -0.0709 -0.0673
  281loPI   C4A 4490   8.201  13.196   7.683  0.1728  0.4360  0.1606
  281loPI   C5A 4491   8.413  13.366   7.242 -0.2822  0.0254 -0.0272
  281loPI   C6A 4492   8.581  13.694   6.906 -0.0806  0.5118  0.3113
  281loPI   C1B 4493   7.802  13.820   8.671  0.1524  0.0608 -0.0407
  281loPI   C2B 4494   7.869  13.791   8.242 -0.0304 -0.2435  0.2915
  281loPI   C3B 4495   7.800  13.470   7.903  0.0354 -0.0383 -0.1046
  281loPI   C4B 4496   7.617  13.074   7.691  0.0311 -0.0027 -0.1619
  282loPI    C1 4497  14.372   0.103   9.951  0.3234  0.1388 -0.2615
  282loPI    C2 4498  14.659  -0.165  10.029  0.2296  0.1163  0.0179
  282loPI    C3 4499  14.750   0.224  10.007  0.3207  0.0875 -0.1294
  282loPI   PO4 4500  14.230  -0.045   9.755  0.0761 -0.1522  0.2053
  282loPI   GL1 4501  13.981   0.028   9.347  0.1315 -0.0632 -0.2721
  282loPI   GL2 4502  14.308   0.287   9.377 -0.1222  0.0301  0.0014
  282loPI   C1A 4503  13.795  -0.346   9.080  0.0438 -0.3420 -0.0508
  282loPI   C2A 4504  14.045  -0.437   8.676  0.2797 -0.2007 -0.1502
  282loPI   C3A 4505  14.082  -0.489   8.190 -0.3063  0.0648  0.3499
  282loPI   C4A 4506  14.137  -0.796   7.916  0.2641  0.1400 -0.0679
  282loPI   C5A 4507  14.023  -1.025   7.586  0.1993 -0.1810 -0.2276
  282loPI   C6A 4508  13.769  -1.039   7.133  0.4110 -0.1400 -0.0258
  282loPI   C1B 4509  14.163   0.421   9.034  0.3242 -0.1865 -0.0945
  282loPI   C2B 4510  14.018   0.710   8.792 -0.0428 -0.3562  0.0129
  282loPI   C3B 4511  13.875   0.942   8.521  0.1608  0.0752 -0.1122
  282loPI   C4B 4512  13.745   0.751   8.103  0.0157 -0.0137  0.1292
  283loPI    C1 4513  12.350  18.485   9.840  0.0645 -0.3029  0.0186
  283loPI    C2 4514  12.212  18.240  10.125 -0.1670 -0.1750  0.0190
  283loPI    C3 4515  12.486  18.516  10.215 -0.2118 -0.1599  0.1102
  283loPI   PO4 4516  12.396  18.314   9.575 -0.1035 -0.1633  0.2019
  283loPI   GL1 4517  12.443  18.378   9.200  0.1893  0.0355  0.1186
  283loPI   GL2 4518  12.654  18.597   9.055  0.0613 -0.2115 -0.1200
  283loPI   C1A 4519  12.206  18.162   8.737  0.0677 -0.0162 -0.2242
  283loPI   C2A 4520  12.003  18.272   8.271  0.0219 -0.3596  0.0250
  283loPI   C3A 4521  11.957  18.298   7.874  0.1281 -0.2112  0.0426
  283loPI   C4A 4522  12.198  18.353   7.574  0.1350 -0.0050  0.0208
  283loPI   C5A 4523  12.449  18.139   7.296  0.1678  0.2112 -0.1596
  283loPI   C6A 4524  12.840  18.038   7.279  0.2479 -0.0284  0.3072
  283loPI   C1B 4525  12.730  18.878   8.657 -0.0374  0.1641  0.0715
  283loPI   C2B 4526  12.885  19.241   8.400 -0.1483 -0.0357  0.0176
  283loPI   C3B 4527  12.937  19.485   8.024  0.0460 -0.2516 -0.0762
  283loPI   C4B 4528  13.062  19.778   7.680  0.2087  0.1674 -0.0022
  284loPI    C1 4529  15.747  16.608   9.223  0.2721 -0.0159 -0.0400
  284loPI    C2 4530  15.783  16.958   9.414 -0.0234  0.1146 -0.2159
  284loPI    C3 4531  15.794  16.615   9.620  0.1018  0.2332 -0.0217
  284loPI   PO4 4532  15.581  16.592   9.126  0.0920  0.0976  0.1589
  284loPI   GL1 4533  15.652  16.806   8.665  0.0840 -0.0858  0.0975
  284loPI   GL2 4534  15.419  16.952   8.645 -0.0142  0.1943 -0.0321
  284loPI   C1A 4535  15.482  16.473   8.402 -0.1488 -0.0047 -0.0717
  284loPI   C2A 4536  15.672  16.140   8.093  0.0038 -0.2559 -0.1881
  284loPI   C3A 4537  15.888  16.007   7.718 -0.3006 -0.1451 -0.0058
  284loPI   C4A 4538  16.034  16.285   7.400 -0.1556  0.0146  0.0327
  284loPI   C5A 4539  16.230  16.307   6.945  0.5123 -0.0495 -0.3056
  284loPI   C6A 4540  16.181  16.525   6.652 -0.0222 -0.1779 -0.1412
  284loPI   C1B 4541  15.158  16.951   8.367 -0.3644  0.0500 -0.1821
  284loPI   C2B 4542  15.132  16.932   7.868 -0.2298  0.1590  0.3033
  284loPI   C3B 4543  15.180  17.085   7.446 -0.2750 -0.1957  0.0361
  284loPI   C4B 4544  15.357  17.109   7.031  0.0370  0.1124  0.0925
  285loPI    C1 4545   6.750   8.737   9.841 -0.1377 -0.1044  0.2863
  285loPI    C2 4546   6.887   8.982  10.126  0.1254 -0.3610  0.3854
  285loPI    C3 4547   6.511   9.019   9.994  0.2205  0.2291  0.2493
  285loPI   PO4 4548   7.002   8.716   9.698  0.0004  0.1830 -0.0068
  285loPI   GL1 4549   7.120   8.602   9.292  0.1103 -0.0133  0.2342
  285loPI   GL2 4550   6.852   8.705   9.174  0.2056 -0.3198 -0.0557
  285loPI   C1A 4551   7.348   8.895   9.138  0.2998  0.1225 -0.0856
  285loPI   C2A 4552   7.422   9.064   8.781 -0.0756  0.1131 -0.2144
  285loPI   C3A 4553   7.095   8.987   8.407 -0.3257 -0.3743 -0.1422
  285loPI   C4A 4554   7.136   9.224   8.062 -0.0083  0.4933  0.0301
  285loPI   C5A 4555   7.333   9.041   7.749  0.2241 -0.1331  0.0465
  285loPI   C6A 4556   7.427   9.092   7.274 -0.3912  0.0720  0.0291
  285loPI   C1B 4557   7.006   8.555   8.803  0.0300  0.0429  0.2171
  285loPI   C2B 4558   6.962   8.497   8.337  0.0827  0.0422 -0.2327
  285loPI   C3B 4559   6.722   8.500   7.870  0.1988 -0.2442  0.1862
  285loPI   C4B 4560   6.452   8.618   7.468 -0.1106 -0.0744  0.1156
  286loPI    C1 4561  18.785  14.355   9.611  0.0278 -0.0605  0.0847
  286loPI    C2 4562  18.554  14.425   9.930  0.1116 -0.2539  0.1896
  286loPI    C3 4563  18.761  14.724   9.763 -0.4147 -0.0209 -0.0679
  286loPI   PO4 4564  18.699  14.225   9.416 -0.0609  0.1511 -0.0212
  286loPI   GL1 4565  18.750  13.943   9.089  0.0886  0.1484  0.0699
  286loPI   GL2 4566  19.070  13.886   8.970 -0.1678 -0.1372 -0.0172
  286loPI   C1A 4567  18.516  13.955   8.735  0.3434  0.0602  0.0514
  286loPI   C2A 4568  18.555  13.938   8.345  0.0034  0.0840 -0.3628
  286loPI   C3A 4569  18.510  13.653   7.960 -0.2050  0.1569  0.1829
  286loPI   C4A 4570  18.595  13.593   7.516  0.2922 -0.1027  0.0099
  286loPI   C5A 4571  18.685  13.575   7.024 -0.0502  0.2647 -0.4265
  286loPI   C6A 4572  18.987  13.852   6.728  0.1277 -0.2109  0.2871
  286loPI   C1B 4573  19.084  13.777   8.582  0.0225 -0.1179  0.0207
  286loPI   C2B 4574  18.971  13.751   8.187  0.1832 -0.3283 -0.6334
  286loPI   C3B 4575  19.039  13.734   7.832  0.0233  0.3191 -0.2748
  286loPI   C4B 4576  19.078  13.669   7.462 -0.1236  0.1006 -0.0918
  287loPI    C1 4577   3.374   6.423   9.915 -0.3162  0.1972 -0.1484
  287loPI    C2 4578   3.534   6.770  10.033  0.3015 -0.0264 -0.2936
  287loPI    C3 4579   3.582   6.441  10.256 -0.1658 -0.0552 -0.2247
  287loPI   PO4 4580   3.155   6.564   9.760 -0.3867 -0.1667  0.0785
  287loPI   GL1 4581   2.886   6.379   9.397 -0.0821  0.2097  0.4991
  287loPI   GL2 4582   2.653   6.502   9.462 -0.1374  0.0493 -0.2095
  287loPI   C1A 4583   3.161   6.326   9.018  0.2610 -0.1129 -0.2926
  287loPI   C2A 4584   3.101   6.307   8.543  0.0970  0.1055  0.0247
  287loPI   C3A 4585   3.012   6.251   8.065 -0.2217 -0.0913 -0.0451
  287loPI   C4A 4586   3.117   5.998   7.692  0.2045 -0.0996 -0.0406
  287loPI   C5A 4587   3.463   5.955   7.379  0.2188  0.1799 -0.2072
  287loPI   C6A 4588   3.592   6.276   7.163  0.2159 -0.1919 -0.0642
  287loPI   C1B 4589   2.649   6.510   8.965 -0.1138 -0.0527  0.0582
  287loPI   C2B 4590   2.667   6.533   8.440 -0.2641 -0.2854  0.1864
  287loPI   C3B 4591   2.736   6.717   8.029  0.0879 -0.1165  0.1352
  287loPI   C4B 4592   2.666   6.984   7.627  0.0654 -0.0402  0.0091
  288loPI    C1 4593  15.168   2.086   9.764 -0.0680  0.0441  0.2204
  288loPI    C2 4594  15.407   2.252  10.038  0.0030  0.0917  0.1298
  288loPI    C3 4595  15.254   1.888  10.101  0.1741  0.0219  0.1469
  288loPI   PO4 4596  15.332   2.174   9.490  0.0240 -0.0888 -0.1153
  288loPI   GL1 4597  15.301   2.220   9.072 -0.0363  0.1859  0.2214
  288loPI   GL2 4598  15.222   1.975   8.958 -0.0116 -0.1928  0.1175
  288loPI   C1A 4599  15.410   2.432   8.682  0.1353 -0.0835  0.0559
  288loPI   C2A 4600  15.357   2.258   8.231  0.0910  0.3367  0.4461
  288loPI   C3A 4601  15.258   2.295   7.795 -0.1558  0.0865  0.0094
  288loPI   C4A 4602  15.341   2.381   7.347 -0.1461  0.0456  0.3252
  288loPI   C5A 4603  15.319   2.387   6.877 -0.0346 -0.1003 -0.1422
  288loPI   C6A 4604  15.099   2.543   6.635  0.1814 -0.0371 -0.0106
  288loPI   C1B 4605  15.000   1.954   8.574 -0.0344 -0.2077  0.0052
  288loPI   C2B 4606  15.017   1.758   8.195  0.1680  0.0461  0.0107
  288loPI   C3B 4607  15.150   1.782   7.702  0.0668 -0.0053 -0.2611
  288loPI   C4B 4608  15.283   1.878   7.346  0.2567  0.2516  0.0847
  289loPI    C1 4609   0.528   7.809   9.686  0.1472  0.0359  0.1056
  289loPI    C2 4610   0.499   7.753  10.081 -0.0000 -0.1719  0.0670
  289loPI    C3 4611   0.499   7.438   9.834  0.1683 -0.0471 -0.0949
  289loPI   PO4 4612   0.676   8.055   9.678  0.0215  0.2352  0.1635
  289loPI   GL1 4613   0.956   8.324   9.414  0.4907  0.0461 -0.2734
  289loPI   GL2 4614   1.199   8.043   9.452 -0.2210  0.0189 -0.5383
  289loPI   C1A 4615   0.919   8.142   9.012  0.3773 -0.0768  0.1283
  289loPI   C2A 4616   0.958   8.076   8.607  0.0143 -0.0862 -0.0659
  289loPI   C3A 4617   0.972   8.265   8.222 -0.3174  0.3848  0.2773
  289loPI   C4A 4618   0.852   8.287   7.797  0.2594 -0.0506 -0.4455
  289loPI   C5A 4619   0.707   8.305   7.410  0.1752  0.0514 -0.1778
  289loPI   C6A 4620   0.319   8.221   7.194 -0.1118 -0.1152 -0.0017
  289loPI   C1B 4621   1.335   7.779   9.191 -0.0792  0.0632  0.1720
  289loPI   C2B 4622   1.386   7.823   8.811  0.0482  0.1647 -0.1588
  289loPI   C3B 4623   1.388   7.776   8.377  0.0955  0.0026  0.2987
  289loPI   C4B 4624   1.302   7.971   7.958 -0.1115 -0.2244  0.2423
  290loPI    C1 4625  14.770  16.626   9.779 -0.0949  0.0228 -0.3275
  290loPI    C2 4626  15.047  16.573  10.062 -0.1394 -0.0785 -0.3029
  290loPI    C3 4627  14.967  16.279   9.804 -0.2819 -0.0789 -0.2589
  290loPI   PO4 4628  14.923  16.868   9.563  0.1788  0.0627  0.0401
  290loPI   GL1 4629  14.674  17.066   9.255 -0.2083 -0.2245  0.0602
  290loPI   GL2 4630  14.810  17.360   9.234  0.0578  0.2581  0.0814
  290loPI   C1A 4631  14.777  16.975   8.814 -0.2644  0.1386  0.1813
  290loPI   C2A 4632  14.688  17.165   8.389 -0.0584 -0.1392  0.0096
  290loPI   C3A 4633  14.797  17.269   8.022 -0.2417  0.1207 -0.0423
  290loPI   C4A 4634  14.730  17.152   7.582  0.3385  0.1830  0.2653
  290loPI   C5A 4635  14.578  17.065   7.160 -0.0766  0.0938 -0.0288
  290loPI   C6A 4636  14.488  17.160   6.636  0.2158  0.1391 -0.1251
  290loPI   C1B 4637  14.662  17.437   8.780  0.2536  0.0958  0.0022
  290loPI   C2B 4638  14.673  17.652   8.407  0.1923 -0.0883  0.0244
  290loPI   C3B 4639  14.489  17.614   8.042 -0.3137  0.2028  0.0372
  290loPI   C4B 4640  14.415  17.540   7.618 -0.0934 -0.1169 -0.1508
  291loPI    C1 4641   2.761   6.209  10.080 -0.0555  0.2503  0.1196
  291loPI    C2 4642   2.394   6.125  10.215 -0.0528  0.2494  0.1263
  291loPI    C3 4643   2.702   5.889  10.313 -0.0632  0.2078  0.0594
  291loPI   PO4 4644   2.717   6.224   9.883  0.2027  0.2097  0.1665
  291loPI   GL1 4645   2.647   5.900   9.562 -0.1136  0.1594  0.0555
  291loPI   GL2 4646   2.405   6.072   9.540  0.1909  0.1025 -0.0514
  291loPI   C1A 4647   2.485   5.694   9.143 -0.3941 -0.1215 -0.1511
  291loPI   C2A 4648   2.363   5.606   8.759  0.0226 -0.1182 -0.1909
  291loPI   C3A 4649   2.177   5.642   8.361  0.1642 -0.3646 -0.1663
  291loPI   C4A 4650   1.995   5.821   7.951  0.1610  0.3700  0.1318
  291loPI   C5A 4651   1.807   6.178   7.670  0.1351 -0.2370 -0.2119
  291loPI   C6A 4652   1.487   6.408   7.381 -0.3189  0.0970 -0.1798
  291loPI   C1B 4653   2.306   6.207   9.216  0.0963 -0.0859  0.0923
  291loPI   C2B 4654   2.234   6.225   8.758  0.2562  0.1277  0.2103
  291loPI   C3B 4655   2.328   6.221   8.278 -0.2904 -0.0111  0.4165
  291loPI   C4B 4656   2.292   6.457   7.876  0.2973 -0.1295  0.2769
  292loPI    C1 4657  12.384  17.423   9.512  0.2323  0.2262  0.0484
  292loPI    C2 4658  12.389  17.265   9.880 -0.0164  0.1819  0.0341
  292loPI    C3 4659  12.676  17.520   9.768  0.1593  0.0579  0.1976
  292loPI   PO4 4660  12.322  17.252   9.361 -0.1426  0.0380 -0.1795
  292loPI   GL1 4661  12.299  17.383   8.937  0.2050 -0.1822  0.0475
  292loPI   GL2 4662  12.134  17.584   8.765  0.1581 -0.5153  0.1735
  292loPI   C1A 4663  12.260  17.186   8.556  0.1293 -0.0890  0.1852
  292loPI   C2A 4664  11.979  17.111   8.276 -0.0037 -0.0934  0.2481
  292loPI   C3A 4665  12.007  17.160   7.966  0.3184 -0.0605  0.1316
  292loPI   C4A 4666  12.212  17.288   7.658  0.1486  0.0309  0.0185
  292loPI   C5A 4667  12.097  17.514   7.289 -0.1422 -0.1845  0.0625
  292loPI   C6A 4668  11.906  17.860   7.027  0.0756 -0.0175  0.0662
  292loPI   C1B 4669  12.100  17.769   8.430  0.0294  0.0396 -0.0666
  292loPI   C2B 4670  12.317  17.562   8.073  0.1888 -0.0805  0.2574
  292loPI   C3B 4671  12.612  17.275   8.073  0.0363 -0.2135  0.2489
  292loPI   C4B 4672  12.681  16.904   8.428 -0.0998  0.0386  0.0262
  293loPI    C1 4673  12.246   5.711  10.205 -0.2369  0.3853 -0.1246
  293loPI    C2 4674  12.483   5.756  10.524 -0.0726 -0.2194 -0.1487
  293loPI    C3 4675  12.096   5.669  10.574 -0.0897 -0.1262 -0.1156
  293loPI   PO4 4676  12.342   5.536  10.039  0.1877  0.2209 -0.2550
  293loPI   GL1 4677  12.415   5.264   9.644  0.1554  0.2278 -0.2424
  293loPI   GL2 4678  12.179   5.345   9.316  0.0237  0.2943  0.0292
  293loPI   C1A 4679  12.609   5.597   9.297  0.1748 -0.0532  0.1219
  293loPI   C2A 4680  12.729   5.662   8.869 -0.1581 -0.2578 -0.0516
  293loPI   C3A 4681  12.954   5.443   8.526  0.4277  0.1887 -0.2623
  293loPI   C4A 4682  13.051   5.623   8.196 -0.1592 -0.1382 -0.1386
  293loPI   C5A 4683  13.227   5.916   7.795 -0.2704 -0.0703  0.0408
  293loPI   C6A 4684  13.523   6.143   7.558  0.0644  0.3706  0.1284
  293loPI   C1B 4685  12.078   5.083   8.980 -0.0603  0.0995  0.1158
  293loPI   C2B 4686  12.100   4.998   8.564  0.2717  0.1639  0.1322
  293loPI   C3B 4687  12.278   5.048   8.189 -0.1011 -0.1495 -0.0147
  293loPI   C4B 4688  12.472   5.277   7.763  0.0907  0.0285  0.2274
  294loPI    C1 4689   1.322   9.215   9.770 -0.0414  0.0222 -0.1830
  294loPI    C2 4690   1.306   9.590   9.906 -0.1925  0.0347 -0.2328
  294loPI    C3 4691   1.114   9.299  10.101 -0.2264  0.0148 -0.2957
  294loPI   PO4 4692   1.496   9.252   9.624 -0.2378  0.1359 -0.2710
  294loPI   GL1 4693   1.576   9.280   9.220 -0.0108  0.0733  0.0233
  294loPI   GL2 4694   1.370   9.555   9.100 -0.0210 -0.0005  0.0078
  294loPI   C1A 4695   1.897   9.327   8.997 -0.0629 -0.3173  0.3771
  294loPI   C2A 4696   1.806   9.210   8.593 -0.5902  0.2040  0.0053
  294loPI   C3A 4697   1.904   9.159   8.140  0.0856  0.1063 -0.1060
  294loPI   C4A 4698   1.913   9.256   7.735  0.0504  0.0643 -0.0675
  294loPI   C5A 4699   1.770   9.364   7.353 -0.0605 -0.0480  0.0159
  294loPI   C6A 4700   1.881   9.582   6.966  0.3014 -0.3996  0.0647
  294loPI   C1B 4701   1.431   9.474   8.738  0.2985  0.0432  0.0831
  294loPI   C2B 4702   1.441   9.455   8.263  0.0085  0.0899 -0.0563
  294loPI   C3B 4703   1.450   9.403   7.815  0.0299  0.0919 -0.5341
  294loPI   C4B 4704   1.232   9.306   7.432 -0.0938  0.1024 -0.1388
  295loPI    C1 4705  13.739  14.743   9.663 -0.1184 -0.2925 -0.1682
  295loPI    C2 4706  13.490  14.557   9.914 -0.2035  0.1341  0.0732
  295loPI    C3 4707  13.885  14.530   9.967 -0.2133 -0.0288  0.0667
  295loPI   PO4 4708  13.629  14.607   9.362 -0.1538  0.0752 -0.4310
  295loPI   GL1 4709  13.829  14.610   9.011  0.5195 -0.4246 -0.0945
  295loPI   GL2 4710  13.686  14.248   8.775  0.0192  0.1448  0.0693
  295loPI   C1A 4711  13.825  14.713   8.623  0.2677 -0.2591  0.0018
  295loPI   C2A 4712  13.692  14.821   8.233  0.1324 -0.1711  0.0743
  295loPI   C3A 4713  13.409  14.782   7.828 -0.3807 -0.1646  0.1319
  295loPI   C4A 4714  13.319  14.983   7.399 -0.2616  0.0209 -0.0346
  295loPI   C5A 4715  12.999  15.407   7.387 -0.1366 -0.3040  0.0474
  295loPI   C6A 4716  12.618  15.448   7.351  0.3965  0.1907 -0.0786
  295loPI   C1B 4717  13.803  14.311   8.375 -0.1552  0.1009 -0.2404
  295loPI   C2B 4718  13.480  14.300   7.944  0.1378 -0.2378 -0.2244
  295loPI   C3B 4719  13.521  14.261   7.513  0.1512  0.0051 -0.0982
  295loPI   C4B 4720  13.514  14.594   7.099 -0.2022  0.0652 -0.1440
  296loPI    C1 4721  17.336  18.205   9.612 -0.0013 -0.0479 -0.1317
  296loPI    C2 4722  17.497  17.877   9.777 -0.0462 -0.0123 -0.0163
  296loPI    C3 4723  17.268  18.121   9.997 -0.0744  0.0568 -0.1213
  296loPI   PO4 4724  17.511  18.281   9.358  0.2913 -0.2354  0.0172
  296loPI   GL1 4725  17.371  18.196   9.012  0.1520  0.1432  0.1753
  296loPI   GL2 4726  17.609  17.979   8.855 -0.1885  0.2840  0.0688
  296loPI   C1A 4727  17.261  18.413   8.712 -0.2550 -0.1337  0.2158
  296loPI   C2A 4728  17.322  18.619   8.384 -0.2386 -0.0777  0.2048
  296loPI   C3A 4729  17.262  18.685   7.980 -0.2347 -0.2850 -0.1696
  296loPI   C4A 4730  17.491  18.782   7.572 -0.0854  0.0604 -0.2737
  296loPI   C5A 4731  17.843  19.133   7.470 -0.0986 -0.0136  0.0091
  296loPI   C6A 4732  18.120  19.243   7.772  0.1485 -0.0933 -0.2053
  296loPI   C1B 4733  17.537  18.133   8.408 -0.1115 -0.2301  0.0929
  296loPI   C2B 4734  17.540  18.225   7.953  0.2093  0.1587  0.2740
  296loPI   C3B 4735  17.478  18.165   7.600 -0.1514  0.2999 -0.0989
  296loPI   C4B 4736  17.425  17.814   7.418  0.3836  0.3069 -0.0746
  297loPI    C1 4737   5.852  11.154  10.020  0.0002 -0.3260  0.1801
  297loPI    C2 4738   6.248  11.203  10.050 -0.0182  0.0574 -0.1293
  297loPI    C3 4739   6.029  11.138  10.379  0.2604  0.1708  0.0823
  297loPI   PO4 4740   5.887  10.975   9.748  0.0891  0.0740  0.0718
  297loPI   GL1 4741   5.869  10.838   9.306 -0.0924 -0.1878 -0.1895
  297loPI   GL2 4742   6.193  10.723   9.304  0.3898  0.0219  0.2171
  297loPI   C1A 4743   5.652  10.945   8.944  0.3159  0.1276  0.1799
  297loPI   C2A 4744   5.528  10.976   8.552  0.2292 -0.0080 -0.0920
  297loPI   C3A 4745   5.526  10.843   8.226  0.1897 -0.1718 -0.0009
  297loPI   C4A 4746   5.707  10.738   7.832  0.1979  0.0958  0.1777
  297loPI   C5A 4747   5.885  10.664   7.432  0.2111  0.1020  0.2062
  297loPI   C6A 4748   6.334  10.615   7.403 -0.0853 -0.1145  0.0393
  297loPI   C1B 4749   6.135  10.796   8.858  0.1933  0.1005 -0.2507
  297loPI   C2B 4750   6.054  10.941   8.415  0.0839 -0.0866  0.2162
  297loPI   C3B 4751   5.781  11.261   8.021 -0.2926 -0.0694  0.2547
  297loPI   C4B 4752   5.394  11.110   7.685 -0.2654  0.0781  0.0860
  298loPI    C1 4753   2.609  10.894  10.084  0.0225 -0.0889 -0.1078
  298loPI    C2 4754   2.824  10.570   9.988 -0.2403 -0.2042 -0.3196
  298loPI    C3 4755   2.618  10.580  10.331 -0.0382 -0.1616 -0.1975
  298loPI   PO4 4756   2.595  10.979   9.805 -0.3788 -0.2345 -0.1194
  298loPI   GL1 4757   2.482  10.955   9.406  0.2935 -0.4792  0.0973
  298loPI   GL2 4758   2.640  10.575   9.372  0.1618 -0.2537 -0.2548
  298loPI   C1A 4759   2.497  10.989   8.996  0.0373  0.2267 -0.0205
  298loPI   C2A 4760   2.601  11.375   8.714  0.2036 -0.1192  0.0839
  298loPI   C3A 4761   3.030  11.566   8.448 -0.2528  0.0599  0.0157
  298loPI   C4A 4762   3.176  11.736   8.001  0.0467  0.0631 -0.1004
  298loPI   C5A 4763   3.648  12.038   7.797  0.2099 -0.2307  0.0277
  298loPI   C6A 4764   3.948  11.885   7.532 -0.0117 -0.0629  0.3634
  298loPI   C1B 4765   2.928  10.698   9.037  0.0938  0.2850  0.2337
  298loPI   C2B 4766   3.233  10.732   8.758  0.0023  0.1655  0.0061
  298loPI   C3B 4767   3.097  10.650   8.281  0.1530 -0.0525 -0.2014
  298loPI   C4B 4768   2.809  10.619   7.967  0.0329 -0.0795  0.2369
  299loPI    C1 4769  11.587  18.659  10.022 -0.0267 -0.0369  0.3740
  299loPI    C2 4770  11.761  19.011   9.944 -0.1377 -0.0162  0.2172
  299loPI    C3 4771  11.962  18.729  10.144  0.1536 -0.0690 -0.1395
  299loPI   PO4 4772  11.500  18.593   9.801  0.2272  0.1073 -0.3498
  299loPI   GL1 4773  11.446  18.571   9.394  0.0015  0.2760  0.2168
  299loPI   GL2 4774  11.605  18.751   9.079 -0.0607  0.2006  0.0782
  299loPI   C1A 4775  11.323  18.360   8.972 -0.0463 -0.3953 -0.3661
  299loPI   C2A 4776  11.383  18.391   8.574  0.1480 -0.0743 -0.0959
  299loPI   C3A 4777  11.449  18.469   8.123  0.1683 -0.2220  0.1825
  299loPI   C4A 4778  11.372  18.456   7.686 -0.3724 -0.0407 -0.1749
  299loPI   C5A 4779  11.140  18.140   7.345 -0.0703 -0.2282 -0.0160
  299loPI   C6A 4780  11.103  17.809   7.015  0.1298  0.0645  0.2059
  299loPI   C1B 4781  11.809  19.037   8.796  0.2711  0.0065  0.3221
  299loPI   C2B 4782  12.107  19.171   8.513  0.3215 -0.1675 -0.1223
  299loPI   C3B 4783  12.407  19.067   8.299  0.0128 -0.0716 -0.1717
  299loPI   C4B 4784  12.631  18.758   7.988 -0.2483 -0.1820  0.2584
  300loPI    C1 4785  14.116  17.650   9.862  0.1537 -0.0442  0.0255
  300loPI    C2 4786  14.111  17.330   9.622  0.1415 -0.0205 -0.0057
  300loPI    C3 4787  14.113  17.283  10.019 -0.2979 -0.0581 -0.0024
  300loPI   PO4 4788  13.904  17.792   9.626 -0.2672  0.0056 -0.2821
  300loPI   GL1 4789  13.924  17.818   9.168 -0.0364  0.2460 -0.1008
  300loPI   GL2 4790  13.918  18.120   9.219  0.0487 -0.0901 -0.3539
  300loPI   C1A 4791  13.727  17.893   8.811  0.0119  0.0064 -0.1935
  300loPI   C2A 4792  13.543  17.789   8.321 -0.0056  0.1250  0.0175
  300loPI   C3A 4793  13.427  17.627   7.927  0.0314 -0.0789  0.0143
  300loPI   C4A 4794  12.976  17.459   7.645 -0.2755  0.0547  0.2828
  300loPI   C5A 4795  12.612  17.627   7.338 -0.1536 -0.3305 -0.0055
  300loPI   C6A 4796  12.436  17.625   6.864  0.0298  0.1965  0.2789
  300loPI   C1B 4797  14.171  18.173   8.800  0.0409  0.0002 -0.0223
  300loPI   C2B 4798  14.130  18.382   8.467 -0.0084  0.1598  0.1915
  300loPI   C3B 4799  13.904  18.276   8.216  0.3360 -0.1017  0.0050
  300loPI   C4B 4800  13.422  18.305   8.265 -0.0921 -0.0811  0.3621
  301loPI    C1 4801  11.073  15.166   9.720 -0.2704  0.0403 -0.2790
  301loPI    C2 4802  10.960  15.523   9.580 -0.0103  0.1988 -0.0944
  301loPI    C3 4803  10.947  15.449   9.973  0.2621  0.1265 -0.0971
  301loPI   PO4 4804  11.261  15.114   9.616  0.3295 -0.2415  0.1765
  301loPI   GL1 4805  11.122  15.101   9.216 -0.3220 -0.1574 -0.4052
  301loPI   GL2 4806  10.959  15.325   9.147 -0.1162 -0.0636 -0.2389
  301loPI   C1A 4807  11.340  15.140   8.819  0.2135  0.1349  0.4351
  301loPI   C2A 4808  11.175  14.996   8.521  0.3996 -0.2623 -0.2531
  301loPI   C3A 4809  10.814  14.996   8.332 -0.0457  0.2210  0.4274
  301loPI   C4A 4810  10.750  14.817   7.923 -0.0639 -0.0980  0.1315
  301loPI   C5A 4811  10.781  14.495   7.567  0.1990 -0.1424  0.0691
  301loPI   C6A 4812  10.894  14.342   7.220 -0.0233  0.0008  0.1507
  301loPI   C1B 4813  10.873  15.430   8.616  0.1542  0.2575  0.3468
  301loPI   C2B 4814  10.627  15.441   8.289  0.1621  0.1603 -0.2770
  301loPI   C3B 4815  10.263  15.520   7.938  0.2251  0.3541 -0.3214
  301loPI   C4B 4816   9.937  15.340   7.750  0.0736 -0.0814 -0.1285
  302loPI    C1 4817  16.191  17.177   9.633 -0.0027 -0.0894 -0.2126
  302loPI    C2 4818  16.553  17.011   9.672  0.0852  0.1294 -0.0779
  302loPI    C3 4819  16.233  16.836   9.837  0.0970 -0.1651 -0.3578
  302loPI   PO4 4820  16.228  17.241   9.403  0.0755 -0.2346 -0.0061
  302loPI   GL1 4821  16.200  17.179   8.927  0.0272 -0.0403 -0.3428
  302loPI   GL2 4822  16.120  17.438   8.756  0.5129 -0.0931 -0.0220
  302loPI   C1A 4823  16.106  17.005   8.493  0.0628 -0.4371  0.0193
  302loPI   C2A 4824  16.162  16.914   8.048  0.1803 -0.1441 -0.1081
  302loPI   C3A 4825  16.124  16.820   7.623 -0.2638 -0.2732  0.6579
  302loPI   C4A 4826  16.212  16.736   7.149 -0.1615  0.2862  0.0740
  302loPI   C5A 4827  16.188  17.107   6.852  0.0714 -0.2288  0.0453
  302loPI   C6A 4828  16.060  17.199   6.481 -0.1489 -0.0333  0.1928
  302loPI   C1B 4829  16.106  17.689   8.354 -0.1736  0.0065 -0.3041
  302loPI   C2B 4830  15.945  17.718   7.898 -0.2182 -0.0484 -0.0510
  302loPI   C3B 4831  15.642  17.751   7.482 -0.0284  0.0081 -0.2732
  302loPI   C4B 4832  15.417  17.468   7.369 -0.0022 -0.2430  0.2474
  303loPI    C1 4833  16.724   6.378  10.009  0.2328  0.1862 -0.0503
  303loPI    C2 4834  16.382   6.508  10.171  0.1891  0.2872 -0.2213
  303loPI    C3 4835  16.610   6.246  10.369  0.1646  0.4503  0.0275
  303loPI   PO4 4836  16.724   6.515   9.756 -0.0936  0.1219  0.1438
  303loPI   GL1 4837  16.560   6.491   9.413 -0.1122  0.2495 -0.2182
  303loPI   GL2 4838  16.519   6.159   9.376 -0.3245 -0.1170  0.2568
  303loPI   C1A 4839  16.889   6.338   9.063 -0.4324 -0.1997 -0.1094
  303loPI   C2A 4840  17.192   6.251   8.681 -0.0517 -0.1748  0.0433
  303loPI   C3A 4841  17.465   6.369   8.234 -0.0022  0.1493 -0.0961
  303loPI   C4A 4842  17.386   6.103   7.789 -0.0256  0.2974  0.5002
  303loPI   C5A 4843  17.446   5.684   7.548 -0.1025 -0.2924  0.2561
  303loPI   C6A 4844  17.666   5.329   7.548  0.1133  0.1160 -0.2544
  303loPI   C1B 4845  16.416   6.162   8.873 -0.3723 -0.0265 -0.2657
  303loPI   C2B 4846  16.255   6.043   8.476  0.2322  0.0701  0.0283
  303loPI   C3B 4847  16.037   6.143   8.010 -0.1861  0.0828 -0.0238
  303loPI   C4B 4848  16.022   6.329   7.629 -0.1408 -0.0397 -0.0700
  304loPI    C1 4849  17.110   0.744   9.885  0.1537  0.1065  0.0631
  304loPI    C2 4850  17.038   1.099  10.056 -0.1759  0.1493 -0.1543
  304loPI    C3 4851  16.795   0.790  10.128 -0.1271  0.0789 -0.2882
  304loPI   PO4 4852  17.121   0.780   9.631  0.4857 -0.0684  0.0415
  304loPI   GL1 4853  17.019   1.035   9.264  0.6823 -0.1967 -0.1523
  304loPI   GL2 4854  16.930   0.740   9.157 -0.3482 -0.2255  0.1446
  304loPI   C1A 4855  16.923   1.327   8.885  0.1260  0.0964 -0.1951
  304loPI   C2A 4856  16.774   1.249   8.447  0.0066  0.1792 -0.0571
  304loPI   C3A 4857  16.477   1.251   8.172 -0.2886  0.1412 -0.0910
  304loPI   C4A 4858  16.103   1.386   7.947 -0.3466  0.0378  0.1983
  304loPI   C5A 4859  15.937   1.684   7.811 -0.2218  0.1696  0.2182
  304loPI   C6A 4860  15.673   2.002   7.642 -0.0163  0.0404 -0.1725
  304loPI   C1B 4861  17.010   0.840   8.716 -0.1519  0.2427 -0.0448
  304loPI   C2B 4862  17.329   0.837   8.340 -0.4594 -0.3594 -0.1713
  304loPI   C3B 4863  17.577   0.567   8.046  0.0580  0.2025 -0.1872
  304loPI   C4B 4864  17.615   0.700   7.654 -0.1115  0.3296  0.1452
  305loPI    C1 4865   5.787  14.760  10.084  0.2304  0.1082 -0.1822
  305loPI    C2 4866   5.711  15.095  10.288  0.0764  0.0368 -0.1203
  305loPI    C3 4867   5.794  14.756  10.483 -0.0291 -0.0219 -0.1765
  305loPI   PO4 4868   5.884  14.793   9.849 -0.1709 -0.2367 -0.5473
  305loPI   GL1 4869   5.722  14.717   9.405 -0.2316 -0.0209 -0.0547
  305loPI   GL2 4870   6.004  14.474   9.350 -0.0573 -0.1252  0.0070
  305loPI   C1A 4871   5.647  14.684   9.073 -0.2195 -0.2077 -0.0917
  305loPI   C2A 4872   5.659  14.617   8.720  0.1174 -0.0978 -0.3064
  305loPI   C3A 4873   5.743  14.659   8.339 -0.2767  0.1485 -0.1804
  305loPI   C4A 4874   5.808  14.552   7.880 -0.1397 -0.0697  0.0418
  305loPI   C5A 4875   5.985  14.545   7.438  0.6071 -0.0743 -0.3589
  305loPI   C6A 4876   5.970  14.090   7.282 -0.3404  0.0568  0.0566
  305loPI   C1B 4877   6.022  14.284   8.969 -0.1785 -0.1051  0.1408
  305loPI   C2B 4878   5.823  14.129   8.575  0.4287  0.0520  0.2108
  305loPI   C3B 4879   5.695  14.125   8.158 -0.2990  0.2730  0.0321
  305loPI   C4B 4880   5.564  14.055   7.632  0.0786 -0.0193 -0.1093
  306loPI    C1 4881   4.452   1.864   9.943  0.1981  0.1077  0.0975
  306loPI    C2 4882   4.355   1.878  10.331 -0.3968  0.0013 -0.0368
  306loPI    C3 4883   4.558   1.565  10.186  0.0286  0.1481  0.2230
  306loPI   PO4 4884   4.459   2.075   9.854 -0.1483 -0.0253  0.0334
  306loPI   GL1 4885   4.140   2.163   9.563  0.1252 -0.0948 -0.0651
  306loPI   GL2 4886   4.348   1.862   9.445 -0.1811 -0.1671  0.2608
  306loPI   C1A 4887   4.095   2.066   8.995 -0.0155 -0.1270  0.0036
  306loPI   C2A 4888   4.269   2.059   8.561  0.0515 -0.0382  0.0803
  306loPI   C3A 4889   4.400   2.046   8.156  0.1379 -0.3267  0.1739
  306loPI   C4A 4890   4.610   1.977   7.746 -0.0888  0.1208 -0.0284
  306loPI   C5A 4891   4.413   2.139   7.384  0.0370 -0.0942 -0.2168
  306loPI   C6A 4892   4.297   2.280   7.024  0.1036 -0.4199 -0.2109
  306loPI   C1B 4893   4.257   1.571   9.156 -0.0268  0.0250 -0.0528
  306loPI   C2B 4894   4.027   1.590   8.807 -0.0626  0.0168 -0.0454
  306loPI   C3B 4895   3.696   1.335   8.576 -0.2996  0.2059 -0.0062
  306loPI   C4B 4896   3.586   1.006   8.252  0.0106 -0.1867 -0.3326
  307loPI    C1 4897   5.883   5.291   9.985  0.2702  0.1603  0.2149
  307loPI    C2 4898   6.151   4.995   9.998  0.3081  0.1823 -0.0271
  307loPI    C3 4899   5.876   5.028  10.286  0.1522 -0.2321 -0.1213
  307loPI   PO4 4900   5.820   5.310   9.719 -0.0258 -0.0569  0.1166
  307loPI   GL1 4901   6.055   5.350   9.308 -0.0081 -0.2819  0.0959
  307loPI   GL2 4902   5.678   5.255   9.273  0.1140  0.0902  0.1017
  307loPI   C1A 4903   6.288   5.361   8.860 -0.0954 -0.2938 -0.3115
  307loPI   C2A 4904   6.346   5.645   8.451  0.0583  0.1187 -0.0080
  307loPI   C3A 4905   6.348   5.685   7.980 -0.2334 -0.1053 -0.0740
  307loPI   C4A 4906   6.189   5.734   7.509  0.0379 -0.0155 -0.0254
  307loPI   C5A 4907   5.949   5.973   7.114 -0.0474  0.2565  0.1350
  307loPI   C6A 4908   5.614   5.841   6.790 -0.2295 -0.0845  0.0195
  307loPI   C1B 4909   5.880   5.081   8.902  0.0610  0.0362  0.2498
  307loPI   C2B 4910   5.826   5.032   8.478 -0.0879  0.0407  0.1188
  307loPI   C3B 4911   5.969   5.173   8.102  0.1854  0.0971  0.1820
  307loPI   C4B 4912   6.206   5.298   7.802  0.0809  0.3108 -0.1388
  308loPI    C1 4913   2.211  12.919  10.135  0.0210  0.2603  0.2029
  308loPI    C2 4914   2.572  12.756  10.080 -0.1434 -0.1206  0.2209
  308loPI    C3 4915   2.516  13.027  10.369  0.1941  0.1697  0.0224
  308loPI   PO4 4916   2.147  12.914   9.898 -0.2242 -0.0824 -0.0960
  308loPI   GL1 4917   2.105  12.918   9.412 -0.0264  0.0758  0.3167
  308loPI   GL2 4918   1.939  13.087   9.250  0.1128  0.0776 -0.2653
  308loPI   C1A 4919   2.198  12.678   8.911 -0.0858 -0.2958  0.0623
  308loPI   C2A 4920   2.325  12.856   8.479  0.4657  0.0798 -0.0372
  308loPI   C3A 4921   2.325  12.778   8.045  0.1083 -0.1823  0.1044
  308loPI   C4A 4922   2.378  12.806   7.609 -0.2696 -0.0230 -0.1787
  308loPI   C5A 4923   2.366  13.040   7.303 -0.0712 -0.4680  0.1432
  308loPI   C6A 4924   2.346  13.482   7.373  0.1686 -0.0725 -0.0787
  308loPI   C1B 4925   1.698  12.727   9.003  0.0256  0.1584  0.1214
  308loPI   C2B 4926   1.563  12.532   8.586 -0.0353  0.1835 -0.3359
  308loPI   C3B 4927   1.288  12.480   8.196 -0.0283  0.1150  0.1162
  308loPI   C4B 4928   1.299  12.616   7.779  0.2435  0.1437 -0.3276
  309loPI    C1 4929   8.947   1.083   9.480  0.0179 -0.3509 -0.1456
  309loPI    C2 4930   8.924   0.812   9.773  0.0289 -0.0081  0.1793
  309loPI    C3 4931   8.591   0.978   9.628  0.0249 -0.1624  0.0085
  309loPI   PO4 4932   9.200   1.057   9.448 -0.0357  0.3261 -0.2048
  309loPI   GL1 4933   9.327   1.167   9.072 -0.0358  0.1717  0.0238
  309loPI   GL2 4934   9.291   1.526   8.972 -0.1070  0.1014 -0.4779
  309loPI   C1A 4935   8.841   1.254   9.002  0.1406 -0.3527 -0.0073
  309loPI   C2A 4936   8.485   1.032   8.860 -0.2650  0.1107  0.1205
  309loPI   C3A 4937   8.380   0.749   8.511  0.2358  0.3552  0.1068
  309loPI   C4A 4938   8.132   0.666   8.102 -0.3109 -0.2885 -0.0533
  309loPI   C5A 4939   8.219   0.430   7.708  0.5051  0.0501 -0.2748
  309loPI   C6A 4940   8.470   0.139   7.420  0.1544 -0.0967  0.3069
  309loPI   C1B 4941   9.138   1.336   8.546 -0.0917 -0.1083 -0.0021
  309loPI   C2B 4942   9.145   1.342   8.228  0.1212  0.0478  0.0598
  309loPI   C3B 4943   9.042   1.558   7.735 -0.2630  0.1257  0.1007
  309loPI   C4B 4944   8.842   1.610   7.304  0.1411 -0.0857  0.0203
  310loPI    C1 4945  17.640  19.497   9.984 -0.1244 -0.0469 -0.1403
  310loPI    C2 4946  17.384  19.346  10.252  0.0269 -0.2249 -0.0944
  310loPI    C3 4947  17.575  19.688  10.329  0.0645 -0.2717  0.0231
  310loPI   PO4 4948  17.570  19.453   9.798  0.1881 -0.0868  0.3274
  310loPI   GL1 4949  17.795  19.493   9.371 -0.3183 -0.1608 -0.1102
  310loPI   GL2 4950  17.530  19.449   9.177 -0.0647 -0.1394 -0.1256
  310loPI   C1A 4951  17.915  19.578   8.935  0.3278  0.1916 -0.0266
  310loPI   C2A 4952  17.934  19.642   8.533  0.1366 -0.0533  0.0240
  310loPI   C3A 4953  18.021  19.969   8.168  0.3339  0.1474  0.0693
  310loPI   C4A 4954  18.280  20.056   7.687  0.1136  0.0111 -0.0705
  310loPI   C5A 4955  18.393  19.783   7.346  0.1281 -0.0872  0.2821
  310loPI   C6A 4956  18.219  19.382   7.223 -0.1284 -0.0240 -0.1231
  310loPI   C1B 4957  17.460  19.512   8.750  0.0107 -0.0656 -0.3212
  310loPI   C2B 4958  17.357  19.700   8.287  0.0287  0.0354 -0.2822
  310loPI   C3B 4959  17.297  19.632   7.861 -0.0667  0.0672  0.1915
  310loPI   C4B 4960  17.427  19.819   7.437 -0.3178 -0.2172 -0.0683
  311loPI    C1 4961   2.202  12.130   9.770  0.3438  0.1716  0.0990
  311loPI    C2 4962   1.983  12.463   9.806  0.2768  0.1511 -0.1094
  311loPI    C3 4963   2.253  12.370  10.086  0.0260  0.1808  0.1461
  311loPI   PO4 4964   2.307  12.088   9.553 -0.5118 -0.0021 -0.1090
  311loPI   GL1 4965   2.396  11.916   9.260 -0.0387 -0.0909 -0.0015
  311loPI   GL2 4966   2.736  11.818   9.383  0.2118  0.4084  0.2772
  311loPI   C1A 4967   2.172  12.050   8.955 -0.1845 -0.1699 -0.0268
  311loPI   C2A 4968   2.061  12.283   8.584  0.2661 -0.1289  0.3112
  311loPI   C3A 4969   2.128  12.380   8.196 -0.2178 -0.0749  0.0827
  311loPI   C4A 4970   2.125  12.385   7.800  0.1442 -0.2066 -0.0654
  311loPI   C5A 4971   2.408  12.335   7.461  0.0818 -0.1124 -0.1126
  311loPI   C6A 4972   2.568  12.605   7.160  0.2617  0.2709  0.1952
  311loPI   C1B 4973   2.660  11.873   8.866  0.1868  0.0136  0.0528
  311loPI   C2B 4974   2.513  11.820   8.490 -0.1045 -0.0929  0.0637
  311loPI   C3B 4975   2.384  11.491   8.302  0.1325 -0.2623  0.1855
  311loPI   C4B 4976   2.620  11.386   7.941  0.0616  0.0775 -0.1438
  312loPI    C1 4977   0.767   9.580   9.994  0.1088  0.0307 -0.1407
  312loPI    C2 4978   0.905   9.951  10.054 -0.0268  0.0626 -0.0180
  312loPI    C3 4979   0.767   9.737  10.362 -0.1665 -0.0027 -0.1246
  312loPI   PO4 4980   0.492   9.642   9.846  0.0050  0.0473  0.0458
  312loPI   GL1 4981   0.522   9.705   9.295  0.1950  0.1658  0.0998
  312loPI   GL2 4982   0.308   9.811   9.027  0.1266 -0.0363  0.1016
  312loPI   C1A 4983   0.852   9.705   9.031  0.0913 -0.0054  0.1843
  312loPI   C2A 4984   1.081   9.917   8.793  0.0338  0.1859  0.2337
  312loPI   C3A 4985   1.371   9.936   8.504 -0.3128 -0.2112 -0.1561
  312loPI   C4A 4986   1.652  10.166   8.285  0.4311  0.0720  0.0036
  312loPI   C5A 4987   1.838  10.446   8.133 -0.2682 -0.2066  0.1445
  312loPI   C6A 4988   1.931  10.441   7.693 -0.1385 -0.0368 -0.2134
  312loPI   C1B 4989   0.518   9.638   8.646  0.0868 -0.2979  0.0150
  312loPI   C2B 4990   0.497   9.449   8.256  0.0154 -0.4890  0.2286
  312loPI   C3B 4991   0.461   9.353   7.812  0.0449 -0.2077 -0.2372
  312loPI   C4B 4992   0.303   9.624   7.406  0.1855  0.2750 -0.4067
  313loPI    C1 4993  11.671   8.146   9.768 -0.1093 -0.1101 -0.0627
  313loPI    C2 4994  11.746   7.826   9.996 -0.1248 -0.0685  0.0011
  313loPI    C3 4995  11.655   8.176  10.167 -0.1316 -0.0361 -0.0691
  313loPI   PO4 4996  11.773   8.195   9.615 -0.1320 -0.0485  0.0284
  313loPI   GL1 4997  11.815   8.173   9.146  0.0596 -0.1803  0.0204
  313loPI   GL2 4998  12.001   7.869   9.104 -0.0837  0.1957 -0.2643
  313loPI   C1A 4999  11.500   8.199   8.780 -0.0628 -0.2155 -0.0273
  313loPI   C2A 5000  11.276   8.265   8.410  0.0137 -0.3031  0.0630
  313loPI   C3A 5001  11.138   8.301   8.036  0.0831 -0.1518  0.2341
  313loPI   C4A 5002  11.071   8.568   7.713  0.2327  0.0172  0.0803
  313loPI   C5A 5003  10.810   8.727   7.275  0.2217  0.0989 -0.0979
  313loPI   C6A 5004  10.421   8.926   7.270  0.2425  0.2119 -0.2459
  313loPI   C1B 5005  11.990   7.924   8.723 -0.1144  0.0686 -0.0783
  313loPI   C2B 5006  12.180   7.929   8.314  0.1161 -0.1524 -0.0217
  313loPI   C3B 5007  12.180   8.161   7.890 -0.0365  0.0608 -0.2067
  313loPI   C4B 5008  12.047   8.554   7.694 -0.0616  0.2682  0.2025
  314loPI    C1 5009   9.378  14.724   9.753 -0.3297 -0.2018  0.1189
  314loPI    C2 5010   9.265  15.059   9.940 -0.3343 -0.0671 -0.1211
  314loPI    C3 5011   9.362  14.734  10.153  0.4856  0.3329  0.1616
  314loPI   PO4 5012   9.395  14.835   9.496 -0.0562 -0.5182  0.2265
  314loPI   GL1 5013   9.171  14.914   9.088 -0.1530  0.1611 -0.1558
  314loPI   GL2 5014   9.482  14.815   8.909  0.2896 -0.1707  0.1909
  314loPI   C1A 5015   8.958  15.287   8.876  0.0100 -0.0968 -0.2659
  314loPI   C2A 5016   8.905  15.285   8.452 -0.0605  0.2619  0.0932
  314loPI   C3A 5017   8.751  15.431   8.041  0.0801 -0.0511 -0.1422
  314loPI   C4A 5018   8.605  15.403   7.627 -0.0553  0.5941 -0.1489
  314loPI   C5A 5019   8.383  15.559   7.269 -0.2310 -0.0989 -0.1749
  314loPI   C6A 5020   8.279  15.623   6.784  0.2011 -0.1977 -0.0601
  314loPI   C1B 5021   9.380  15.103   8.545  0.0090  0.0026  0.1212
  314loPI   C2B 5022   9.230  15.220   8.059 -0.1523  0.1693 -0.1138
  314loPI   C3B 5023   9.222  15.029   7.747  0.1968 -0.2960 -0.0678
  314loPI   C4B 5024   9.066  14.663   7.739 -0.2663  0.1048  0.0183
  315loPI    C1 5025  18.984   3.678  10.206  0.0992  0.0836  0.0477
  315loPI    C2 5026  18.940   4.012  10.422  0.2624  0.1311  0.0086
  315loPI    C3 5027  18.628   3.768  10.366  0.1268  0.3071 -0.0134
  315loPI   PO4 5028  19.062   3.786   9.867  0.1201  0.0868  0.3954
  315loPI   GL1 5029  18.913   3.923   9.488 -0.0009 -0.0430 -0.1615
  315loPI   GL2 5030  18.923   3.546   9.450 -0.1482  0.0900  0.3506
  315loPI   C1A 5031  19.221   3.892   9.083  0.0474  0.2243 -0.2997
  315loPI   C2A 5032  19.459   3.708   8.757 -0.1994 -0.1274  0.2763
  315loPI   C3A 5033  19.689   3.776   8.377  0.3619 -0.0574  0.1566
  315loPI   C4A 5034  19.545   3.708   7.946  0.0475  0.2769 -0.2864
  315loPI   C5A 5035  19.496   3.394   7.624  0.0870  0.2707  0.0972
  315loPI   C6A 5036  19.701   3.160   7.320 -0.0731 -0.1463  0.0261
  315loPI   C1B 5037  18.790   3.412   8.975  0.2911 -0.2000  0.1740
  315loPI   C2B 5038  18.626   3.447   8.501  0.0315  0.0081 -0.0598
  315loPI   C3B 5039  18.549   3.532   8.185 -0.3193 -0.1026  0.3043
  315loPI   C4B 5040  18.348   3.774   7.808  0.0269 -0.0691 -0.0534
  316loPI    C1 5041   4.366   6.692   9.698  0.1148 -0.0796 -0.0375
  316loPI    C2 5042   4.721   6.662   9.879  0.0968 -0.1229 -0.0090
  316loPI    C3 5043   4.420   6.423   9.990 -0.0183  0.0915  0.1475
  316loPI   PO4 5044   4.348   6.644   9.464 -0.1429 -0.0310 -0.2718
  316loPI   GL1 5045   4.373   6.856   9.079 -0.0029 -0.0736  0.1691
  316loPI   GL2 5046   4.620   6.676   8.964 -0.1827  0.0809  0.0984
  316loPI   C1A 5047   4.467   7.068   8.678  0.1021 -0.2960 -0.1594
  316loPI   C2A 5048   4.404   7.061   8.272  0.0960  0.2854  0.0744
  316loPI   C3A 5049   4.049   7.122   8.076  0.0025  0.0615 -0.0133
  316loPI   C4A 5050   3.630   7.089   8.190 -0.0562 -0.4949  0.1614
  316loPI   C5A 5051   3.468   7.276   8.599  0.4079  0.0548  0.0112
  316loPI   C6A 5052   3.101   7.399   8.809 -0.4582  0.1399 -0.1529
  316loPI   C1B 5053   4.372   6.582   8.572 -0.2910  0.1533  0.1810
  316loPI   C2B 5054   4.380   6.594   8.127  0.1923  0.0786  0.0207
  316loPI   C3B 5055   4.359   6.685   7.727  0.0517 -0.0912 -0.1231
  316loPI   C4B 5056   4.337   6.553   7.246  0.1712 -0.0650 -0.2334
  317loPI    C1 5057  16.146  12.698   9.726 -0.2124 -0.1465 -0.0175
  317loPI    C2 5058  16.362  12.418   9.913  0.1715  0.0672 -0.1307
  317loPI    C3 5059  16.053  12.591  10.100  0.3293  0.0252  0.1747
  317loPI   PO4 5060  16.351  12.840   9.489  0.0079  0.1684 -0.1958
  317loPI   GL1 5061  16.503  12.953   9.142 -0.0724  0.0871 -0.0883
  317loPI   GL2 5062  16.244  13.151   9.059 -0.4647 -0.1340  0.1596
  317loPI   C1A 5063  16.578  12.601   8.836 -0.3241  0.0334  0.0826
  317loPI   C2A 5064  16.625  12.273   8.463  0.1586  0.0692 -0.0445
  317loPI   C3A 5065  16.355  12.052   8.228  0.2246  0.2220  0.0294
  317loPI   C4A 5066  16.440  11.705   7.948 -0.0696 -0.0275  0.0718
  317loPI   C5A 5067  16.606  11.471   7.574 -0.1728 -0.1205 -0.1258
  317loPI   C6A 5068  16.677  11.236   7.178  0.0071 -0.0383  0.2111
  317loPI   C1B 5069  16.103  12.768   8.801  0.0101 -0.0129 -0.0567
  317loPI   C2B 5070  16.141  12.323   8.664  0.0872  0.0068  0.0666
  317loPI   C3B 5071  16.020  11.949   8.732 -0.0637  0.0630 -0.0173
  317loPI   C4B 5072  15.902  11.570   8.749  0.1873 -0.1042 -0.1140
  318loPI    C1 5073  10.638  17.029   9.883 -0.1169  0.1033  0.1654
  318loPI    C2 5074  10.581  16.644   9.790 -0.0336  0.1455 -0.0655
  318loPI    C3 5075  10.322  16.833  10.030 -0.0490 -0.0662  0.0873
  318loPI   PO4 5076  10.810  17.096   9.606  0.0172 -0.3154  0.2689
  318loPI   GL1 5077  10.745  17.229   9.189 -0.2264 -0.0619 -0.2198
  318loPI   GL2 5078  10.563  17.155   8.921  0.0283  0.2521 -0.1079
  318loPI   C1A 5079  11.012  17.325   8.749  0.1190  0.1122 -0.3000
  318loPI   C2A 5080  11.147  17.399   8.383 -0.1113  0.2117  0.1412
  318loPI   C3A 5081  11.167  17.614   7.970 -0.2463  0.1554 -0.0127
  318loPI   C4A 5082  11.273  17.618   7.573 -0.0071  0.0156 -0.3036
  318loPI   C5A 5083  11.519  17.596   7.158  0.1700  0.0777  0.0238
  318loPI   C6A 5084  11.482  17.626   6.695  0.2924 -0.1624  0.1908
  318loPI   C1B 5085  10.375  17.071   8.509 -0.0972  0.0519 -0.0157
  318loPI   C2B 5086  10.378  16.964   8.136  0.2161  0.2170 -0.0474
  318loPI   C3B 5087  10.380  16.930   7.724  0.2045 -0.3817  0.0915
  318loPI   C4B 5088  10.586  16.892   7.342  0.0907 -0.2170 -0.1432
  319loPI    C1 5089  15.736   1.617   9.862 -0.2739 -0.1470 -0.0626
  319loPI    C2 5090  16.091   1.781   9.778 -0.2698 -0.0643  0.1114
  319loPI    C3 5091  16.046   1.559  10.107 -0.3569 -0.1495  0.0426
  319loPI   PO4 5092  15.576   1.783   9.740 -0.1260  0.1863  0.2571
  319loPI   GL1 5093  15.587   1.762   9.278  0.2073  0.0578 -0.1858
  319loPI   GL2 5094  15.834   2.010   9.300 -0.0687  0.2225  0.3297
  319loPI   C1A 5095  15.385   1.502   8.989  0.1438 -0.2432 -0.1231
  319loPI   C2A 5096  15.129   1.413   8.606 -0.0189 -0.0273  0.1215
  319loPI   C3A 5097  14.960   1.244   8.214  0.1852  0.0305 -0.0944
  319loPI   C4A 5098  14.810   1.356   7.703 -0.1787 -0.1788  0.4029
  319loPI   C5A 5099  14.698   1.288   7.274 -0.0229  0.0809  0.0309
  319loPI   C6A 5100  14.677   1.517   6.843 -0.0033  0.0767 -0.1741
  319loPI   C1B 5101  16.101   1.797   8.983  0.0608 -0.4504  0.1023
  319loPI   C2B 5102  16.549   1.703   8.768  0.0700 -0.1498 -0.0178
  319loPI   C3B 5103  16.866   1.764   8.382 -0.0696  0.3468  0.1842
  319loPI   C4B 5104  16.943   1.919   8.047  0.0366  0.0219  0.0003
  320loPI    C1 5105   8.647   1.534   9.732  0.2255  0.2544 -0.1142
  320loPI    C2 5106   8.980   1.373   9.884  0.0761 -0.0139 -0.0661
  320loPI    C3 5107   8.667   1.448  10.122  0.0101 -0.0008 -0.1561
  320loPI   PO4 5108   8.545   1.458   9.521 -0.0012 -0.1416 -0.0317
  320loPI   GL1 5109   8.267   1.254   9.234 -0.3942  0.0940 -0.1705
  320loPI   GL2 5110   7.914   1.020   9.245 -0.0870 -0.1572 -0.0648
  320loPI   C1A 5111   8.067   1.384   8.896 -0.0663  0.1087  0.0500
  320loPI   C2A 5112   7.901   1.425   8.542  0.0018 -0.3966 -0.0004
  320loPI   C3A 5113   7.707   1.401   8.116  0.2209 -0.2688  0.1909
  320loPI   C4A 5114   7.554   1.378   7.707 -0.2344 -0.0399 -0.3762
  320loPI   C5A 5115   7.620   1.122   7.296 -0.0906  0.1395  0.3796
  320loPI   C6A 5116   7.987   1.000   7.008  0.0689 -0.0831 -0.1679
  320loPI   C1B 5117   8.160   0.683   9.045 -0.3064 -0.1475  0.0097
  320loPI   C2B 5118   8.072   0.417   8.725  0.0609  0.3720 -0.0441
  320loPI   C3B 5119   8.031   0.185   8.258 -0.1457  0.0889  0.0295
  320loPI   C4B 5120   7.906  -0.141   7.963  0.1628 -0.2563  0.1671
  321loPI    C1 5121   4.386  17.311   9.641 -0.0216  0.0504  0.1524
  321loPI    C2 5122   4.627  17.363   9.956 -0.0466  0.2568  0.1388
  321loPI    C3 5123   4.291  17.150   9.995  0.0685  0.0822  0.1915
  321loPI   PO4 5124   4.607  17.513   9.484  0.0301 -0.0043  0.0805
  321loPI   GL1 5125   4.385  17.549   9.123  0.0437  0.2737  0.1150
  321loPI   GL2 5126   4.118  17.476   9.075 -0.4209  0.1612 -0.1768
  321loPI   C1A 5127   4.659  17.460   8.775  0.0507  0.0573  0.0618
  321loPI   C2A 5128   4.893  17.336   8.486  0.0383  0.2461  0.1760
  321loPI   C3A 5129   4.985  17.164   8.110  0.1357 -0.2235  0.0924
  321loPI   C4A 5130   5.321  17.026   7.660  0.5344  0.1600  0.0312
  321loPI   C5A 5131   5.520  17.025   7.184 -0.0786 -0.1679 -0.0887
  321loPI   C6A 5132   5.333  17.411   7.049 -0.4160  0.1575  0.0815
  321loPI   C1B 5133   4.112  17.276   8.782 -0.2507 -0.0803  0.0763
  321loPI   C2B 5134   4.428  17.185   8.450 -0.0375  0.2795 -0.0638
  321loPI   C3B 5135   4.612  16.892   8.305  0.2498 -0.1096 -0.1832
  321loPI   C4B 5136   4.505  16.731   7.989  0.4267 -0.1712  0.1144
  322loPI    C1 5137   5.024  12.624  10.083 -0.1390  0.1177 -0.1909
  322loPI    C2 5138   4.805  12.379  10.311 -0.0986  0.1111 -0.1593
  322loPI    C3 5139   5.203  12.339  10.299 -0.0786  0.2648 -0.0442
  322loPI   PO4 5140   4.884  12.626   9.762  0.2405  0.2369 -0.0902
  322loPI   GL1 5141   4.994  12.389   9.331  0.1505  0.1233  0.0475
  322loPI   GL2 5142   5.299  12.224   9.263  0.4368 -0.0198 -0.0318
  322loPI   C1A 5143   4.798  12.295   8.885 -0.2850  0.0871  0.1913
  322loPI   C2A 5144   4.904  12.123   8.458 -0.2181  0.2692  0.2124
  322loPI   C3A 5145   4.935  12.096   7.985  0.3510  0.4222 -0.1438
  322loPI   C4A 5146   4.811  12.004   7.526  0.0438 -0.0969  0.0323
  322loPI   C5A 5147   4.365  11.815   7.229 -0.1046  0.1854 -0.0351
  322loPI   C6A 5148   4.287  11.594   7.006  0.0238 -0.0771  0.0886
  322loPI   C1B 5149   5.299  12.128   8.799  0.3982 -0.4088  0.4590
  322loPI   C2B 5150   5.374  11.950   8.564 -0.5785  0.1610  0.0378
  322loPI   C3B 5151   5.705  11.815   8.266 -0.2327  0.0635  0.1014
  322loPI   C4B 5152   5.490  11.714   8.022  0.3949 -0.1839 -0.3151
  323loPI    C1 5153   5.481   3.609   9.905 -0.1002 -0.0643 -0.0096
  323loPI    C2 5154   5.177   3.786   9.714 -0.0753  0.0093  0.0184
  323loPI    C3 5155   5.308   3.934  10.062 -0.0446 -0.0559  0.0347
  323loPI   PO4 5156   5.716   3.643   9.764  0.1597  0.1087 -0.1240
  323loPI   GL1 5157   5.601   3.697   9.356  0.1416  0.0946  0.0778
  323loPI   GL2 5158   5.675   3.302   9.285  0.0011 -0.1397 -0.4756
  323loPI   C1A 5159   5.512   3.865   8.922 -0.1331 -0.0039 -0.1136
  323loPI   C2A 5160   5.416   3.762   8.415 -0.0846 -0.1326 -0.0277
  323loPI   C3A 5161   5.336   3.553   8.075 -0.1624  0.2253  0.2539
  323loPI   C4A 5162   5.333   3.665   7.587 -0.0063  0.1669  0.2077
  323loPI   C5A 5163   5.141   4.061   7.393  0.1820 -0.0290 -0.3493
  323loPI   C6A 5164   4.909   4.324   7.087  0.0138  0.3429  0.1539
  323loPI   C1B 5165   5.818   3.131   8.871  0.2115 -0.1943 -0.0073
  323loPI   C2B 5166   6.073   3.095   8.575 -0.1444 -0.4418  0.4210
  323loPI   C3B 5167   6.320   2.869   8.440 -0.0009  0.0045  0.0552
  323loPI   C4B 5168   6.681   2.514   8.438 -0.2067  0.2397 -0.0008
  324loPI    C1 5169  18.714   0.232  10.102  0.0712  0.1258 -0.0133
  324loPI    C2 5170  18.941   0.127  10.414 -0.0312 -0.3383 -0.0879
  324loPI    C3 5171  18.587  -0.050  10.355 -0.3611  0.2820 -0.0489
  324loPI   PO4 5172  18.838   0.246   9.883 -0.0663  0.1396 -0.1754
  324loPI   GL1 5173  19.155   0.136   9.603  0.2182  0.2338 -0.2684
  324loPI   GL2 5174  19.354  -0.147   9.634 -0.0327  0.1552  0.0084
  324loPI   C1A 5175  19.112   0.474   9.284  0.1559 -0.1911 -0.0196
  324loPI   C2A 5176  19.128   0.596   8.774  0.4033 -0.1148  0.2753
  324loPI   C3A 5177  18.864   0.485   8.361  0.1319 -0.2024  0.1207
  324loPI   C4A 5178  18.684   0.293   7.964 -0.0257  0.3133  0.1162
  324loPI   C5A 5179  18.564  -0.022   7.736  0.0314  0.0428  0.2629
  324loPI   C6A 5180  18.483  -0.508   7.508 -0.0301 -0.2768  0.3401
  324loPI   C1B 5181  19.543  -0.157   9.215 -0.0573 -0.0957 -0.3463
  324loPI   C2B 5182  19.658  -0.207   8.849  0.1088  0.2774 -0.2818
  324loPI   C3B 5183  19.647  -0.119   8.382  0.0127 -0.0016  0.0882
  324loPI   C4B 5184  19.332  -0.017   8.031  0.2663  0.1601 -0.1618
  325loPI    C1 5185  10.887   2.956   9.770  0.2227 -0.1311 -0.1341
  325loPI    C2 5186  11.070   2.636   9.926  0.0000 -0.0718  0.2623
  325loPI    C3 5187  10.943   2.931  10.165  0.0554  0.2397 -0.0825
  325loPI   PO4 5188  10.693   2.857   9.630 -0.0721 -0.1826  0.0704
  325loPI   GL1 5189  10.509   2.936   9.195  0.1932  0.0634 -0.0425
  325loPI   GL2 5190  10.972   3.043   9.192  0.3492 -0.0177 -0.0080
  325loPI   C1A 5191  10.501   3.051   8.731 -0.3564 -0.1381  0.1422
  325loPI   C2A 5192  10.717   3.006   8.290  0.1390  0.0254 -0.4993
  325loPI   C3A 5193  10.900   3.143   7.937 -0.0580  0.1021  0.2564
  325loPI   C4A 5194  11.046   3.001   7.564 -0.2787  0.1602 -0.1531
  325loPI   C5A 5195  11.380   3.162   7.367  0.0016 -0.0815  0.1272
  325loPI   C6A 5196  11.584   2.835   7.127 -0.4588 -0.1789 -0.0458
  325loPI   C1B 5197  11.082   3.045   8.670  0.1338 -0.0389 -0.0119
  325loPI   C2B 5198  11.162   2.769   8.216  0.0120  0.1384 -0.3332
  325loPI   C3B 5199  11.042   2.594   7.895 -0.1996 -0.3570 -0.1734
  325loPI   C4B 5200  10.928   2.365   7.524  0.3180  0.1449 -0.2722
  326loPI    C1 5201   3.677   1.389   9.845 -0.1085  0.2392  0.1280
  326loPI    C2 5202   3.611   1.348  10.238 -0.2802 -0.1683  0.0607
  326loPI    C3 5203   3.307   1.317   9.979 -0.1438 -0.0520 -0.1156
  326loPI   PO4 5204   3.855   1.110   9.740 -0.4162  0.1034  0.0302
  326loPI   GL1 5205   4.061   0.888   9.245  0.5723 -0.3000 -0.1418
  326loPI   GL2 5206   3.967   1.130   9.241 -0.1994 -0.2362 -0.4639
  326loPI   C1A 5207   3.900   0.764   8.811 -0.5064  0.1191 -0.3730
  326loPI   C2A 5208   3.469   0.657   8.618 -0.2064 -0.1107  0.1128
  326loPI   C3A 5209   3.075   0.764   8.368 -0.0436  0.3448  0.0094
  326loPI   C4A 5210   3.167   0.918   7.954  0.0481  0.0843  0.1078
  326loPI   C5A 5211   3.235   0.851   7.474 -0.0392  0.3771 -0.4102
  326loPI   C6A 5212   2.991   0.732   7.147  0.1084  0.3496  0.0040
  326loPI   C1B 5213   4.331   1.077   8.922  0.0317  0.1546  0.0072
  326loPI   C2B 5214   4.218   1.084   8.543  0.0338 -0.2349  0.1022
  326loPI   C3B 5215   4.208   1.046   8.183 -0.2953  0.0171  0.1562
  326loPI   C4B 5216   3.970   0.777   7.896 -0.0826 -0.2688 -0.6487
  327loPI    C1 5217  10.085   9.717   9.939  0.0403 -0.2350 -0.1507
  327loPI    C2 5218  10.386   9.658  10.195 -0.0810  0.1236  0.0832
  327loPI    C3 5219  10.009   9.597  10.313 -0.1038 -0.4242 -0.2388
  327loPI   PO4 5220  10.013   9.622   9.783  0.1205 -0.3291 -0.1114
  327loPI   GL1 5221  10.217   9.424   9.384 -0.0900  0.1815 -0.0017
  327loPI   GL2 5222   9.938   9.201   9.342 -0.0254 -0.1314  0.2457
  327loPI   C1A 5223  10.123   9.484   8.855 -0.0033 -0.0470  0.0660
  327loPI   C2A 5224  10.044   9.560   8.405  0.0895  0.0216  0.4370
  327loPI   C3A 5225  10.193   9.463   8.073  0.0368 -0.1581  0.0087
  327loPI   C4A 5226  10.224   9.192   7.671  0.0191  0.0776  0.0883
  327loPI   C5A 5227   9.925   9.205   7.388 -0.0273 -0.1899 -0.4541
  327loPI   C6A 5228   9.701   8.925   7.095 -0.1870 -0.1082  0.1053
  327loPI   C1B 5229   9.981   8.954   8.943 -0.1219 -0.1673 -0.1527
  327loPI   C2B 5230  10.066   8.961   8.508 -0.0357 -0.0903 -0.2847
  327loPI   C3B 5231  10.147   8.864   8.109  0.3177  0.2369 -0.1149
  327loPI   C4B 5232  10.060   8.748   7.648 -0.0028  0.3868 -0.1675
  328loPI    C1 5233   9.667   0.640  10.042 -0.1405  0.0210  0.2802
  328loPI    C2 5234   9.507   0.821  10.361 -0.1471 -0.0738  0.3310
  328loPI    C3 5235   9.274   0.614  10.110 -0.1589  0.0929  0.2031
  328loPI   PO4 5236   9.933   0.912   9.910  0.0125 -0.0716  0.0842
  328loPI   GL1 5237  10.095   0.800   9.460 -0.0142 -0.1633 -0.3857
  328loPI   GL2 5238  10.146   0.610   9.216 -0.2400 -0.0917 -0.2877
  328loPI   C1A 5239  10.250   1.079   9.110  0.1805 -0.2371 -0.0664
  328loPI   C2A 5240  10.305   1.474   8.957 -0.2181 -0.1501  0.1598
  328loPI   C3A 5241  10.009   1.650   8.595  0.4251 -0.1451 -0.0014
  328loPI   C4A 5242  10.002   1.648   8.148 -0.0594 -0.0556  0.0263
  328loPI   C5A 5243  10.025   1.474   7.781 -0.0461  0.3010 -0.0802
  328loPI   C6A 5244  10.046   1.540   7.391 -0.2632  0.1411  0.0447
  328loPI   C1B 5245   9.971   0.731   8.871  0.0343 -0.3296 -0.0443
  328loPI   C2B 5246  10.069   1.046   8.511  0.2318  0.0428 -0.1338
  328loPI   C3B 5247  10.276   1.208   8.081  0.1045 -0.4047  0.0985
  328loPI   C4B 5248  10.516   1.468   7.716  0.0525  0.0199  0.1171
  329loPI    C1 5249  13.353  17.151   9.892 -0.1690 -0.0671  0.2685
  329loPI    C2 5250  13.644  17.420   9.838 -0.2022 -0.0561  0.1409
  329loPI    C3 5251  13.584  17.260  10.200  0.1099 -0.2276  0.1200
  329loPI   PO4 5252  13.168  17.255   9.664 -0.1839 -0.1648  0.0096
  329loPI   GL1 5253  13.012  17.339   9.213  0.1465  0.1922 -0.0870
  329loPI   GL2 5254  12.776  17.507   9.149  0.4464  0.3596 -0.2275
  329loPI   C1A 5255  13.300  17.034   8.972  0.2162  0.2787 -0.2495
  329loPI   C2A 5256  13.225  16.897   8.560  0.2230  0.2623  0.0170
  329loPI   C3A 5257  13.400  16.596   8.275  0.2174  0.0966  0.2177
  329loPI   C4A 5258  13.746  16.702   7.955 -0.0014 -0.2370 -0.0595
  329loPI   C5A 5259  13.750  16.829   7.543 -0.2459 -0.0004  0.0505
  329loPI   C6A 5260  13.529  16.854   7.215  0.0983  0.0525  0.0070
  329loPI   C1B 5261  12.625  17.840   8.856  0.3351 -0.3219  0.3511
  329loPI   C2B 5262  12.789  18.249   8.791  0.0486  0.1143  0.3024
  329loPI   C3B 5263  13.203  18.435   8.693  0.2442  0.4369  0.0219
  329loPI   C4B 5264  13.213  18.742   8.328 -0.0462  0.1317 -0.2634
  330loPI    C1 5265  15.493   7.319  10.043 -0.1825 -0.4397  0.1863
  330loPI    C2 5266  15.819   7.388  10.264 -0.1592  0.1031 -0.0020
  330loPI    C3 5267  15.456   7.394  10.434 -0.0981 -0.1637  0.1436
  330loPI   PO4 5268  15.466   7.537   9.863  0.3100 -0.0919  0.1883
  330loPI   GL1 5269  15.078   7.579   9.644  0.1277 -0.1532 -0.0759
  330loPI   GL2 5270  14.934   7.307   9.527 -0.1022  0.1166 -0.1019
  330loPI   C1A 5271  15.271   7.537   9.138 -0.0813  0.1218  0.1086
  330loPI   C2A 5272  15.410   7.287   8.774  0.3180  0.2029 -0.0348
  330loPI   C3A 5273  15.576   7.111   8.458  0.1825 -0.1946  0.0432
  330loPI   C4A 5274  15.854   6.990   8.159 -0.1559 -0.2388 -0.2304
  330loPI   C5A 5275  16.143   6.718   7.881  0.1425 -0.0049  0.2930
  330loPI   C6A 5276  16.476   6.604   7.688 -0.0101 -0.1573  0.1846
  330loPI   C1B 5277  14.862   7.206   9.099 -0.3012 -0.2004  0.1014
  330loPI   C2B 5278  14.939   6.918   8.793  0.1909  0.1227 -0.0662
  330loPI   C3B 5279  15.258   6.649   8.553 -0.1358  0.0070 -0.0282
  330loPI   C4B 5280  15.626   6.525   8.121  0.1634 -0.0281 -0.1106
  331loPI    C1 5281  18.352  12.843   9.408  0.0683 -0.2345  0.0388
  331loPI    C2 5282  18.724  12.990   9.391  0.0334 -0.1461  0.0327
  331loPI    C3 5283  18.601  12.797   9.719  0.1086 -0.2411  0.0055
  331loPI   PO4 5284  18.318  12.666   9.172 -0.1252  0.1743 -0.2532
  331loPI   GL1 5285  18.662  12.550   8.986  0.0140 -0.3393 -0.1989
  331loPI   GL2 5286  18.453  12.677   8.674 -0.0853  0.3415 -0.1819
  331loPI   C1A 5287  18.979  12.389   8.760 -0.0714  0.1180  0.0251
  331loPI   C2A 5288  19.224  12.397   8.323  0.0305  0.0040 -0.0879
  331loPI   C3A 5289  19.290  12.265   7.892  0.2943 -0.0721 -0.0961
  331loPI   C4A 5290  19.219  12.222   7.487  0.2122  0.0566 -0.2847
  331loPI   C5A 5291  19.377  12.030   7.241  0.1262 -0.3666  0.2770
  331loPI   C6A 5292  19.369  12.056   6.741  0.5179  0.1403 -0.2187
  331loPI   C1B 5293  18.340  12.934   8.414  0.0090 -0.0006 -0.0243
  331loPI   C2B 5294  18.061  12.971   7.936  0.1049 -0.1544 -0.2322
  331loPI   C3B 5295  17.901  13.024   7.579  0.2359 -0.4807 -0.4766
  331loPI   C4B 5296  17.710  13.057   7.215 -0.1816  0.0257 -0.0188
  332loPI    C1 5297  11.436  16.753   9.643 -0.1893 -0.0215 -0.1635
  332loPI    C2 5298  11.059  16.642   9.568 -0.2302  0.2298 -0.3451
  332loPI    C3 5299  11.140  16.873   9.885 -0.1759 -0.1190 -0.0978
  332loPI   PO4 5300  11.540  16.878   9.409  0.0952  0.3384  0.2115
  332loPI   GL1 5301  11.432  16.807   9.002 -0.1988 -0.2462 -0.0803
  332loPI   GL2 5302  11.077  16.843   9.060 -0.2058 -0.0909 -0.2134
  332loPI   C1A 5303  11.630  16.628   8.681 -0.0048  0.1179  0.1262
  332loPI   C2A 5304  11.847  16.535   8.302 -0.1992 -0.0039 -0.0487
  332loPI   C3A 5305  11.918  16.656   7.896 -0.0986 -0.1104 -0.1030
  332loPI   C4A 5306  12.360  16.746   7.550 -0.2740  0.3011 -0.1766
  332loPI   C5A 5307  12.608  17.057   7.526 -0.0045  0.0008  0.6150
  332loPI   C6A 5308  12.559  17.174   7.080  0.0854 -0.0608  0.0073
  332loPI   C1B 5309  11.181  16.886   8.600  0.0984  0.1188 -0.0029
  332loPI   C2B 5310  10.951  16.958   8.177 -0.0750 -0.4167 -0.1346
  332loPI   C3B 5311  10.871  16.748   7.804 -0.1012 -0.1253 -0.1457
  332loPI   C4B 5312  10.985  16.571   7.514 -0.2782 -0.0514  0.0677
  333loPI    C1 5313   0.030  11.785   9.853 -0.4163 -0.1523 -0.2379
  333loPI    C2 5314   0.088  11.398   9.939 -0.1573 -0.1000 -0.1685
  333loPI    C3 5315  -0.069  11.642  10.214  0.3123 -0.0147  0.0340
  333loPI   PO4 5316  -0.098  11.797   9.560 -0.1878 -0.1775 -0.0153
  333loPI   GL1 5317  -0.167  11.858   9.062 -0.2902 -0.3499 -0.2016
  333loPI   GL2 5318  -0.070  12.186   8.988 -0.1989 -0.1012  0.1351
  333loPI   C1A 5319  -0.337  11.537   8.721 -0.0037 -0.0771  0.2906
  333loPI   C2A 5320  -0.153  11.539   8.353 -0.3938  0.1666  0.0140
  333loPI   C3A 5321  -0.048  11.479   7.895 -0.2460  0.2593  0.0268
  333loPI   C4A 5322   0.004  11.347   7.455 -0.0957  0.1944 -0.0807
  333loPI   C5A 5323   0.163  11.557   7.124  0.0199 -0.3080  0.0056
  333loPI   C6A 5324   0.152  11.507   6.653  0.2518  0.1586 -0.0628
  333loPI   C1B 5325  -0.026  12.021   8.573 -0.1078  0.0273  0.0099
  333loPI   C2B 5326   0.059  11.987   8.183  0.0656 -0.0091  0.2491
  333loPI   C3B 5327   0.203  12.081   7.755 -0.0203  0.0912  0.0384
  333loPI   C4B 5328   0.327  11.993   7.320 -0.2003  0.1527  0.1154
  334loPI    C1 5329   6.641   5.917   9.889  0.0936  0.0563 -0.0743
  334loPI    C2 5330   6.306   5.768  10.049  0.1690 -0.0935 -0.0537
  334loPI    C3 5331   6.315   6.146   9.919 -0.0720 -0.1519 -0.2474
  334loPI   PO4 5332   6.653   5.811   9.675 -0.0505 -0.0956  0.1141
  334loPI   GL1 5333   6.523   6.011   9.277 -0.2729  0.1734  0.0354
  334loPI   GL2 5334   6.502   5.642   9.179  0.1292  0.1931 -0.1786
  334loPI   C1A 5335   6.693   6.209   8.924  0.0941 -0.1548 -0.2869
  334loPI   C2A 5336   6.373   6.113   8.719  0.0590 -0.1523  0.1913
  334loPI   C3A 5337   6.183   6.093   8.289 -0.1291  0.1442  0.3787
  334loPI   C4A 5338   6.187   6.120   7.819  0.0789 -0.2827  0.0312
  334loPI   C5A 5339   6.461   6.287   7.492  0.1015  0.0831 -0.2427
  334loPI   C6A 5340   6.771   6.354   7.216  0.0417  0.0302  0.0745
  334loPI   C1B 5341   6.688   5.681   8.777 -0.0957  0.0333 -0.0913
  334loPI   C2B 5342   6.819   5.611   8.338  0.0260  0.0092 -0.0816
  334loPI   C3B 5343   6.835   5.637   7.941  0.0507 -0.4980  0.0237
  334loPI   C4B 5344   6.643   5.476   7.606 -0.2477 -0.0641  0.1651
  335loPI    C1 5345   9.240   3.511   9.783 -0.0849 -0.3340 -0.1192
  335loPI    C2 5346   9.518   3.308   9.986  0.0345 -0.0625 -0.0060
  335loPI    C3 5347   9.497   3.706  10.019 -0.3482 -0.0760 -0.0389
  335loPI   PO4 5348   9.245   3.421   9.573 -0.1524 -0.2697 -0.0096
  335loPI   GL1 5349   9.394   3.374   9.122 -0.1133  0.1639  0.0952
  335loPI   GL2 5350   9.634   3.597   9.080  0.1638 -0.0340  0.0111
  335loPI   C1A 5351   9.512   3.169   8.726 -0.1789 -0.0417  0.2672
  335loPI   C2A 5352   9.544   2.962   8.320  0.0942 -0.0553 -0.0494
  335loPI   C3A 5353   9.457   2.911   7.851  0.0812  0.1322  0.1777
  335loPI   C4A 5354   9.492   2.708   7.431 -0.0536  0.0447  0.0517
  335loPI   C5A 5355   9.764   2.500   7.188 -0.1164 -0.0227  0.0826
  335loPI   C6A 5356   9.927   2.712   6.856  0.2446  0.0299  0.0674
  335loPI   C1B 5357   9.592   3.702   8.678 -0.1389 -0.3262 -0.4102
  335loPI   C2B 5358   9.743   3.483   8.376  0.0525  0.0598 -0.0914
  335loPI   C3B 5359   9.839   3.374   7.985 -0.0074  0.2385 -0.0421
  335loPI   C4B 5360   9.717   3.345   7.553  0.2604  0.3093 -0.0352
  336loPI    C1 5361   4.735   0.689  10.218  0.1380 -0.0307  0.0751
  336loPI    C2 5362   4.736   0.367  10.456  0.0856 -0.0411  0.0614
  336loPI    C3 5363   4.427   0.621  10.463  0.1694  0.0600  0.1405
  336loPI   PO4 5364   4.801   0.656   9.981  0.0174 -0.0961 -0.3940
  336loPI   GL1 5365   4.779   0.766   9.625  0.4489 -0.1409  0.1360
  336loPI   GL2 5366   4.784   0.408   9.525  0.3988 -0.2207  0.1069
  336loPI   C1A 5367   4.643   0.817   9.220 -0.0499  0.1032  0.0929
  336loPI   C2A 5368   4.736   0.853   8.731  0.3505 -0.2143  0.0743
  336loPI   C3A 5369   4.615   0.792   8.303 -0.0624  0.2278  0.0322
  336loPI   C4A 5370   4.480   0.769   7.805 -0.2498 -0.0095 -0.1407
  336loPI   C5A 5371   4.555   0.545   7.430  0.0699 -0.2262  0.3522
  336loPI   C6A 5372   4.764   0.228   7.267 -0.1893 -0.1895  0.1121
  336loPI   C1B 5373   4.808   0.352   9.144  0.1707 -0.4457  0.2136
  336loPI   C2B 5374   4.878   0.336   8.643 -0.0812  0.1082 -0.1701
  336loPI   C3B 5375   5.058   0.394   8.336 -0.1189 -0.0139 -0.1511
  336loPI   C4B 5376   5.442   0.356   8.089 -0.1991  0.0612  0.0022
  337loPI    C1 5377   1.294  17.245   9.847 -0.5199 -0.1098 -0.1155
  337loPI    C2 5378   1.399  17.144  10.220 -0.2301 -0.0224 -0.1703
  337loPI    C3 5379   1.319  16.859   9.951 -0.1728 -0.0910 -0.1153
  337loPI   PO4 5380   1.289  17.421   9.792 -0.0624  0.0266  0.0533
  337loPI   GL1 5381   1.239  17.650   9.447 -0.1066 -0.1482 -0.0873
  337loPI   GL2 5382   0.848  17.578   9.384 -0.0984  0.0520 -0.2071
  337loPI   C1A 5383   1.431  17.766   8.995  0.1041 -0.1744 -0.2251
  337loPI   C2A 5384   1.643  17.651   8.559  0.0217 -0.4133  0.0677
  337loPI   C3A 5385   1.851  17.430   8.305 -0.0568  0.3155  0.2528
  337loPI   C4A 5386   1.870  17.123   8.050 -0.2917 -0.0220 -0.3714
  337loPI   C5A 5387   2.198  16.846   7.838  0.1768 -0.1336  0.0175
  337loPI   C6A 5388   2.160  16.509   7.560 -0.5553  0.2206  0.1620
  337loPI   C1B 5389   0.988  17.578   8.989 -0.0142 -0.1239 -0.0447
  337loPI   C2B 5390   1.121  17.681   8.619 -0.1781  0.3784  0.2197
  337loPI   C3B 5391   1.265  17.488   8.290 -0.1609  0.0234 -0.1910
  337loPI   C4B 5392   1.250  16.979   8.382  0.3661  0.0673  0.4620
  338loPI    C1 5393   0.671  15.901   9.519 -0.0872 -0.0966  0.0292
  338loPI    C2 5394   0.982  16.085   9.690 -0.0302 -0.1204 -0.0484
  338loPI    C3 5395   0.654  16.004   9.905 -0.0130 -0.0263  0.0137
  338loPI   PO4 5396   0.775  15.926   9.242  0.2686  0.0327  0.0790
  338loPI   GL1 5397   0.871  16.127   8.944  0.3507 -0.0541  0.1966
  338loPI   GL2 5398   0.556  16.211   8.891 -0.0334 -0.1166 -0.1811
  338loPI   C1A 5399   0.882  16.205   8.483 -0.1648  0.3464 -0.0250
  338loPI   C2A 5400   0.569  15.973   8.164 -0.1161  0.1085 -0.1904
  338loPI   C3A 5401   0.164  15.796   8.015  0.0301 -0.1969  0.0463
  338loPI   C4A 5402   0.026  15.984   7.573 -0.3184 -0.0857  0.3777
  338loPI   C5A 5403  -0.152  15.964   7.162 -0.2728  0.1959  0.1406
  338loPI   C6A 5404  -0.208  15.794   6.856 -0.3504 -0.1860 -0.0343
  338loPI   C1B 5405   0.474  16.464   8.504  0.0715  0.0790  0.2351
  338loPI   C2B 5406   0.378  16.584   8.005  0.1578  0.2473  0.2272
  338loPI   C3B 5407   0.358  16.659   7.618  0.0757  0.2102 -0.2518
  338loPI   C4B 5408   0.427  16.876   7.215 -0.0682  0.1527  0.2228
  339loPI    C1 5409  16.671  13.762   9.720  0.0594 -0.1490 -0.2342
  339loPI    C2 5410  16.342  13.872   9.521  0.0176 -0.0059 -0.0879
  339loPI    C3 5411  16.359  13.916   9.918  0.1503 -0.1679 -0.0749
  339loPI   PO4 5412  16.836  13.867   9.546  0.1444 -0.3335  0.2377
  339loPI   GL1 5413  16.917  14.252   9.178  0.2267 -0.2125 -0.0861
  339loPI   GL2 5414  16.613  14.066   9.141  0.0103  0.1201  0.2005
  339loPI   C1A 5415  17.117  14.237   8.811 -0.1024 -0.3159  0.3409
  339loPI   C2A 5416  17.017  14.162   8.419  0.2649 -0.0013  0.2937
  339loPI   C3A 5417  17.190  14.192   7.989  0.3447 -0.3318  0.0379
  339loPI   C4A 5418  17.351  14.005   7.598 -0.2208  0.4691 -0.0200
  339loPI   C5A 5419  17.424  14.150   7.085  0.1996 -0.2554  0.0902
  339loPI   C6A 5420  17.613  14.354   6.700 -0.0349  0.0399  0.0748
  339loPI   C1B 5421  16.675  13.994   8.725  0.0751 -0.1872 -0.3561
  339loPI   C2B 5422  16.569  13.937   8.279 -0.2630 -0.4012 -0.0534
  339loPI   C3B 5423  16.726  13.946   7.854  0.1131 -0.0416  0.0832
  339loPI   C4B 5424  16.865  14.081   7.431 -0.2276 -0.1666 -0.3889
  340loPI    C1 5425   2.483   5.255   9.748  0.1006 -0.0992  0.2017
  340loPI    C2 5426   2.363   4.979  10.012 -0.0502 -0.0823  0.1520
  340loPI    C3 5427   2.130   5.295   9.933  0.0238 -0.0532  0.0476
  340loPI   PO4 5428   2.702   5.117   9.650  0.2866  0.1918 -0.1422
  340loPI   GL1 5429   2.855   4.970   9.335  0.0020  0.2928  0.2735
  340loPI   GL2 5430   2.607   4.779   9.260  0.3145 -0.2131 -0.0263
  340loPI   C1A 5431   3.043   4.836   8.919  0.1803 -0.2711  0.0154
  340loPI   C2A 5432   2.989   4.900   8.515 -0.0572 -0.0266 -0.0093
  340loPI   C3A 5433   2.729   4.896   8.186  0.1450  0.3259  0.1340
  340loPI   C4A 5434   2.750   4.965   7.679 -0.2012  0.0144 -0.4221
  340loPI   C5A 5435   2.725   4.705   7.449  0.0984 -0.2726 -0.0541
  340loPI   C6A 5436   2.818   4.463   7.110 -0.1001  0.0968 -0.0221
  340loPI   C1B 5437   2.561   5.085   8.835 -0.0296 -0.2363  0.2921
  340loPI   C2B 5438   2.433   5.182   8.417  0.1051  0.2217  0.0866
  340loPI   C3B 5439   2.195   5.129   8.175 -0.2933  0.0546 -0.1579
  340loPI   C4B 5440   1.900   5.335   8.048  0.3356  0.1485 -0.0577
  341loPI    C1 5441   9.994   7.371   9.624  0.3248  0.0575 -0.0979
  341loPI    C2 5442  10.051   7.610   9.939  0.1082 -0.1073  0.0694
  341loPI    C3 5443   9.798   7.301   9.965 -0.0560 -0.0133 -0.3243
  341loPI   PO4 5444  10.220   7.364   9.460 -0.0895 -0.1636  0.1894
  341loPI   GL1 5445  10.372   7.175   9.111 -0.4356 -0.1773  0.0553
  341loPI   GL2 5446  10.221   6.920   8.986 -0.2361 -0.0509 -0.0598
  341loPI   C1A 5447  10.651   7.029   8.734 -0.0052  0.0409 -0.2456
  341loPI   C2A 5448  10.638   7.025   8.411 -0.1408  0.1455  0.3058
  341loPI   C3A 5449  11.044   7.247   8.244  0.1586 -0.0948 -0.2827
  341loPI   C4A 5450  11.179   7.484   7.838  0.1550 -0.2475  0.0069
  341loPI   C5A 5451  11.538   7.552   7.565 -0.0202  0.0519 -0.0593
  341loPI   C6A 5452  11.897   7.547   7.389  0.0784 -0.1467 -0.0671
  341loPI   C1B 5453  10.101   7.026   8.654  0.0837 -0.1443  0.0604
  341loPI   C2B 5454   9.912   6.892   8.255 -0.1656 -0.1712  0.2726
  341loPI   C3B 5455   9.851   6.829   7.802  0.1330 -0.0729  0.2187
  341loPI   C4B 5456  10.108   6.434   7.633  0.0194 -0.2496 -0.1472
  342loPI    C1 5457  10.161  12.578   9.596 -0.1299 -0.0159 -0.1989
  342loPI    C2 5458  10.074  12.242   9.397 -0.1143 -0.1731  0.0566
  342loPI    C3 5459  10.352  12.239   9.685 -0.1386  0.0511  0.0842
  342loPI   PO4 5460  10.154  12.745   9.362 -0.0376  0.2596  0.0338
  342loPI   GL1 5461  10.007  12.912   8.966  0.0996  0.2257 -0.0259
  342loPI   GL2 5462  10.114  13.153   8.903  0.0694 -0.1256 -0.4359
  342loPI   C1A 5463   9.983  12.497   8.665 -0.1740  0.0583 -0.0719
  342loPI   C2A 5464   9.905  12.416   8.275 -0.2503  0.0953  0.4260
  342loPI   C3A 5465   9.891  12.732   7.981  0.1528 -0.0224  0.1740
  342loPI   C4A 5466  10.006  12.674   7.610 -0.0737  0.2127 -0.1417
  342loPI   C5A 5467  10.306  12.674   7.252 -0.0537  0.3284 -0.3993
  342loPI   C6A 5468  10.462  12.752   6.879  0.2780  0.0819 -0.1101
  342loPI   C1B 5469  10.043  13.048   8.418 -0.0880 -0.0242 -0.1102
  342loPI   C2B 5470  10.048  13.247   8.080 -0.0516 -0.3819  0.3261
  342loPI   C3B 5471   9.846  13.474   7.843  0.1764  0.1075 -0.3375
  342loPI   C4B 5472   9.751  13.439   7.405 -0.3318  0.3095 -0.4581
  343loPI    C1 5473   4.265   9.181   9.701 -0.1117  0.0556 -0.0451
  343loPI    C2 5474   4.049   9.437   9.482 -0.2040  0.0641  0.0555
  343loPI    C3 5475   3.869   9.136   9.674 -0.1731  0.2652  0.4107
  343loPI   PO4 5476   4.478   9.073   9.503  0.3473 -0.1899 -0.0824
  343loPI   GL1 5477   4.424   8.901   9.095 -0.1402  0.2196  0.0214
  343loPI   GL2 5478   4.328   8.546   8.986  0.0710 -0.2942 -0.0305
  343loPI   C1A 5479   4.465   8.952   8.562  0.3542  0.0229  0.3876
  343loPI   C2A 5480   4.549   9.030   8.071 -0.0935  0.0044  0.1178
  343loPI   C3A 5481   4.564   8.908   7.644  0.1211 -0.2363 -0.1418
  343loPI   C4A 5482   4.480   8.646   7.250  0.1955 -0.1618  0.0134
  343loPI   C5A 5483   4.431   8.296   6.939  0.2533 -0.1878 -0.0195
  343loPI   C6A 5484   4.127   7.993   7.214 -0.1456  0.1422  0.0839
  343loPI   C1B 5485   4.343   8.445   8.573 -0.1205  0.2824 -0.0480
  343loPI   C2B 5486   4.424   8.558   8.091  0.1574  0.0404  0.0963
  343loPI   C3B 5487   4.630   8.297   7.855  0.2154  0.0497 -0.0578
  343loPI   C4B 5488   4.629   8.213   7.447 -0.0933  0.1437 -0.3377
  344loPI    C1 5489   1.855  18.732  10.070  0.0706 -0.0192  0.1660
  344loPI    C2 5490   1.862  19.122  10.157  0.3246 -0.0071  0.1009
  344loPI    C3 5491   2.037  18.859  10.402 -0.1849 -0.1268  0.3507
  344loPI   PO4 5492   1.625  18.726   9.969  0.2179 -0.0187 -0.2879
  344loPI   GL1 5493   1.518  18.946   9.560  0.1236 -0.0017 -0.2843
  344loPI   GL2 5494   1.876  19.077   9.667  0.2733  0.2579  0.1070
  344loPI   C1A 5495   1.521  18.877   9.151  0.1722 -0.0159  0.0008
  344loPI   C2A 5496   1.609  19.124   8.806 -0.3057  0.1494 -0.3826
  344loPI   C3A 5497   1.791  19.001   8.451  0.1807 -0.1198 -0.1762
  344loPI   C4A 5498   1.878  18.929   8.054  0.0491 -0.0986  0.0386
  344loPI   C5A 5499   1.770  19.164   7.656 -0.3533  0.1270 -0.2000
  344loPI   C6A 5500   1.708  19.441   7.258 -0.0869  0.0536  0.3497
  344loPI   C1B 5501   2.010  19.159   9.174  0.1167 -0.0455 -0.0814
  344loPI   C2B 5502   2.155  19.126   8.742  0.0104 -0.0645  0.2606
  344loPI   C3B 5503   2.231  19.136   8.281  0.1789 -0.0864 -0.4685
  344loPI   C4B 5504   2.268  19.114   7.783 -0.0094  0.0230  0.1345
  345loPI    C1 5505  18.439  16.110   9.458 -0.0265  0.0971 -0.0092
  345loPI    C2 5506  18.795  16.273   9.541 -0.0852  0.2858 -0.1202
  345loPI    C3 5507  18.510  16.261   9.821 -0.0054  0.1701 -0.0432
  345loPI   PO4 5508  18.327  16.211   9.262 -0.0810  0.1626  0.0594
  345loPI   GL1 5509  18.350  16.319   8.823  0.2080  0.0062 -0.0402
  345loPI   GL2 5510  17.954  16.375   8.820 -0.3381 -0.0675 -0.1140
  345loPI   C1A 5511  18.321  16.383   8.410  0.1563 -0.2196 -0.1166
  345loPI   C2A 5512  18.077  16.426   7.984 -0.1739 -0.5744  0.1826
  345loPI   C3A 5513  17.947  16.290   7.504  0.0294 -0.0830  0.1763
  345loPI   C4A 5514  17.995  15.936   7.264 -0.0918  0.1874  0.3093
  345loPI   C5A 5515  17.913  15.587   7.303 -0.1609 -0.1574  0.0445
  345loPI   C6A 5516  17.816  15.443   6.952 -0.1301 -0.1081  0.0768
  345loPI   C1B 5517  17.812  16.666   8.477  0.0154 -0.1099  0.2108
  345loPI   C2B 5518  17.503  16.683   8.073 -0.0877 -0.0026 -0.0870
  345loPI   C3B 5519  17.113  16.719   7.916 -0.4253  0.0808 -0.4517
  345loPI   C4B 5520  16.880  16.333   8.035 -0.2957 -0.2442 -0.0342
  346loPI    C1 5521   6.550  13.934   9.684 -0.1886 -0.0082  0.2588
  346loPI    C2 5522   6.248  14.040   9.443  0.0148  0.2178  0.0983
  346loPI    C3 5523   6.174  13.929   9.821 -0.2700  0.2424  0.0516
  346loPI   PO4 5524   6.745  13.992   9.453 -0.0600  0.1787  0.1446
  346loPI   GL1 5525   6.826  13.948   9.045 -0.0947  0.2152 -0.0994
  346loPI   GL2 5526   7.115  13.966   9.050 -0.1717 -0.2027 -0.1409
  346loPI   C1A 5527   6.445  14.030   8.689 -0.1203 -0.1334  0.1422
  346loPI   C2A 5528   6.476  13.924   8.174 -0.2535 -0.1916 -0.0631
  346loPI   C3A 5529   6.495  13.750   7.856  0.0314  0.0096 -0.0660
  346loPI   C4A 5530   6.333  13.545   7.606  0.1292  0.1065 -0.0383
  346loPI   C5A 5531   6.513  13.674   7.243 -0.1259  0.1333 -0.0825
  346loPI   C6A 5532   6.608  13.926   6.953 -0.0031 -0.2260 -0.1239
  346loPI   C1B 5533   7.407  14.085   8.751 -0.0539  0.0518  0.0633
  346loPI   C2B 5534   7.475  14.075   8.333  0.0618 -0.2341 -0.2445
  346loPI   C3B 5535   7.403  14.123   7.943 -0.1658  0.0987  0.0431
  346loPI   C4B 5536   7.354  13.772   7.652  0.1290  0.2333 -0.1422
  347loPI    C1 5537  10.467   5.102   9.815 -0.1184  0.1389  0.2041
  347loPI    C2 5538  10.121   4.930   9.712  0.0190 -0.0993  0.1328
  347loPI    C3 5539  10.220   4.964  10.098 -0.0194 -0.1591  0.1482
  347loPI   PO4 5540  10.464   5.261   9.618  0.4478 -0.1848  0.3982
  347loPI   GL1 5541  10.290   5.128   9.232  0.1197 -0.0344  0.1095
  347loPI   GL2 5542   9.965   5.179   9.228  0.0173 -0.2078  0.4025
  347loPI   C1A 5543  10.281   5.176   8.713  0.1212  0.1516 -0.0347
  347loPI   C2A 5544  10.397   5.201   8.311 -0.0828  0.3610 -0.0982
  347loPI   C3A 5545  10.165   5.166   7.927 -0.0250 -0.0861 -0.0847
  347loPI   C4A 5546   9.943   4.712   7.693 -0.0504 -0.1267 -0.0087
  347loPI   C5A 5547   9.819   4.226   7.469 -0.0909 -0.1220 -0.1029
  347loPI   C6A 5548   9.817   3.796   7.334  0.2181 -0.4210 -0.0377
  347loPI   C1B 5549   9.823   5.104   8.760 -0.2073  0.0072 -0.0156
  347loPI   C2B 5550   9.812   5.028   8.321  0.0938 -0.1121  0.2062
  347loPI   C3B 5551   9.626   4.970   7.948  0.0361 -0.0903  0.0453
  347loPI   C4B 5552   9.513   5.075   7.533 -0.0595  0.1378  0.2292
  348loPI    C1 5553   9.899  17.364   9.840  0.0541  0.0750  0.0676
  348loPI    C2 5554   9.743  17.447  10.199 -0.1911  0.0618 -0.0341
  348loPI    C3 5555   9.894  17.084  10.126  0.0115  0.1161  0.1075
  348loPI   PO4 5556  10.011  17.590   9.710  0.1472 -0.1507 -0.2868
  348loPI   GL1 5557   9.922  17.641   9.403  0.3601  0.0803 -0.0856
  348loPI   GL2 5558   9.602  17.682   9.318 -0.2701  0.0984  0.0536
  348loPI   C1A 5559  10.019  17.431   9.066  0.1253 -0.0033  0.2414
  348loPI   C2A 5560   9.962  17.457   8.639 -0.0978  0.0106 -0.1861
  348loPI   C3A 5561   9.950  17.279   8.259 -0.1782  0.1643  0.3426
  348loPI   C4A 5562   9.913  17.318   7.822  0.0746  0.2797 -0.0461
  348loPI   C5A 5563   9.910  17.570   7.437 -0.0101 -0.3184  0.1812
  348loPI   C6A 5564  10.201  17.849   7.348 -0.1283 -0.0826  0.0305
  348loPI   C1B 5565   9.486  17.943   9.135  0.0370  0.3050  0.1788
  348loPI   C2B 5566   9.624  18.152   8.775 -0.1928  0.0053 -0.0880
  348loPI   C3B 5567   9.660  18.161   8.316 -0.1780 -0.3873 -0.3525
  348loPI   C4B 5568   9.564  18.161   7.927  0.0057 -0.3670  0.1378
  349loPI    C1 5569   3.849  18.127  10.051 -0.1063 -0.0531  0.0413
  349loPI    C2 5570   3.820  18.471  10.252 -0.1577 -0.0586  0.0432
  349loPI    C3 5571   3.694  18.130  10.419 -0.0565 -0.0867  0.0625
  349loPI   PO4 5572   4.000  18.234   9.870  0.1435  0.2756 -0.1470
  349loPI   GL1 5573   3.819  18.257   9.480 -0.2364 -0.2637 -0.2385
  349loPI   GL2 5574   3.944  18.570   9.424  0.1911 -0.4064  0.2855
  349loPI   C1A 5575   3.667  18.285   9.092 -0.2873  0.0569  0.0709
  349loPI   C2A 5576   3.801  18.379   8.609  0.1065  0.0605  0.1145
  349loPI   C3A 5577   3.734  18.306   8.128  0.1958  0.2258 -0.0024
  349loPI   C4A 5578   3.723  18.290   7.719 -0.0427  0.2702 -0.3090
  349loPI   C5A 5579   3.753  18.180   7.238 -0.1577 -0.2494  0.0613
  349loPI   C6A 5580   3.902  18.321   6.864 -0.1633 -0.0706  0.5341
  349loPI   C1B 5581   3.960  18.859   9.075 -0.0343 -0.0150  0.0777
  349loPI   C2B 5582   4.010  18.868   8.742  0.0600  0.0768  0.1713
  349loPI   C3B 5583   4.148  18.852   8.306 -0.0595  0.0286 -0.0565
  349loPI   C4B 5584   3.993  18.707   7.953 -0.1457 -0.2461  0.0838
  350loPI    C1 5585   2.057  17.706  10.168  0.0311 -0.0658  0.4022
  350loPI    C2 5586   2.045  17.318  10.070  0.1875 -0.0045  0.1308
  350loPI    C3 5587   1.711  17.537  10.061  0.1792 -0.0257 -0.1724
  350loPI   PO4 5588   2.146  17.836  10.027 -0.1135  0.1332  0.0545
  350loPI   GL1 5589   2.090  18.084   9.692 -0.1980 -0.1099 -0.0259
  350loPI   GL2 5590   1.953  18.429   9.672 -0.1021 -0.2313  0.0899
  350loPI   C1A 5591   2.092  18.126   9.263 -0.2282  0.1292 -0.0666
  350loPI   C2A 5592   2.305  18.329   8.904  0.2183  0.0943 -0.0962
  350loPI   C3A 5593   2.282  18.258   8.444 -0.3016  0.2272 -0.0469
  350loPI   C4A 5594   2.087  18.186   8.015 -0.2624  0.0582  0.1677
  350loPI   C5A 5595   2.069  17.871   7.673 -0.0403  0.0786  0.0921
  350loPI   C6A 5596   1.840  17.615   7.388 -0.0462 -0.1366 -0.0484
  350loPI   C1B 5597   1.951  18.591   9.293  0.0394 -0.2293 -0.0525
  350loPI   C2B 5598   1.978  18.646   8.759  0.1612 -0.0797  0.0223
  350loPI   C3B 5599   1.799  18.466   8.382 -0.0885  0.0827  0.0318
  350loPI   C4B 5600   1.704  18.449   7.962 -0.1375  0.2363  0.1959
  351loPI    C1 5601  13.879   4.952   9.820  0.0168 -0.0707  0.1561
  351loPI    C2 5602  14.222   5.082   9.661 -0.1834  0.0664 -0.1759
  351loPI    C3 5603  14.217   4.932  10.031  0.2630 -0.0967 -0.2301
  351loPI   PO4 5604  13.763   4.827   9.563 -0.2288  0.1170  0.1375
  351loPI   GL1 5605  13.629   4.837   9.207 -0.1406  0.0850  0.0941
  351loPI   GL2 5606  13.626   4.637   8.972 -0.0664  0.0709  0.0793
  351loPI   C1A 5607  13.617   5.105   8.838  0.1484 -0.0050  0.1214
  351loPI   C2A 5608  13.778   5.163   8.448 -0.0969 -0.2110  0.1044
  351loPI   C3A 5609  13.929   5.505   8.184  0.2647  0.1599 -0.5148
  351loPI   C4A 5610  14.121   5.505   7.872 -0.1576 -0.1833 -0.0943
  351loPI   C5A 5611  14.360   5.711   7.591 -0.1258 -0.0660 -0.0649
  351loPI   C6A 5612  14.460   5.909   7.264 -0.1369 -0.0078  0.0179
  351loPI   C1B 5613  13.580   4.703   8.464  0.1175  0.1343  0.0417
  351loPI   C2B 5614  13.982   4.636   8.090  0.3789 -0.0344  0.2633
  351loPI   C3B 5615  14.424   4.539   7.928  0.1220  0.0312 -0.2435
  351loPI   C4B 5616  14.757   4.617   7.669 -0.3460  0.0502 -0.1468
  352loPI    C1 5617   9.486   5.660   9.728  0.0077  0.1598  0.1043
  352loPI    C2 5618   9.610   5.974   9.943 -0.0241  0.0564  0.2760
  352loPI    C3 5619   9.514   5.632  10.126 -0.1324 -0.0070  0.1035
  352loPI   PO4 5620   9.602   5.619   9.504 -0.2122  0.1472 -0.2450
  352loPI   GL1 5621   9.637   5.494   9.142 -0.2922 -0.1746 -0.0793
  352loPI   GL2 5622   9.475   5.766   9.047  0.3258 -0.1757 -0.1578
  352loPI   C1A 5623   9.816   5.591   8.755  0.0578 -0.0387  0.0967
  352loPI   C2A 5624  10.120   5.628   8.415  0.3761 -0.3686  0.1221
  352loPI   C3A 5625  10.231   5.679   8.016  0.3187  0.2281  0.0454
  352loPI   C4A 5626  10.349   5.535   7.611 -0.2247  0.0285  0.1460
  352loPI   C5A 5627  10.620   5.723   7.252  0.1326 -0.0848  0.2081
  352loPI   C6A 5628  10.407   6.213   7.281 -0.0805  0.0082  0.1101
  352loPI   C1B 5629   9.491   5.942   8.653  0.0866  0.3042  0.1340
  352loPI   C2B 5630   9.318   6.202   8.369  0.1928  0.0681 -0.0631
  352loPI   C3B 5631   9.161   6.315   8.003  0.1148  0.0244  0.0483
  352loPI   C4B 5632   9.108   6.050   7.682 -0.3000  0.2055  0.1703
  353loPI    C1 5633  10.777  16.180   9.611 -0.1706  0.0116  0.1391
  353loPI    C2 5634  10.712  15.932   9.918  0.1234 -0.0809  0.1293
  353loPI    C3 5635  10.885  16.287   9.981 -0.0390  0.0036  0.1036
  353loPI   PO4 5636  10.932  16.060   9.437  0.0678 -0.1470  0.1416
  353loPI   GL1 5637  10.931  16.350   9.164 -0.1895 -0.1819  0.2633
  353loPI   GL2 5638  10.547  16.256   9.164 -0.0642 -0.0652  0.0208
  353loPI   C1A 5639  11.107  16.388   8.825 -0.0987  0.0205  0.1059
  353loPI   C2A 5640  11.278  16.452   8.374  0.0799  0.0913 -0.0097
  353loPI   C3A 5641  11.293  16.599   7.986  0.0939 -0.0347  0.1294
  353loPI   C4A 5642  11.510  16.557   7.642 -0.0273  0.0112  0.1167
  353loPI   C5A 5643  11.832  16.669   7.348 -0.1290  0.0516 -0.2817
  353loPI   C6A 5644  11.864  16.678   6.948 -0.1222 -0.0151 -0.3279
  353loPI   C1B 5645  10.618  16.117   8.701 -0.3432  0.1543 -0.0461
  353loPI   C2B 5646  10.576  16.005   8.330  0.0830 -0.1562  0.2422
  353loPI   C3B 5647  10.546  15.968   7.996  0.0870 -0.1555 -0.0616
  353loPI   C4B 5648  10.730  15.667   7.776 -0.1761  0.0794 -0.0690
  354loPI    C1 5649   3.499   2.276  10.047 -0.0559 -0.0885 -0.1279
  354loPI    C2 5650   3.209   2.383  10.301  0.0120  0.2986 -0.2086
  354loPI    C3 5651   3.573   2.294  10.440 -0.1292 -0.1516 -0.1108
  354loPI   PO4 5652   3.454   2.509   9.735 -0.3235  0.3472 -0.0855
  354loPI   GL1 5653   3.558   2.358   9.432 -0.0209 -0.2004 -0.1863
  354loPI   GL2 5654   3.378   2.018   9.348 -0.0897 -0.2012  0.0472
  354loPI   C1A 5655   3.622   2.359   9.044  0.1319  0.4679 -0.1181
  354loPI   C2A 5656   3.594   2.545   8.582 -0.4820  0.0763 -0.2928
  354loPI   C3A 5657   3.787   2.847   8.323 -0.0999 -0.1727 -0.3137
  354loPI   C4A 5658   3.929   2.861   7.914 -0.0173  0.0845  0.1065
  354loPI   C5A 5659   4.082   3.068   7.687  0.0163 -0.1108 -0.0669
  354loPI   C6A 5660   4.067   3.142   7.295 -0.1863  0.1847 -0.0051
  354loPI   C1B 5661   3.166   2.190   8.978 -0.1626  0.0175 -0.4915
  354loPI   C2B 5662   3.315   2.148   8.537  0.4071  0.0958 -0.1807
  354loPI   C3B 5663   3.304   2.110   8.144 -0.1990 -0.0536  0.0498
  354loPI   C4B 5664   3.580   2.086   7.782 -0.3755 -0.0725 -0.0434
  355loPI    C1 5665  17.015   7.313   9.849 -0.0222 -0.1971 -0.0054
  355loPI    C2 5666  17.212   7.569   9.613 -0.1739 -0.1458 -0.0785
  355loPI    C3 5667  17.015   7.704   9.933  0.0036 -0.2112  0.0604
  355loPI   PO4 5668  16.967   7.037   9.664 -0.1417  0.1838 -0.1261
  355loPI   GL1 5669  17.184   7.126   9.288  0.0698 -0.1964 -0.0098
  355loPI   GL2 5670  17.064   6.798   9.228  0.1210 -0.2555 -0.0187
  355loPI   C1A 5671  17.074   7.191   8.812 -0.2767  0.0885 -0.3481
  355loPI   C2A 5672  17.040   7.025   8.460  0.1985 -0.0243  0.1839
  355loPI   C3A 5673  17.210   6.856   8.064  0.0802  0.1023 -0.2767
  355loPI   C4A 5674  17.364   6.595   7.761  0.4845  0.1606  0.1848
  355loPI   C5A 5675  17.431   6.683   7.360 -0.1285 -0.1434 -0.0613
  355loPI   C6A 5676  17.844   6.837   7.162  0.0747  0.5024  0.1080
  355loPI   C1B 5677  17.217   6.698   8.868 -0.0278 -0.2354  0.0351
  355loPI   C2B 5678  17.432   6.764   8.535  0.1574  0.0341 -0.0053
  355loPI   C3B 5679  17.730   6.787   8.216  0.3075 -0.2259 -0.1288
  355loPI   C4B 5680  17.786   6.863   7.743  0.0640  0.0826 -0.1379
  356loPI    C1 5681  13.941   4.308   9.611  0.1727 -0.2522  0.2822
  356loPI    C2 5682  14.082   4.488   9.939 -0.1602  0.2726  0.1490
  356loPI    C3 5683  13.687   4.453   9.884 -0.1044 -0.0242 -0.0866
  356loPI   PO4 5684  14.053   4.464   9.420 -0.2525 -0.0099 -0.1701
  356loPI   GL1 5685  14.110   4.539   8.973 -0.0175 -0.1608  0.1696
  356loPI   GL2 5686  14.207   4.898   9.197  0.1220  0.2610  0.1901
  356loPI   C1A 5687  14.536   4.693   8.796 -0.0969 -0.4892 -0.0000
  356loPI   C2A 5688  14.853   4.858   8.568  0.0445  0.2575  0.1903
  356loPI   C3A 5689  15.226   4.657   8.550 -0.0883  0.2735 -0.1861
  356loPI   C4A 5690  15.616   4.538   8.466  0.1408  0.1341 -0.2933
  356loPI   C5A 5691  15.925   4.397   8.579  0.2408  0.3146 -0.1434
  356loPI   C6A 5692  16.183   4.127   8.471  0.1734  0.0049 -0.2550
  356loPI   C1B 5693  14.077   4.772   8.598 -0.2869  0.1517 -0.0698
  356loPI   C2B 5694  14.415   4.390   8.433  0.1197  0.2741  0.3009
  356loPI   C3B 5695  14.840   4.457   8.249  0.0686 -0.0114 -0.1300
  356loPI   C4B 5696  15.181   4.708   8.077 -0.0134  0.1821  0.1284
  357loPI    C1 5697   3.144  17.243   9.289 -0.0122 -0.0018  0.0746
  357loPI    C2 5698   3.407  17.168   9.580 -0.1277 -0.1513  0.1419
  357loPI    C3 5699   3.234  17.528   9.555  0.2132  0.0069 -0.0090
  357loPI   PO4 5700   3.059  16.978   9.283 -0.0587 -0.0115  0.0925
  357loPI   GL1 5701   2.809  16.827   9.002  0.0101  0.2979  0.0876
  357loPI   GL2 5702   2.629  16.706   9.273 -0.1048 -0.1305 -0.0314
  357loPI   C1A 5703   2.452  17.104   8.726 -0.0369  0.1104  0.2822
  357loPI   C2A 5704   2.321  17.160   8.264 -0.2952 -0.1825 -0.1752
  357loPI   C3A 5705   2.245  17.379   7.963  0.1466 -0.0060  0.2278
  357loPI   C4A 5706   2.153  17.284   7.541  0.2077 -0.4542 -0.2254
  357loPI   C5A 5707   2.290  16.906   7.300  0.6943 -0.0721  0.3558
  357loPI   C6A 5708   2.497  16.533   7.116 -0.3013 -0.2461  0.0091
  357loPI   C1B 5709   2.370  17.109   9.178  0.0173 -0.2228  0.5947
  357loPI   C2B 5710   2.077  17.350   9.104  0.0760  0.1605 -0.0149
  357loPI   C3B 5711   1.894  17.704   9.084  0.2730  0.1891  0.1468
  357loPI   C4B 5712   1.863  18.067   8.805  0.0932  0.0062  0.2653
  358loPI    C1 5713  15.082  13.578   9.603 -0.2798 -0.1370 -0.1038
  358loPI    C2 5714  15.398  13.664   9.373 -0.0578 -0.1377  0.1941
  358loPI    C3 5715  15.452  13.489   9.729 -0.4024 -0.2152  0.2119
  358loPI   PO4 5716  14.927  13.746   9.493 -0.0815 -0.3402  0.2509
  358loPI   GL1 5717  14.792  13.881   9.071 -0.1358  0.2850  0.5823
  358loPI   GL2 5718  14.688  14.131   8.839  0.2477 -0.1952 -0.0005
  358loPI   C1A 5719  14.720  13.622   8.731 -0.1164  0.1636 -0.1121
  358loPI   C2A 5720  14.721  13.387   8.341 -0.2168  0.2406 -0.1985
  358loPI   C3A 5721  14.646  13.329   7.870 -0.0988  0.1902 -0.2188
  358loPI   C4A 5722  14.694  13.504   7.349  0.1541 -0.2690  0.0470
  358loPI   C5A 5723  14.661  13.624   6.970  0.1709 -0.1552  0.0034
  358loPI   C6A 5724  14.415  13.753   6.774  0.0507 -0.3250 -0.0359
  358loPI   C1B 5725  14.635  14.061   8.371 -0.5535  0.2215  0.1428
  358loPI   C2B 5726  14.632  13.974   7.897  0.3252 -0.1630 -0.0814
  358loPI   C3B 5727  14.595  14.003   7.476 -0.1626  0.1725  0.2578
  358loPI   C4B 5728  14.753  14.177   7.037 -0.2184 -0.0114 -0.1577
  359loPI    C1 5729  12.912  10.542   9.951 -0.0321  0.2393 -0.1444
  359loPI    C2 5730  12.621  10.595  10.221  0.0552 -0.0361  0.0078
  359loPI    C3 5731  12.885  10.888  10.150 -0.2944  0.2409 -0.1796
  359loPI   PO4 5732  12.749  10.500   9.713 -0.2828  0.2642 -0.1562
  359loPI   GL1 5733  12.825  10.627   9.272 -0.0709 -0.2092  0.0980
  359loPI   GL2 5734  12.608  10.613   9.246 -0.2107  0.3212  0.1674
  359loPI   C1A 5735  12.905  10.545   8.813 -0.2800 -0.1082  0.0867
  359loPI   C2A 5736  12.917  10.712   8.428 -0.0961  0.0389 -0.2198
  359loPI   C3A 5737  12.703  10.864   7.997 -0.0205 -0.3065 -0.1396
  359loPI   C4A 5738  12.586  11.227   7.771 -0.3100  0.0950  0.0219
  359loPI   C5A 5739  12.545  11.576   7.440 -0.0702 -0.0640  0.2531
  359loPI   C6A 5740  12.558  11.854   7.099  0.1835 -0.0786  0.0797
  359loPI   C1B 5741  12.381  10.644   8.842 -0.2245  0.0862 -0.0133
  359loPI   C2B 5742  12.399  10.615   8.493 -0.0066 -0.4158 -0.0363
  359loPI   C3B 5743  12.269  10.648   8.110 -0.2307 -0.1556  0.0694
  359loPI   C4B 5744  12.106  10.751   7.762 -0.0581  0.1975 -0.3822
  360loPI    C1 5745   7.037  19.388  10.046  0.0368  0.1169 -0.0899
  360loPI    C2 5746   6.647  19.405  10.133  0.0457 -0.0151 -0.0211
  360loPI    C3 5747   6.842  19.056  10.154  0.1763  0.0576 -0.0166
  360loPI   PO4 5748   7.111  19.479   9.824  0.2823  0.1413  0.0952
  360loPI   GL1 5749   7.174  19.266   9.454 -0.1130  0.1069  0.1038
  360loPI   GL2 5750   7.451  19.014   9.416 -0.4515  0.0122 -0.1344
  360loPI   C1A 5751   6.805  19.155   9.219 -0.1267 -0.2607 -0.2658
  360loPI   C2A 5752   6.816  19.106   8.776 -0.0907  0.0985 -0.2437
  360loPI   C3A 5753   6.916  19.123   8.326  0.0106 -0.3339 -0.0736
  360loPI   C4A 5754   6.620  18.991   8.018  0.1030  0.0523 -0.0693
  360loPI   C5A 5755   6.752  18.800   7.647 -0.0720  0.1773  0.0066
  360loPI   C6A 5756   6.709  18.592   7.289  0.2583 -0.0468  0.2152
  360loPI   C1B 5757   7.607  19.195   9.089  0.0740 -0.1969  0.2013
  360loPI   C2B 5758   7.402  18.937   8.747 -0.0240 -0.2220 -0.2371
  360loPI   C3B 5759   7.377  18.729   8.320 -0.0906 -0.2600  0.0239
  360loPI   C4B 5760   7.248  18.744   7.899 -0.2148  0.3584  0.0161
  361loPI    C1 5761  16.723   4.643  10.126  0.1032  0.0830 -0.0448
  361loPI    C2 5762  16.421   4.382  10.162  0.1164  0.0921  0.1422
  361loPI    C3 5763  16.695   4.413  10.452  0.2855  0.1006 -0.0155
  361loPI   PO4 5764  16.845   4.578   9.902  0.0371 -0.1247 -0.1370
  361loPI   GL1 5765  16.818   4.652   9.525 -0.0417 -0.0105 -0.2486
  361loPI   GL2 5766  17.213   4.716   9.512 -0.0388 -0.1839  0.0509
  361loPI   C1A 5767  16.719   4.517   9.106  0.1206 -0.2232 -0.2832
  361loPI   C2A 5768  16.531   4.332   8.809  0.2856 -0.0289 -0.1266
  361loPI   C3A 5769  16.458   4.517   8.340 -0.0361  0.1939  0.1421
  361loPI   C4A 5770  16.622   4.281   7.991 -0.2314  0.0988  0.3176
  361loPI   C5A 5771  17.017   4.076   7.882 -0.3417  0.0628 -0.2685
  361loPI   C6A 5772  17.378   3.938   7.619  0.0567  0.3389 -0.0130
  361loPI   C1B 5773  17.368   4.750   9.038  0.0810 -0.2504  0.1683
  361loPI   C2B 5774  17.486   4.706   8.620  0.0599 -0.1994 -0.0191
  361loPI   C3B 5775  17.524   4.533   8.200  0.3229 -0.0138 -0.2199
  361loPI   C4B 5776  17.425   4.236   8.133  0.1811 -0.1379  0.1456
  362loPI    C1 5777  13.206   3.052   9.722  0.0610  0.0689 -0.0070
  362loPI    C2 5778  13.492   2.814   9.871  0.0144  0.1289  0.1817
  362loPI    C3 5779  13.177   2.912  10.096 -0.3694 -0.2741 -0.1602
  362loPI   PO4 5780  13.205   2.917   9.381  0.0154  0.2058  0.2132
  362loPI   GL1 5781  13.054   3.139   9.085  0.2987  0.0995 -0.0322
  362loPI   GL2 5782  13.011   2.919   8.834 -0.1837 -0.0827 -0.1896
  362loPI   C1A 5783  12.994   3.598   8.861  0.2435 -0.2994  0.0342
  362loPI   C2A 5784  13.236   3.870   8.629  0.1398  0.0405 -0.5537
  362loPI   C3A 5785  13.241   4.155   8.330 -0.1012 -0.0745  0.1291
  362loPI   C4A 5786  13.471   4.421   7.967 -0.2592  0.3301 -0.2408
  362loPI   C5A 5787  13.675   4.618   7.647 -0.1868  0.1210 -0.0329
  362loPI   C6A 5788  13.796   5.073   7.861 -0.1314 -0.2662 -0.3557
  362loPI   C1B 5789  13.153   2.964   8.504  0.0536  0.1017  0.0301
  362loPI   C2B 5790  13.165   2.889   8.094  0.0387 -0.1185 -0.4705
  362loPI   C3B 5791  13.331   2.974   7.730 -0.0065 -0.2684  0.3592
  362loPI   C4B 5792  13.804   3.048   7.375 -0.1763  0.0093 -0.2973
  363loPI    C1 5793   9.092   9.795  10.040  0.2814 -0.1049 -0.1673
  363loPI    C2 5794   8.772   9.561  10.091  0.2568 -0.0550 -0.0916
  363loPI    C3 5795   8.750   9.951  10.177  0.2770 -0.0109 -0.2839
  363loPI   PO4 5796   9.164   9.790   9.804 -0.0580  0.0619 -0.3496
  363loPI   GL1 5797   9.039   9.579   9.400 -0.0652 -0.0153 -0.3502
  363loPI   GL2 5798   9.217   9.299   9.340  0.0145  0.0124 -0.1602
  363loPI   C1A 5799   8.839   9.757   9.003  0.3149 -0.2040  0.1383
  363loPI   C2A 5800   8.944   9.774   8.450  0.1469  0.0651 -0.0427
  363loPI   C3A 5801   8.675   9.963   8.024 -0.0333  0.1189 -0.1225
  363loPI   C4A 5802   8.621  10.074   7.528  0.0017  0.0955  0.1136
  363loPI   C5A 5803   8.535   9.698   7.271 -0.4349  0.0534  0.1386
  363loPI   C6A 5804   8.244   9.277   7.198 -0.0494  0.0463 -0.3212
  363loPI   C1B 5805   9.069   9.269   8.909  0.0663 -0.0288  0.2301
  363loPI   C2B 5806   9.066   9.217   8.433  0.2366 -0.3502  0.0418
  363loPI   C3B 5807   9.103   9.269   8.040 -0.1006  0.1705  0.2351
  363loPI   C4B 5808   9.140   9.641   7.892  0.1537 -0.3505  0.2358
  364loPI    C1 5809  16.907   9.328   9.583 -0.5783 -0.0747 -0.0312
  364loPI    C2 5810  17.033   8.971   9.453 -0.0668  0.1580 -0.1976
  364loPI    C3 5811  17.120   9.090   9.824 -0.0339  0.2052 -0.2204
  364loPI   PO4 5812  16.810   9.426   9.327 -0.0402 -0.1286 -0.0217
  364loPI   GL1 5813  16.698   9.620   9.017 -0.2922  0.1412  0.1030
  364loPI   GL2 5814  16.676   9.917   9.075  0.3168 -0.1323 -0.0026
  364loPI   C1A 5815  16.470   9.586   8.558  0.3504  0.2405 -0.3090
  364loPI   C2A 5816  16.231   9.455   8.199 -0.1129 -0.1773 -0.0068
  364loPI   C3A 5817  16.263   9.356   7.758 -0.1836 -0.1254 -0.0125
  364loPI   C4A 5818  16.216   9.225   7.364 -0.0200  0.1335  0.0102
  364loPI   C5A 5819  16.070   9.258   6.970 -0.4286 -0.0869 -0.0158
  364loPI   C6A 5820  16.022   8.840   6.668  0.2776  0.2585 -0.0458
  364loPI   C1B 5821  16.721  10.025   8.641  0.3705  0.0040 -0.2000
  364loPI   C2B 5822  16.911   9.925   8.266  0.3131 -0.0662 -0.0059
  364loPI   C3B 5823  17.149  10.031   7.984  0.1062 -0.3169  0.0640
  364loPI   C4B 5824  17.232   9.684   7.744 -0.1188  0.3168  0.1005
  365loPI    C1 5825   6.322  15.284  10.083  0.0457  0.3256  0.1354
  365loPI    C2 5826   6.199  15.139  10.435  0.0268 -0.0311 -0.0139
  365loPI    C3 5827   6.589  15.147  10.348  0.0524  0.3058  0.1185
  365loPI   PO4 5828   6.085  15.246   9.953 -0.1491 -0.0534  0.2228
  365loPI   GL1 5829   5.975  15.276   9.437  0.1419 -0.0557  0.0787
  365loPI   GL2 5830   5.722  15.405   9.262 -0.2399  0.2549 -0.1466
  365loPI   C1A 5831   6.014  15.009   9.055 -0.2218 -0.0097 -0.1204
  365loPI   C2A 5832   6.055  14.948   8.609  0.1827  0.4075  0.0907
  365loPI   C3A 5833   6.287  14.811   8.153  0.1203 -0.0616 -0.0930
  365loPI   C4A 5834   6.339  14.735   7.776  0.0854 -0.0193 -0.0161
  365loPI   C5A 5835   6.398  14.932   7.361  0.1491  0.2428 -0.0806
  365loPI   C6A 5836   6.489  14.927   6.895 -0.1906 -0.1455  0.0879
  365loPI   C1B 5837   5.979  15.476   8.931 -0.0104  0.0619  0.2386
  365loPI   C2B 5838   5.834  15.419   8.483 -0.2179  0.1332 -0.2834
  365loPI   C3B 5839   5.896  15.211   8.051 -0.0283  0.0647 -0.1296
  365loPI   C4B 5840   6.099  15.213   7.657  0.1477  0.1532  0.0244
  366loPI    C1 5841   0.127   2.224   9.964  0.1072 -0.2242 -0.1711
  366loPI    C2 5842   0.065   1.902  10.192 -0.3416  0.0258  0.0731
  366loPI    C3 5843   0.327   2.181  10.307 -0.1266 -0.1343 -0.0214
  366loPI   PO4 5844  -0.053   2.266   9.818 -0.1532  0.2736  0.1840
  366loPI   GL1 5845  -0.162   2.378   9.498  0.0230 -0.2521 -0.2287
  366loPI   GL2 5846  -0.436   2.469   9.484 -0.0485  0.0067  0.1057
  366loPI   C1A 5847  -0.114   2.300   9.080 -0.3599 -0.1332  0.1318
  366loPI   C2A 5848  -0.050   2.348   8.581  0.3115  0.0450 -0.0877
  366loPI   C3A 5849   0.065   2.277   8.176  0.0767  0.3256  0.1906
  366loPI   C4A 5850   0.036   2.127   7.710 -0.1220 -0.0518 -0.0421
  366loPI   C5A 5851  -0.015   2.121   7.360 -0.0882 -0.0471 -0.2299
  366loPI   C6A 5852  -0.434   2.344   7.105 -0.2373  0.1933 -0.0131
  366loPI   C1B 5853  -0.677   2.549   9.270 -0.1842  0.2618  0.0580
  366loPI   C2B 5854  -0.563   2.391   8.843  0.0302 -0.2416 -0.1351
  366loPI   C3B 5855  -0.514   2.452   8.293  0.1944 -0.2045  0.0379
  366loPI   C4B 5856  -0.575   2.647   7.857  0.0445 -0.1312 -0.0128
  367loPI    C1 5857  16.263   8.097   9.970 -0.1188 -0.0157 -0.2317
  367loPI    C2 5858  16.157   8.279  10.310  0.1340 -0.1842 -0.0590
  367loPI    C3 5859  16.068   7.894  10.254  0.0698 -0.1499 -0.1968
  367loPI   PO4 5860  16.346   8.306   9.790 -0.0382 -0.0851  0.1537
  367loPI   GL1 5861  16.258   8.296   9.351  0.5318  0.1814 -0.2045
  367loPI   GL2 5862  16.057   8.022   9.455  0.2234  0.2169 -0.1717
  367loPI   C1A 5863  16.282   8.145   8.866  0.2387  0.1242 -0.0470
  367loPI   C2A 5864  16.418   8.015   8.480 -0.1189  0.0044  0.1171
  367loPI   C3A 5865  16.256   7.924   8.006  0.3323 -0.0832  0.0255
  367loPI   C4A 5866  15.987   7.860   7.671  0.0183  0.2260  0.2674
  367loPI   C5A 5867  15.692   7.512   7.582 -0.4167  0.1151  0.0591
  367loPI   C6A 5868  15.431   7.158   7.708  0.2649 -0.1760  0.1477
  367loPI   C1B 5869  15.887   7.773   9.140 -0.2135  0.1585  0.1966
  367loPI   C2B 5870  15.605   7.766   8.851 -0.1353 -0.0608  0.1882
  367loPI   C3B 5871  15.640   7.610   8.473  0.0224 -0.0712  0.1154
  367loPI   C4B 5872  15.421   7.464   8.111 -0.0478  0.4532  0.0705
  368loPI    C1 5873   3.800  16.337   9.943  0.0573  0.1435  0.3426
  368loPI    C2 5874   3.963  15.972   9.951 -0.0959  0.0612 -0.0614
  368loPI    C3 5875   4.096  16.255  10.200  0.1847 -0.2008  0.0940
  368loPI   PO4 5876   3.831  16.400   9.640 -0.1047  0.1020  0.1212
  368loPI   GL1 5877   3.731  16.283   9.258 -0.0027  0.0773  0.0767
  368loPI   GL2 5878   3.903  16.531   8.997  0.2130 -0.5871  0.0967
  368loPI   C1A 5879   3.779  16.075   8.912 -0.1361 -0.3158  0.0495
  368loPI   C2A 5880   3.804  16.018   8.455  0.3703  0.1942  0.2474
  368loPI   C3A 5881   3.907  16.031   8.048 -0.1610 -0.0284 -0.2193
  368loPI   C4A 5882   3.690  15.867   7.624 -0.2385  0.1967  0.2616
  368loPI   C5A 5883   3.277  15.533   7.557  0.0539  0.0200  0.1150
  368loPI   C6A 5884   3.147  15.347   7.204  0.2073  0.0540  0.1398
  368loPI   C1B 5885   3.936  16.497   8.554  0.0728  0.0179  0.2034
  368loPI   C2B 5886   4.043  16.875   8.206  0.0860 -0.1050  0.2543
  368loPI   C3B 5887   4.109  17.017   7.800 -0.2014  0.1079  0.0337
  368loPI   C4B 5888   4.005  16.775   7.368 -0.0878  0.0762 -0.0386
  369loPI    C1 5889   4.384   3.266  10.281 -0.0054 -0.2040 -0.1647
  369loPI    C2 5890   4.125   2.962  10.309 -0.4275  0.1876  0.4222
  369loPI    C3 5891   4.340   3.071  10.628  0.2560  0.0641  0.0243
  369loPI   PO4 5892   4.484   3.231  10.042 -0.0651  0.2380 -0.0136
  369loPI   GL1 5893   4.821   3.252   9.741 -0.0285 -0.0223 -0.1377
  369loPI   GL2 5894   5.237   3.245   9.558  0.2323 -0.1032  0.1781
  369loPI   C1A 5895   4.687   3.244   9.285 -0.1282 -0.4146 -0.1188
  369loPI   C2A 5896   4.911   3.014   8.944 -0.0531  0.1342 -0.2378
  369loPI   C3A 5897   5.045   3.083   8.605  0.2443 -0.0077  0.0346
  369loPI   C4A 5898   5.217   3.052   8.166 -0.0193 -0.3256 -0.0081
  369loPI   C5A 5899   5.515   3.169   7.868 -0.0964  0.0736  0.1601
  369loPI   C6A 5900   5.640   2.812   7.591  0.1825 -0.1405  0.2381
  369loPI   C1B 5901   5.248   3.418   9.195  0.1231  0.1702  0.1950
  369loPI   C2B 5902   5.352   3.422   8.792 -0.0814  0.0989 -0.0034
  369loPI   C3B 5903   5.585   3.286   8.431  0.0780  0.1331 -0.1879
  369loPI   C4B 5904   5.794   3.487   8.190 -0.1066 -0.0009  0.1206
  370loPI    C1 5905   4.046  18.971  10.244 -0.0600  0.1043 -0.0167
  370loPI    C2 5906   3.814  19.238  10.432 -0.0179  0.0669  0.0895
  370loPI    C3 5907   3.844  18.864  10.572 -0.0428  0.0180 -0.0339
  370loPI   PO4 5908   4.092  19.102  10.067 -0.0294 -0.2204  0.3672
  370loPI   GL1 5909   4.084  19.068   9.635  0.1597 -0.2213 -0.2266
  370loPI   GL2 5910   4.425  19.052   9.423  0.1208  0.1721 -0.4016
  370loPI   C1A 5911   3.934  19.339   9.316 -0.1505  0.3389 -0.4228
  370loPI   C2A 5912   4.089  19.402   8.842 -0.1497  0.3190  0.0314
  370loPI   C3A 5913   4.227  19.534   8.475 -0.0776  0.0189 -0.0719
  370loPI   C4A 5914   4.592  19.697   8.266  0.0834 -0.1843  0.4019
  370loPI   C5A 5915   4.731  19.791   7.918  0.3516  0.3765  0.0922
  370loPI   C6A 5916   5.070  19.921   7.655 -0.1850 -0.0224  0.0231
  370loPI   C1B 5917   4.446  18.960   9.001 -0.0342  0.0365  0.1527
  370loPI   C2B 5918   4.583  18.787   8.684 -0.1422  0.0589  0.2338
  370loPI   C3B 5919   4.629  18.656   8.268  0.0879  0.1340 -0.0557
  370loPI   C4B 5920   4.554  18.530   7.799 -0.1451 -0.0758  0.2506
  371loPI    C1 5921  10.260  16.216   9.580 -0.1028  0.0187  0.1538
  371loPI    C2 5922  10.079  15.956   9.336  0.2980 -0.0604 -0.0697
  371loPI    C3 5923  10.071  15.898   9.732 -0.3104  0.0386 -0.0582
  371loPI   PO4 5924  10.196  16.391   9.606  0.1518 -0.0897  0.2570
  371loPI   GL1 5925  10.270  16.734   9.291  0.1000  0.1400  0.0827
  371loPI   GL2 5926  10.605  16.703   9.318 -0.0524 -0.0591  0.0586
  371loPI   C1A 5927  10.160  16.607   8.758 -0.0413  0.0033  0.2825
  371loPI   C2A 5928   9.921  16.821   8.416  0.2428 -0.0662  0.1711
  371loPI   C3A 5929   9.836  16.799   7.945  0.1035  0.0905 -0.0035
  371loPI   C4A 5930   9.922  16.837   7.536 -0.2609  0.1736  0.0055
  371loPI   C5A 5931  10.170  17.101   7.197  0.1037  0.3148  0.4989
  371loPI   C6A 5932  10.182  17.464   6.858  0.1746  0.0568  0.1295
  371loPI   C1B 5933  10.657  16.668   8.894 -0.0158  0.1199 -0.0198
  371loPI   C2B 5934  10.599  16.572   8.484  0.1939  0.4014 -0.1896
  371loPI   C3B 5935  10.781  16.441   8.186 -0.4499 -0.2162  0.0408
  371loPI   C4B 5936  10.970  16.239   7.846 -0.0384  0.1849 -0.3607
  372loPI    C1 5937  14.052  15.038   9.978  0.2424 -0.2862 -0.0167
  372loPI    C2 5938  14.251  15.379  10.040  0.0265 -0.1627  0.0058
  372loPI    C3 5939  14.137  15.154  10.351 -0.0177 -0.1463  0.0016
  372loPI   PO4 5940  14.172  14.957   9.735 -0.1023 -0.3575 -0.1108
  372loPI   GL1 5941  14.052  15.021   9.245 -0.1695 -0.1451 -0.0684
  372loPI   GL2 5942  14.361  15.167   9.299  0.2493 -0.2143 -0.1385
  372loPI   C1A 5943  13.923  15.206   8.839 -0.1864  0.1444  0.1243
  372loPI   C2A 5944  13.763  15.371   8.424  0.2857 -0.1562 -0.0041
  372loPI   C3A 5945  13.779  15.317   8.021 -0.0600 -0.2614  0.1714
  372loPI   C4A 5946  13.830  15.049   7.644  0.0094  0.0610 -0.1467
  372loPI   C5A 5947  13.770  15.048   7.208  0.0927 -0.3618 -0.2436
  372loPI   C6A 5948  13.722  15.291   6.727  0.3041 -0.0289  0.3009
  372loPI   C1B 5949  14.563  15.252   8.872 -0.0370  0.0166 -0.2397
  372loPI   C2B 5950  14.955  15.198   8.736  0.0253 -0.0034  0.2535
  372loPI   C3B 5951  15.055  14.994   8.338  0.1521  0.1659  0.1063
  372loPI   C4B 5952  14.639  14.760   8.229  0.3403  0.2321 -0.0364
  373loPI    C1 5953  11.894   3.224  10.012  0.0276  0.0084 -0.0238
  373loPI    C2 5954  12.085   3.575  10.020 -0.1203  0.0863  0.2081
  373loPI    C3 5955  11.906   3.437  10.350 -0.0374 -0.2232  0.1274
  373loPI   PO4 5956  11.865   3.099   9.739 -0.0274  0.0571 -0.0430
  373loPI   GL1 5957  11.968   3.046   9.383 -0.0664  0.1857  0.0198
  373loPI   GL2 5958  12.016   2.706   9.322 -0.1195  0.0883  0.2234
  373loPI   C1A 5959  11.912   3.177   9.040  0.1557 -0.0255 -0.2206
  373loPI   C2A 5960  12.080   3.155   8.698  0.1883  0.1625 -0.0928
  373loPI   C3A 5961  11.955   3.087   8.226 -0.2440 -0.4187 -0.0666
  373loPI   C4A 5962  11.963   3.035   7.857  0.2942 -0.0331 -0.1350
  373loPI   C5A 5963  11.961   3.233   7.428  0.1979  0.0038  0.0669
  373loPI   C6A 5964  11.956   3.124   7.020 -0.2073  0.0843 -0.1588
  373loPI   C1B 5965  11.910   2.677   8.890  0.2284  0.2663 -0.1874
  373loPI   C2B 5966  12.051   2.571   8.451 -0.0247 -0.0118  0.2027
  373loPI   C3B 5967  12.255   2.610   8.061  0.0001 -0.0342  0.0259
  373loPI   C4B 5968  12.277   2.743   7.605  0.0614  0.4427  0.4568
  374loPI    C1 5969   9.663   6.459   9.629 -0.1349  0.0893 -0.0208
  374loPI    C2 5970   9.821   6.758   9.842  0.3590 -0.1247 -0.0734
  374loPI    C3 5971   9.621   6.464  10.027  0.0676  0.1156  0.0010
  374loPI   PO4 5972   9.473   6.544   9.488 -0.1778 -0.0229 -0.1452
  374loPI   GL1 5973   9.388   6.699   9.220  0.3459  0.1101  0.1820
  374loPI   GL2 5974   9.738   6.764   9.143 -0.1848 -0.2397  0.0849
  374loPI   C1A 5975   9.408   6.885   8.791 -0.1093 -0.0892  0.0039
  374loPI   C2A 5976   9.500   6.711   8.327  0.2868  0.0218 -0.1973
  374loPI   C3A 5977   9.599   6.436   7.890  0.0212 -0.1527 -0.0102
  374loPI   C4A 5978   9.628   6.468   7.428 -0.0574 -0.0174  0.0905
  374loPI   C5A 5979   9.938   6.323   7.101  0.2485  0.0063 -0.2302
  374loPI   C6A 5980  10.129   6.314   6.685  0.4169  0.0207  0.0915
  374loPI   C1B 5981   9.852   6.611   8.791 -0.0466 -0.1448  0.3686
  374loPI   C2B 5982   9.865   6.272   8.401  0.1441  0.1254 -0.2513
  374loPI   C3B 5983  10.109   6.184   8.080 -0.1372  0.0858  0.1292
  374loPI   C4B 5984  10.417   6.053   7.804  0.0574  0.1426 -0.0274
  375loPI    C1 5985  15.352   8.403   9.778 -0.0037 -0.1400  0.0153
  375loPI    C2 5986  15.218   8.621  10.086  0.2704 -0.1695  0.1587
  375loPI    C3 5987  15.538   8.743   9.879  0.2226 -0.2651  0.0269
  375loPI   PO4 5988  15.223   8.389   9.645  0.2124 -0.2072 -0.2548
  375loPI   GL1 5989  15.106   8.085   9.290 -0.2091 -0.0093  0.1154
  375loPI   GL2 5990  14.887   7.937   9.398 -0.0402  0.1045  0.0627
  375loPI   C1A 5991  15.194   8.065   8.873  0.2632  0.1366  0.2061
  375loPI   C2A 5992  15.333   8.089   8.495  0.2193 -0.0152  0.1843
  375loPI   C3A 5993  15.377   8.293   8.208  0.0552 -0.1525 -0.1091
  375loPI   C4A 5994  15.132   8.369   7.889 -0.0287  0.1753 -0.1535
  375loPI   C5A 5995  14.883   8.514   7.512 -0.2241  0.1623  0.2000
  375loPI   C6A 5996  14.591   8.413   7.256  0.0250 -0.2745  0.2932
  375loPI   C1B 5997  14.847   7.700   8.957 -0.0269  0.0002  0.1083
  375loPI   C2B 5998  15.071   7.610   8.618 -0.0181 -0.3873  0.1598
  375loPI   C3B 5999  15.039   7.218   8.377 -0.3709 -0.1170 -0.0425
  375loPI   C4B 6000  15.266   6.872   8.058  0.0141 -0.0755 -0.1704
  376loPI    C1 6001   1.461   0.876  10.411  0.0448 -0.0304 -0.0492
  376loPI    C2 6002   1.780   0.673  10.280  0.2960  0.0989  0.3461
  376loPI    C3 6003   1.549   0.519  10.568  0.0822  0.0704  0.1620
  376loPI   PO4 6004   1.362   1.002  10.168 -0.1862  0.0076  0.1592
  376loPI   GL1 6005   1.184   0.940   9.847 -0.2690  0.1482 -0.2734
  376loPI   GL2 6006   0.975   1.196   9.599 -0.2302 -0.0850  0.1221
  376loPI   C1A 6007   1.160   0.749   9.433 -0.1884 -0.0178 -0.1764
  376loPI   C2A 6008   0.893   0.817   9.085  0.0496 -0.2639 -0.1357
  376loPI   C3A 6009   1.015   0.714   8.589 -0.0352  0.0781  0.0192
  376loPI   C4A 6010   1.078   0.671   8.160  0.0768 -0.0918 -0.3712
  376loPI   C5A 6011   0.982   0.678   7.851  0.1348  0.0750  0.3246
  376loPI   C6A 6012   1.017   0.337   7.620 -0.3585  0.2838 -0.0517
  376loPI   C1B 6013   0.958   1.370   9.225  0.0496  0.1164 -0.0374
  376loPI   C2B 6014   1.047   1.590   8.919  0.0200 -0.3390  0.0091
  376loPI   C3B 6015   1.405   1.928   8.844 -0.1102  0.1047 -0.0743
  376loPI   C4B 6016   1.422   2.087   8.444  0.1220  0.1463  0.0421
  377loPI    C1 6017   3.334   9.542   9.863 -0.1426  0.0004 -0.0563
  377loPI    C2 6018   2.988   9.352   9.799 -0.0923 -0.1525  0.1138
  377loPI    C3 6019   3.169   9.323  10.155  0.0564 -0.0095  0.0513
  377loPI   PO4 6020   3.497   9.547   9.588 -0.0541  0.0653 -0.0378
  377loPI   GL1 6021   3.651   9.797   9.232  0.0270  0.0349  0.2441
  377loPI   GL2 6022   3.946   9.743   9.107 -0.1466 -0.2235 -0.1298
  377loPI   C1A 6023   3.464   9.935   8.850  0.0098 -0.0681 -0.3307
  377loPI   C2A 6024   3.259   9.887   8.491  0.1246  0.0706  0.0193
  377loPI   C3A 6025   3.256   9.739   8.102 -0.2284 -0.0055 -0.0704
  377loPI   C4A 6026   3.196   9.758   7.765  0.0331  0.1122  0.5442
  377loPI   C5A 6027   3.068  10.105   7.519  0.2547  0.2147 -0.0279
  377loPI   C6A 6028   2.976  10.543   7.501 -0.1022  0.0503 -0.1821
  377loPI   C1B 6029   3.909   9.804   8.724 -0.0979  0.2185  0.3178
  377loPI   C2B 6030   3.869   9.846   8.262  0.0638 -0.1071 -0.2312
  377loPI   C3B 6031   3.708   9.987   7.811  0.2194 -0.0701  0.2256
  377loPI   C4B 6032   3.869   9.942   7.416 -0.0473  0.1180  0.0536
  378loPI    C1 6033  18.974  14.854   9.369  0.0514 -0.0863  0.0243
  378loPI    C2 6034  18.873  15.201   9.196 -0.0171 -0.0161  0.2026
  378loPI    C3 6035  18.935  15.185   9.591  0.2131 -0.1587  0.1630
  378loPI   PO4 6036  18.777  14.684   9.228  0.3005  0.0274  0.1499
  378loPI   GL1 6037  18.614  14.559   8.938 -0.0538  0.2468  0.1415
  378loPI   GL2 6038  18.847  14.420   8.820 -0.2044 -0.0899  0.1836
  378loPI   C1A 6039  18.780  14.880   8.655 -0.1618 -0.3291 -0.1666
  378loPI   C2A 6040  18.974  14.936   8.214 -0.0149  0.1165 -0.0760
  378loPI   C3A 6041  19.151  15.025   7.828 -0.1073  0.0079 -0.0620
  378loPI   C4A 6042  18.952  15.300   7.526  0.1860 -0.1274  0.0271
  378loPI   C5A 6043  18.691  15.182   7.174 -0.2150  0.2225  0.4353
  378loPI   C6A 6044  18.652  15.341   6.738 -0.0174 -0.0939  0.2117
  378loPI   C1B 6045  18.923  14.248   8.500 -0.3135  0.3077  0.1409
  378loPI   C2B 6046  19.014  14.403   8.092  0.3566  0.1280 -0.0862
  378loPI   C3B 6047  19.078  14.535   7.688 -0.2286 -0.1799 -0.1888
  378loPI   C4B 6048  19.175  14.516   7.342  0.0609 -0.2265  0.1001
  379loPI    C1 6049   8.082   2.593   9.734 -0.1674 -0.0484 -0.1094
  379loPI    C2 6050   8.375   2.331   9.809  0.0213  0.1966  0.0228
  379loPI    C3 6051   8.156   2.478  10.110 -0.2752 -0.0246 -0.0805
  379loPI   PO4 6052   8.212   2.763   9.605  0.2469 -0.0377 -0.1039
  379loPI   GL1 6053   8.485   2.504   9.307 -0.2372  0.0646  0.0209
  379loPI   GL2 6054   8.294   2.197   9.311 -0.1892 -0.0392  0.0701
  379loPI   C1A 6055   8.214   2.482   8.893 -0.1873  0.0824  0.0245
  379loPI   C2A 6056   8.120   2.775   8.543  0.0157 -0.0900 -0.1121
  379loPI   C3A 6057   8.213   2.733   8.115 -0.0756  0.1982 -0.2037
  379loPI   C4A 6058   8.401   2.318   7.923  0.1430 -0.2785  0.1116
  379loPI   C5A 6059   8.861   2.195   7.712 -0.1807  0.2702  0.1167
  379loPI   C6A 6060   9.066   2.032   7.394  0.2434 -0.0711 -0.0281
  379loPI   C1B 6061   8.491   2.100   8.837 -0.1659 -0.1773 -0.2117
  379loPI   C2B 6062   8.499   2.073   8.380  0.4516 -0.1507  0.3325
  379loPI   C3B 6063   8.238   1.672   8.264  0.0237 -0.1923  0.1128
  379loPI   C4B 6064   8.083   1.522   7.819 -0.0619  0.0798  0.2903
  380loPI    C1 6065  12.018  14.820   9.593  0.0366 -0.2532  0.2814
  380loPI    C2 6066  12.409  14.885   9.541 -0.0517  0.0878  0.0000
  380loPI    C3 6067  12.227  15.013   9.874  0.0839 -0.1261  0.1599
  380loPI   PO4 6068  11.845  14.908   9.442  0.0088  0.1522 -0.1058
  380loPI   GL1 6069  11.752  14.781   9.121 -0.0175 -0.1080 -0.0950
  380loPI   GL2 6070  12.116  14.970   9.062 -0.2291  0.0867  0.0025
  380loPI   C1A 6071  11.869  14.574   8.841 -0.0003  0.0484  0.2627
  380loPI   C2A 6072  11.686  14.247   8.594 -0.0964 -0.0547  0.1512
  380loPI   C3A 6073  11.324  13.949   8.423  0.2014  0.0647  0.1767
  380loPI   C4A 6074  11.137  13.894   8.134  0.1540  0.2339  0.1050
  380loPI   C5A 6075  10.889  13.819   7.747  0.0055 -0.1619  0.0844
  380loPI   C6A 6076  10.502  14.029   7.519  0.1626  0.2916  0.1238
  380loPI   C1B 6077  12.328  14.917   8.712 -0.3322 -0.1622 -0.0828
  380loPI   C2B 6078  12.171  14.837   8.269  0.1809 -0.0774  0.0210
  380loPI   C3B 6079  11.749  14.653   8.185  0.0912 -0.2867  0.3183
  380loPI   C4B 6080  11.658  14.266   8.006  0.1200  0.1426  0.0325
  381loPI    C1 6081   0.049   4.271  10.303  0.1420 -0.1684  0.1352
  381loPI    C2 6082  -0.154   4.518  10.544  0.1946 -0.0495  0.0585
  381loPI    C3 6083   0.176   4.335  10.677  0.1000 -0.1568  0.1475
  381loPI   PO4 6084  -0.160   4.142  10.153  0.0653  0.2246  0.2851
  381loPI   GL1 6085  -0.356   4.227   9.724  0.2780 -0.2175 -0.1814
  381loPI   GL2 6086  -0.123   4.081   9.565  0.0184  0.0426  0.0674
  381loPI   C1A 6087  -0.152   4.534   9.438 -0.0199 -0.0737 -0.0922
  381loPI   C2A 6088  -0.031   4.721   9.080  0.2599 -0.0675  0.1038
  381loPI   C3A 6089   0.076   4.808   8.635 -0.0956 -0.1564  0.0120
  381loPI   C4A 6090   0.469   4.922   8.376 -0.3401 -0.0392 -0.0464
  381loPI   C5A 6091   0.841   4.992   8.294 -0.1544 -0.1418  0.5689
  381loPI   C6A 6092   1.135   4.854   7.978  0.0518  0.2674 -0.2135
  381loPI   C1B 6093   0.120   4.044   9.335  0.0785  0.0457 -0.1787
  381loPI   C2B 6094   0.112   4.238   8.972 -0.1747 -0.1739  0.1099
  381loPI   C3B 6095   0.300   4.258   8.626  0.0907 -0.4049 -0.3157
  381loPI   C4B 6096   0.250   4.320   8.141 -0.2869 -0.0644 -0.0878
  382loPI    C1 6097  12.335  16.033   9.439  0.0602 -0.1701  0.0651
  382loPI    C2 6098  12.329  16.281   9.753  0.1573 -0.1322  0.0376
  382loPI    C3 6099  12.134  15.932   9.770 -0.1721  0.0450 -0.0073
  382loPI   PO4 6100  12.272  16.230   9.257 -0.1030  0.1516  0.1527
  382loPI   GL1 6101  12.361  16.457   8.954  0.0729 -0.3633  0.3031
  382loPI   GL2 6102  12.604  16.471   8.706  0.0341 -0.0383 -0.0032
  382loPI   C1A 6103  12.223  16.712   8.546 -0.0103 -0.0271  0.0637
  382loPI   C2A 6104  12.368  16.854   8.062 -0.4905 -0.1139  0.1303
  382loPI   C3A 6105  12.802  16.731   7.900 -0.3031  0.0582  0.0773
  382loPI   C4A 6106  12.837  16.487   7.492  0.2719 -0.1083  0.0641
  382loPI   C5A 6107  12.577  16.676   7.153  0.2002  0.1656  0.1280
  382loPI   C6A 6108  12.444  16.618   6.827 -0.0182 -0.0960  0.2191
  382loPI   C1B 6109  12.898  16.413   8.359  0.0967 -0.2867  0.1650
  382loPI   C2B 6110  13.061  16.214   8.084  0.0767  0.0033 -0.0474
  382loPI   C3B 6111  12.770  16.023   7.881 -0.2314  0.2277  0.0944
  382loPI   C4B 6112  12.789  15.868   7.419 -0.0536  0.0721  0.1487
  383loPI    C1 6113  11.088   6.207  10.005 -0.1331  0.2187  0.0384
  383loPI    C2 6114  11.237   6.572   9.941  0.3712  0.0420  0.1541
  383loPI    C3 6115  11.158   6.452  10.314 -0.1576  0.1622  0.0890
  383loPI   PO4 6116  10.966   6.087   9.753  0.2052  0.0116  0.3449
  383loPI   GL1 6117  10.988   6.150   9.336 -0.2915  0.0448  0.3331
  383loPI   GL2 6118  11.269   6.055   9.321 -0.0197  0.0165 -0.2571
  383loPI   C1A 6119  10.733   6.082   8.980 -0.0941  0.1766 -0.2841
  383loPI   C2A 6120  10.875   6.137   8.575 -0.0644  0.0359 -0.1384
  383loPI   C3A 6121  11.042   6.011   8.218  0.0357  0.0676 -0.1990
  383loPI   C4A 6122  11.075   5.766   7.865  0.1298  0.0673  0.0040
  383loPI   C5A 6123  10.877   5.422   7.553  0.1443  0.1119  0.0552
  383loPI   C6A 6124  10.845   5.293   7.154 -0.1590  0.1963  0.1195
  383loPI   C1B 6125  11.278   6.248   8.925  0.0592 -0.1187  0.1184
  383loPI   C2B 6126  11.372   6.290   8.491  0.0757 -0.0091  0.2460
  383loPI   C3B 6127  11.437   6.155   7.978 -0.0804 -0.2939  0.0397
  383loPI   C4B 6128  11.786   6.106   7.745  0.1711  0.0485 -0.0651
  384loPI    C1 6129  15.758   6.904   9.862 -0.1089  0.0013 -0.2153
  384loPI    C2 6130  15.660   6.917  10.250 -0.0437  0.0204 -0.1994
  384loPI    C3 6131  15.874   6.610  10.107  0.0188  0.0639 -0.1999
  384loPI   PO4 6132  15.870   7.133   9.772 -0.1434 -0.1081 -0.0169
  384loPI   GL1 6133  16.144   7.127   9.448 -0.2452  0.1477 -0.0952
  384loPI   GL2 6134  16.263   7.408   9.353  0.1284 -0.0426  0.1233
  384loPI   C1A 6135  16.026   7.096   8.989 -0.1522  0.0362 -0.4550
  384loPI   C2A 6136  16.146   7.053   8.580  0.1047  0.1425  0.0511
  384loPI   C3A 6137  16.389   7.000   8.198 -0.2661  0.0854 -0.1737
  384loPI   C4A 6138  16.717   6.867   8.051  0.3528 -0.0306  0.0128
  384loPI   C5A 6139  16.903   6.902   7.686  0.1274  0.4091  0.0369
  384loPI   C6A 6140  17.010   6.977   7.237 -0.2094  0.0397  0.0004
  384loPI   C1B 6141  16.522   7.263   8.928 -0.0287  0.0295  0.3261
  384loPI   C2B 6142  16.592   7.385   8.593  0.0480  0.2598  0.1065
  384loPI   C3B 6143  16.621   7.557   8.180 -0.0645 -0.0364  0.4288
  384loPI   C4B 6144  16.859   7.920   7.983  0.1536  0.0838 -0.0150
  385loPI    C1 6145   3.033   8.370   9.876 -0.0995 -0.1674 -0.0707
  385loPI    C2 6146   3.168   8.365  10.253 -0.1321 -0.0123 -0.0566
  385loPI    C3 6147   2.831   8.563  10.163 -0.0764  0.0263 -0.1829
  385loPI   PO4 6148   3.061   8.061   9.813 -0.1002 -0.1757  0.4637
  385loPI   GL1 6149   3.071   7.985   9.316  0.1575  0.2165  0.1641
  385loPI   GL2 6150   2.867   8.195   9.388 -0.0275 -0.5558 -0.2126
  385loPI   C1A 6151   2.766   7.713   9.009  0.1400 -0.0502  0.0915
  385loPI   C2A 6152   2.720   7.625   8.578  0.2390  0.0981  0.0265
  385loPI   C3A 6153   2.790   7.556   8.159 -0.1111  0.1810  0.1854
  385loPI   C4A 6154   2.768   7.910   7.723 -0.3760  0.0001 -0.1379
  385loPI   C5A 6155   2.672   8.005   7.286  0.2843 -0.0585  0.0400
  385loPI   C6A 6156   2.621   7.658   7.078 -0.1300 -0.1626  0.1547
  385loPI   C1B 6157   2.667   8.278   9.053  0.0631 -0.0526 -0.3101
  385loPI   C2B 6158   2.643   8.158   8.688  0.3683  0.2124 -0.0668
  385loPI   C3B 6159   2.655   8.071   8.208  0.1716  0.2562 -0.2314
  385loPI   C4B 6160   3.103   8.058   8.111  0.1686 -0.0070  0.1640
  386loPI    C1 6161   8.438   7.695   9.647  0.2545 -0.1272  0.0540
  386loPI    C2 6162   8.728   7.912   9.818  0.0534  0.2915 -0.1212
  386loPI    C3 6163   8.385   7.846  10.014  0.0848  0.1932 -0.0986
  386loPI   PO4 6164   8.349   7.844   9.402 -0.1386  0.2173  0.1862
  386loPI   GL1 6165   8.462   8.130   9.082 -0.3904  0.2544  0.0338
  386loPI   GL2 6166   8.288   8.356   9.218  0.1084 -0.0141  0.0727
  386loPI   C1A 6167   8.657   8.375   8.655 -0.2405  0.1446  0.0125
  386loPI   C2A 6168   8.737   8.471   8.188  0.1474 -0.0559 -0.2725
  386loPI   C3A 6169   8.775   8.452   7.794 -0.1089  0.1522  0.3574
  386loPI   C4A 6170   8.624   8.251   7.496 -0.1090 -0.1838  0.2359
  386loPI   C5A 6171   8.185   8.014   7.439 -0.4447 -0.0899 -0.1186
  386loPI   C6A 6172   8.058   7.802   7.077  0.2121  0.0826  0.1829
  386loPI   C1B 6173   8.088   8.324   8.865  0.1933  0.0394  0.0357
  386loPI   C2B 6174   7.809   8.257   8.648 -0.0270  0.0580  0.0692
  386loPI   C3B 6175   7.571   8.149   8.270  0.0278  0.2700 -0.2052
  386loPI   C4B 6176   7.456   8.197   7.832 -0.0496  0.0419  0.3057
  387loPI    C1 6177  14.770   8.197  10.142  0.0810 -0.1846 -0.1516
  387loPI    C2 6178  15.071   8.278  10.392  0.0316 -0.5205  0.0233
  387loPI    C3 6179  14.693   8.329  10.512  0.0087  0.2022 -0.2996
  387loPI   PO4 6180  14.797   8.380   9.878 -0.3745 -0.0183  0.0186
  387loPI   GL1 6181  14.664   8.368   9.520 -0.2884  0.2821 -0.0686
  387loPI   GL2 6182  14.380   8.450   9.447  0.1521 -0.2062  0.1369
  387loPI   C1A 6183  14.637   8.233   9.108 -0.0137  0.1765 -0.0452
  387loPI   C2A 6184  14.635   8.283   8.759 -0.1438  0.1633 -0.0185
  387loPI   C3A 6185  14.735   8.217   8.369  0.1377 -0.2295  0.2172
  387loPI   C4A 6186  14.678   8.540   8.116 -0.1247  0.1460  0.0200
  387loPI   C5A 6187  14.631   8.815   7.834  0.2735  0.1418 -0.0486
  387loPI   C6A 6188  14.685   9.010   7.485  0.3842 -0.1450 -0.0696
  387loPI   C1B 6189  14.155   8.315   9.036 -0.1610  0.1610  0.0056
  387loPI   C2B 6190  13.918   8.094   8.748 -0.0692  0.0243  0.1817
  387loPI   C3B 6191  13.830   7.962   8.332 -0.5509  0.1322  0.1968
  387loPI   C4B 6192  13.595   7.670   8.091 -0.3128 -0.1838  0.0630
  388loPI    C1 6193   6.709   3.816   9.871 -0.1130 -0.2026 -0.0275
  388loPI    C2 6194   6.609   3.570  10.170  0.1729 -0.0637  0.1877
  388loPI    C3 6195   6.889   3.849  10.227  0.2031 -0.0096 -0.2012
  388loPI   PO4 6196   6.566   3.677   9.695 -0.3463 -0.0958  0.2177
  388loPI   GL1 6197   6.396   3.782   9.249 -0.1613 -0.1081  0.0841
  388loPI   GL2 6198   6.072   3.715   9.432 -0.0011 -0.2564 -0.0800
  388loPI   C1A 6199   6.394   3.917   8.898 -0.0561  0.2126  0.0294
  388loPI   C2A 6200   6.298   4.146   8.421 -0.1648  0.2073 -0.0050
  388loPI   C3A 6201   6.257   4.210   7.969 -0.1629 -0.0449 -0.2000
  388loPI   C4A 6202   5.920   4.308   7.752 -0.0373 -0.1286  0.0210
  388loPI   C5A 6203   5.491   4.428   7.715  0.0334 -0.2760  0.2623
  388loPI   C6A 6204   5.354   4.478   7.255  0.1394  0.2491  0.0815
  388loPI   C1B 6205   5.946   3.626   9.047 -0.0652 -0.2540  0.1751
  388loPI   C2B 6206   5.920   3.672   8.662  0.0146  0.1121  0.2580
  388loPI   C3B 6207   6.264   3.568   8.365 -0.1488  0.1477  0.0516
  388loPI   C4B 6208   6.257   3.668   7.986  0.1346 -0.3861 -0.0315
  389loPI    C1 6209  15.828  18.700   9.763 -0.0362  0.0204  0.0710
  389loPI    C2 6210  15.453  18.819   9.831  0.0252  0.1340  0.2161
  389loPI    C3 6211  15.735  18.879  10.108  0.0998 -0.1717  0.2097
  389loPI   PO4 6212  15.875  18.794   9.477  0.1397 -0.0922  0.1416
  389loPI   GL1 6213  15.742  18.606   9.022  0.1436  0.0785 -0.2026
  389loPI   GL2 6214  15.581  18.909   9.035 -0.3386  0.1022  0.2382
  389loPI   C1A 6215  15.831  18.674   8.479 -0.1085 -0.1265 -0.3053
  389loPI   C2A 6216  15.863  18.484   8.080 -0.1132  0.1172 -0.1962
  389loPI   C3A 6217  15.880  18.708   7.755  0.1241 -0.1082  0.2056
  389loPI   C4A 6218  16.227  18.551   7.486  0.3789  0.2559  0.1063
  389loPI   C5A 6219  16.596  18.657   7.226  0.1815  0.2998  0.0185
  389loPI   C6A 6220  16.839  18.539   6.904  0.2340 -0.1459 -0.0807
  389loPI   C1B 6221  15.533  19.076   8.554 -0.0277 -0.1049 -0.0847
  389loPI   C2B 6222  15.575  18.991   8.068 -0.1396  0.5161 -0.0053
  389loPI   C3B 6223  15.443  18.745   7.624 -0.0631 -0.1622  0.1623
  389loPI   C4B 6224  15.236  18.554   7.419  0.1079  0.1221  0.0683
  390loPI    C1 6225  14.589   2.646   9.642  0.1342 -0.0805 -0.1388
  390loPI    C2 6226  14.965   2.510   9.658  0.1231 -0.0698  0.3246
  390loPI    C3 6227  14.659   2.264   9.738  0.0166 -0.1166 -0.1931
  390loPI   PO4 6228  14.565   2.789   9.386 -0.1291 -0.1045  0.2150
  390loPI   GL1 6229  14.743   2.729   9.009  0.4139 -0.0451  0.0121
  390loPI   GL2 6230  14.915   2.435   8.810  0.1822 -0.0268 -0.0401
  390loPI   C1A 6231  14.702   2.898   8.552 -0.0019 -0.0398 -0.2452
  390loPI   C2A 6232  14.637   3.056   8.101  0.3816 -0.2975 -0.2492
  390loPI   C3A 6233  14.391   2.794   7.835 -0.1108  0.1043  0.0280
  390loPI   C4A 6234  14.417   2.717   7.438  0.0841  0.1668  0.2807
  390loPI   C5A 6235  14.459   2.525   6.973 -0.0503  0.0863  0.4143
  390loPI   C6A 6236  14.628   2.564   6.577  0.0675 -0.0851 -0.1633
  390loPI   C1B 6237  14.931   2.503   8.400 -0.2072 -0.3042  0.3241
  390loPI   C2B 6238  14.852   2.634   8.018 -0.2905  0.0018  0.0789
  390loPI   C3B 6239  14.910   2.766   7.647 -0.0884 -0.0579  0.3567
  390loPI   C4B 6240  14.919   2.675   7.132 -0.3496  0.1307 -0.2804
  391loPI    C1 6241   2.091   3.246  10.311  0.2444  0.0122 -0.4150
  391loPI    C2 6242   2.176   2.862  10.382 -0.0769  0.0475  0.2400
  391loPI    C3 6243   2.387   3.150  10.563  0.0648  0.1839 -0.1321
  391loPI   PO4 6244   1.999   3.174  10.012 -0.2284  0.0198  0.0004
  391loPI   GL1 6245   2.061   3.054   9.590  0.0825  0.2069 -0.0976
  391loPI   GL2 6246   1.757   3.307   9.583 -0.3121 -0.2614  0.2801
  391loPI   C1A 6247   2.087   3.161   9.168 -0.0511  0.1920  0.0631
  391loPI   C2A 6248   2.393   3.430   8.929 -0.0188 -0.0915 -0.0837
  391loPI   C3A 6249   2.384   3.533   8.394 -0.0978  0.0590  0.1640
  391loPI   C4A 6250   2.631   3.463   8.049  0.4591 -0.1628  0.0474
  391loPI   C5A 6251   2.560   3.372   7.642  0.3079 -0.0072 -0.5510
  391loPI   C6A 6252   2.319   3.700   7.423 -0.1388 -0.2999  0.0929
  391loPI   C1B 6253   1.607   3.453   9.175  0.3044  0.0932  0.0531
  391loPI   C2B 6254   1.285   3.390   8.891 -0.0856 -0.3577  0.0805
  391loPI   C3B 6255   1.518   3.339   8.507 -0.0450 -0.1889  0.0615
  391loPI   C4B 6256   1.295   3.264   8.136  0.0120  0.0299 -0.0910
  392loPI    C1 6257   5.709  12.202   9.759  0.1108 -0.2088 -0.1380
  392loPI    C2 6258   5.958  12.186  10.072  0.1059  0.0446 -0.1195
  392loPI    C3 6259   5.574  12.083  10.117  0.1798 -0.2384 -0.1217
  392loPI   PO4 6260   5.878  12.455   9.593  0.1142 -0.1112 -0.0566
  392loPI   GL1 6261   5.680  12.540   9.218  0.0294  0.0614  0.2607
  392loPI   GL2 6262   5.830  12.834   9.288 -0.2725  0.1260  0.0364
  392loPI   C1A 6263   5.345  12.587   8.917 -0.1184  0.0594  0.3905
  392loPI   C2A 6264   5.132  12.569   8.548 -0.0672  0.0108 -0.0398
  392loPI   C3A 6265   5.055  12.616   8.126 -0.0540  0.0129  0.3960
  392loPI   C4A 6266   5.174  12.403   7.726  0.0892  0.2050 -0.0047
  392loPI   C5A 6267   5.172  12.347   7.277  0.1079  0.0551  0.0832
  392loPI   C6A 6268   5.433  12.562   7.292 -0.2696  0.0328  0.0074
  392loPI   C1B 6269   5.850  12.817   8.850  0.1610  0.2498  0.0675
  392loPI   C2B 6270   5.993  12.971   8.404  0.3197  0.0830  0.1343
  392loPI   C3B 6271   6.242  13.268   8.191 -0.0882  0.0843 -0.0278
  392loPI   C4B 6272   6.638  13.460   8.254  0.1546 -0.2571 -0.0877
  393loPI    C1 6273  17.441   1.706  10.033 -0.0896 -0.1370 -0.0655
  393loPI    C2 6274  17.067   1.571   9.989 -0.1150 -0.0481 -0.1221
  393loPI    C3 6275  17.270   1.492  10.324 -0.1800 -0.1076 -0.0968
  393loPI   PO4 6276  17.413   1.939  10.002  0.0099  0.1813  0.0752
  393loPI   GL1 6277  17.513   2.272   9.651 -0.2276 -0.0708  0.0271
  393loPI   GL2 6278  17.682   2.573   9.509  0.0155 -0.0821 -0.0134
  393loPI   C1A 6279  17.402   2.224   9.263  0.0812 -0.1749  0.0679
  393loPI   C2A 6280  17.372   2.332   8.898 -0.3300  0.0701  0.0545
  393loPI   C3A 6281  17.641   2.264   8.601 -0.2722 -0.0433  0.2504
  393loPI   C4A 6282  17.739   2.255   8.131 -0.1289  0.0445  0.0308
  393loPI   C5A 6283  18.095   2.260   7.785  0.0704  0.3094  0.0348
  393loPI   C6A 6284  18.243   1.981   7.581 -0.0495 -0.0572 -0.1777
  393loPI   C1B 6285  17.833   2.507   9.066  0.0484 -0.1286 -0.1911
  393loPI   C2B 6286  18.102   2.285   8.782 -0.1787  0.0187 -0.0739
  393loPI   C3B 6287  18.215   2.028   8.273  0.0722 -0.0569 -0.0148
  393loPI   C4B 6288  18.282   1.653   8.012 -0.3228 -0.0771  0.1016
  394loPI    C1 6289   6.283  16.977   9.980  0.0853 -0.0642 -0.2675
  394loPI    C2 6290   6.597  17.136   9.791  0.2618 -0.1608 -0.0597
  394loPI    C3 6291   6.582  17.139  10.191 -0.1103  0.0464 -0.0713
  394loPI   PO4 6292   6.250  16.760   9.757  0.1127 -0.2345 -0.1504
  394loPI   GL1 6293   6.187  16.629   9.295 -0.0627  0.1177 -0.0045
  394loPI   GL2 6294   6.454  16.817   9.237 -0.0816 -0.4022  0.2029
  394loPI   C1A 6295   5.934  16.622   8.877  0.0010 -0.2047 -0.0973
  394loPI   C2A 6296   6.000  16.763   8.460 -0.2046  0.0741  0.1896
  394loPI   C3A 6297   6.317  16.684   8.073 -0.1122  0.3563  0.0506
  394loPI   C4A 6298   6.229  16.926   7.753 -0.3977 -0.0327  0.0117
  394loPI   C5A 6299   6.106  16.958   7.383 -0.1852 -0.1679 -0.0211
  394loPI   C6A 6300   5.898  16.660   7.148 -0.0579  0.0146 -0.1645
  394loPI   C1B 6301   6.374  16.821   8.834 -0.3671 -0.3509  0.0736
  394loPI   C2B 6302   6.570  16.802   8.465  0.1809 -0.0944 -0.0450
  394loPI   C3B 6303   6.706  16.994   8.023  0.1276 -0.3395 -0.2156
  394loPI   C4B 6304   6.650  17.206   7.664 -0.0523  0.2532  0.0102
  395loPI    C1 6305   8.021  17.766   9.949 -0.0610  0.0130  0.0626
  395loPI    C2 6306   8.293  18.015   9.793  0.0973 -0.3152 -0.1978
  395loPI    C3 6307   7.992  18.160  10.014  0.0679  0.1267 -0.5156
  395loPI   PO4 6308   7.845  17.659   9.720 -0.0452 -0.2301 -0.0048
  395loPI   GL1 6309   7.577  17.567   9.413 -0.1644  0.2320 -0.0160
  395loPI   GL2 6310   7.370  17.252   9.521 -0.0380  0.0388 -0.2378
  395loPI   C1A 6311   8.008  17.465   9.117  0.1049 -0.0611  0.0392
  395loPI   C2A 6312   8.114  17.574   8.775  0.0595 -0.1757  0.0288
  395loPI   C3A 6313   8.486  17.479   8.557 -0.2416 -0.1168 -0.0779
  395loPI   C4A 6314   8.680  17.539   8.200 -0.0156  0.0526 -0.0638
  395loPI   C5A 6315   8.612  17.399   7.791 -0.2253  0.2841 -0.1569
  395loPI   C6A 6316   8.294  17.173   7.561 -0.2217 -0.2510 -0.3136
  395loPI   C1B 6317   7.361  17.253   9.076  0.0746 -0.2537 -0.1100
  395loPI   C2B 6318   7.433  16.971   8.714  0.0587 -0.0652 -0.0362
  395loPI   C3B 6319   7.779  16.803   8.487 -0.2245 -0.1669  0.0488
  395loPI   C4B 6320   7.774  16.459   8.232 -0.2487  0.0007  0.0230
  396loPI    C1 6321  16.627   9.183   9.984 -0.0146  0.0449 -0.0363
  396loPI    C2 6322  16.482   9.521  10.140  0.0826  0.1203 -0.1080
  396loPI    C3 6323  16.873   9.489  10.062  0.1507 -0.1729  0.3221
  396loPI   PO4 6324  16.486   9.090   9.752  0.0090  0.1651  0.0685
  396loPI   GL1 6325  16.414   8.818   9.427 -0.0602 -0.4191 -0.1524
  396loPI   GL2 6326  16.605   8.977   9.246  0.3566  0.1464 -0.0891
  396loPI   C1A 6327  16.158   8.820   9.026  0.1171  0.2326 -0.1967
  396loPI   C2A 6328  15.988   8.580   8.720  0.3856 -0.0319  0.0005
  396loPI   C3A 6329  16.023   8.456   8.321  0.1640  0.0379 -0.2816
  396loPI   C4A 6330  16.179   8.373   7.879  0.0905 -0.2393  0.1323
  396loPI   C5A 6331  16.073   8.406   7.549  0.0921 -0.1587  0.1658
  396loPI   C6A 6332  16.062   8.630   7.197  0.0525  0.2184 -0.1171
  396loPI   C1B 6333  16.750   8.900   8.862  0.1102  0.1741 -0.0756
  396loPI   C2B 6334  16.907   9.297   8.532  0.3309 -0.2363 -0.1604
  396loPI   C3B 6335  16.728   9.477   8.133  0.1988  0.1815  0.2585
  396loPI   C4B 6336  16.760   9.733   7.765 -0.0413 -0.1392 -0.0114
  397loPI    C1 6337  13.859   8.252  10.091 -0.3800 -0.0139 -0.2093
  397loPI    C2 6338  13.789   8.602  10.271 -0.0276  0.0075 -0.1055
  397loPI    C3 6339  13.848   8.274  10.491  0.0128 -0.0443 -0.1933
  397loPI   PO4 6340  13.667   8.180   9.871 -0.1544 -0.1365  0.0450
  397loPI   GL1 6341  13.478   8.361   9.472  0.1819 -0.1044  0.1141
  397loPI   GL2 6342  13.679   8.417   9.155  0.4080 -0.1819 -0.3697
  397loPI   C1A 6343  13.242   8.173   9.155  0.0220  0.2058  0.2865
  397loPI   C2A 6344  13.334   8.006   8.684  0.1637  0.1274  0.2541
  397loPI   C3A 6345  13.352   7.939   8.368  0.2477  0.3348 -0.1111
  397loPI   C4A 6346  13.300   8.071   7.963 -0.0344  0.0857  0.1236
  397loPI   C5A 6347  13.128   8.174   7.535  0.0882 -0.0345 -0.2514
  397loPI   C6A 6348  13.416   8.431   7.215  0.0844 -0.1346 -0.0316
  397loPI   C1B 6349  13.538   8.435   8.820 -0.1464  0.2992 -0.6479
  397loPI   C2B 6350  13.651   8.429   8.410 -0.3011  0.1224  0.4215
  397loPI   C3B 6351  13.618   8.748   8.108 -0.3025  0.3709 -0.0293
  397loPI   C4B 6352  13.791   9.072   7.900  0.0877 -0.0360  0.1569
  398loPI    C1 6353   7.194   0.303  10.185 -0.1907 -0.2038  0.2406
  398loPI    C2 6354   7.125   0.612  10.429 -0.0276 -0.0372  0.0789
  398loPI    C3 6355   6.880   0.295  10.433 -0.1697  0.0728  0.2784
  398loPI   PO4 6356   7.219   0.459   9.873  0.0213  0.2985  0.2364
  398loPI   GL1 6357   7.096   0.393   9.385 -0.0024 -0.1376 -0.4914
  398loPI   GL2 6358   6.922   0.137   9.230  0.3676  0.1359  0.3850
  398loPI   C1A 6359   7.255   0.364   8.948  0.0252 -0.1583 -0.0236
  398loPI   C2A 6360   7.613   0.423   8.510 -0.1498  0.4694  0.2135
  398loPI   C3A 6361   7.537   0.305   8.152 -0.0494  0.0769  0.0408
  398loPI   C4A 6362   7.351   0.179   7.726  0.2613 -0.0358 -0.4728
  398loPI   C5A 6363   7.066   0.236   7.424  0.0190 -0.0763  0.0195
  398loPI   C6A 6364   6.902  -0.025   7.110  0.2327  0.0745  0.0192
  398loPI   C1B 6365   7.210  -0.120   8.892 -0.3009  0.2601 -0.2270
  398loPI   C2B 6366   7.298  -0.130   8.508 -0.0701 -0.0968  0.2511
  398loPI   C3B 6367   7.447  -0.251   8.200  0.0568 -0.1189  0.3785
  398loPI   C4B 6368   7.483  -0.382   7.752 -0.1265  0.1086 -0.3083
  399loPI    C1 6369   9.021   1.874   9.892  0.3367  0.3826  0.1337
  399loPI    C2 6370   8.650   1.997   9.976  0.1508  0.0022 -0.1020
  399loPI    C3 6371   8.926   1.983  10.265 -0.0913  0.0333  0.1349
  399loPI   PO4 6372   9.143   2.045   9.658  0.2290  0.1171 -0.2476
  399loPI   GL1 6373   9.337   1.965   9.290 -0.0380 -0.2826  0.1278
  399loPI   GL2 6374   9.063   1.988   9.004 -0.0664  0.3495  0.0020
  399loPI   C1A 6375   9.476   2.308   9.098 -0.1073  0.1548  0.1952
  399loPI   C2A 6376   9.342   2.581   8.883  0.0553  0.2468 -0.0874
  399loPI   C3A 6377   9.139   2.777   8.570 -0.0336  0.1435 -0.2704
  399loPI   C4A 6378   9.071   2.965   8.159  0.0297 -0.2255 -0.1440
  399loPI   C5A 6379   8.882   3.150   7.736  0.4651  0.1444 -0.0759
  399loPI   C6A 6380   9.150   3.196   7.402 -0.1432 -0.3740  0.0127
  399loPI   C1B 6381   8.947   1.814   8.582  0.2528  0.0242 -0.1460
  399loPI   C2B 6382   8.981   1.797   8.181 -0.2010  0.1379  0.3811
  399loPI   C3B 6383   8.636   1.765   7.900 -0.1022 -0.2685 -0.1463
  399loPI   C4B 6384   8.404   1.656   7.486  0.2478  0.1149  0.3523
  400loPI    C1 6385  11.217  18.998   9.734 -0.0295 -0.1279  0.0373
  400loPI    C2 6386  11.383  19.358   9.784 -0.1119 -0.0972  0.0918
  400loPI    C3 6387  11.540  19.100   9.521 -0.0537 -0.0212  0.0513
  400loPI   PO4 6388  11.003  19.082   9.734  0.1204  0.0876 -0.2689
  400loPI   GL1 6389  10.856  19.210   9.401  0.0791 -0.0663 -0.1809
  400loPI   GL2 6390  10.670  18.856   9.362  0.0259 -0.1769 -0.2583
  400loPI   C1A 6391  10.715  19.559   9.241 -0.1090  0.0434  0.2647
  400loPI   C2A 6392  10.463  19.859   8.970 -0.1608  0.1374 -0.1141
  400loPI   C3A 6393  10.391  20.116   8.641 -0.1453  0.0750  0.2215
  400loPI   C4A 6394  10.481  20.128   8.174 -0.1200  0.0718 -0.1702
  400loPI   C5A 6395  10.725  20.324   7.890 -0.3754 -0.0661 -0.0174
  400loPI   C6A 6396  10.605  20.494   7.475  0.2392 -0.1463  0.1149
  400loPI   C1B 6397  11.129  18.931   9.162  0.1115 -0.0909 -0.0330
  400loPI   C2B 6398  11.229  18.985   8.778 -0.0426  0.2886  0.2474
  400loPI   C3B 6399  11.324  18.977   8.350 -0.0125  0.1627  0.2558
  400loPI   C4B 6400  11.671  19.220   8.182  0.2144  0.0806 -0.1291
  401loPI    C1 6401  18.838  15.816   9.715  0.2754  0.1185  0.2352
  401loPI    C2 6402  18.964  15.527   9.962 -0.0440 -0.2679 -0.0406
  401loPI    C3 6403  18.750  15.833  10.105  0.1661 -0.2440  0.2306
  401loPI   PO4 6404  18.792  15.699   9.517 -0.2668  0.0841  0.5068
  401loPI   GL1 6405  18.665  15.662   9.128  0.0735 -0.4078  0.0885
  401loPI   GL2 6406  18.397  15.830   8.978  0.0847  0.0920 -0.1452
  401loPI   C1A 6407  18.936  15.664   8.761 -0.2568  0.0458 -0.0232
  401loPI   C2A 6408  18.833  15.764   8.228 -0.1896  0.0503 -0.1820
  401loPI   C3A 6409  18.847  15.789   7.760  0.0308  0.3017 -0.3115
  401loPI   C4A 6410  18.959  15.790   7.240 -0.0381 -0.0203 -0.1589
  401loPI   C5A 6411  18.720  16.032   6.850 -0.0410 -0.1964  0.1709
  401loPI   C6A 6412  18.293  15.965   6.721  0.0466  0.1806  0.0284
  401loPI   C1B 6413  18.408  15.771   8.529 -0.2179  0.0839  0.0579
  401loPI   C2B 6414  18.322  15.838   8.031  0.1549  0.3498 -0.0260
  401loPI   C3B 6415  18.126  15.818   7.714  0.1214  0.0115  0.3072
  401loPI   C4B 6416  17.756  15.810   7.708 -0.0459 -0.2068  0.1330
  402loPI    C1 6417  10.978  11.513   9.732  0.0976 -0.0656  0.3064
  402loPI    C2 6418  11.174  11.769   9.495 -0.1596 -0.0308  0.1267
  402loPI    C3 6419  11.204  11.802   9.893  0.0445  0.0917  0.1031
  402loPI   PO4 6420  10.779  11.555   9.659  0.4045  0.3435 -0.0136
  402loPI   GL1 6421  10.723  11.586   9.157 -0.3361  0.1159 -0.1558
  402loPI   GL2 6422  10.677  11.893   9.264 -0.2100 -0.2507  0.0738
  402loPI   C1A 6423  11.039  11.739   8.922 -0.3146  0.3083  0.3018
  402loPI   C2A 6424  11.275  11.689   8.557 -0.1123 -0.2208 -0.0547
  402loPI   C3A 6425  11.271  11.685   8.128 -0.0605 -0.0805  0.1691
  402loPI   C4A 6426  11.137  11.579   7.659 -0.2436 -0.1681  0.1411
  402loPI   C5A 6427  11.292  11.353   7.415 -0.1908 -0.1850  0.0695
  402loPI   C6A 6428  11.220  11.401   6.961  0.0884  0.0092  0.3243
  402loPI   C1B 6429  10.513  12.251   8.979 -0.0118 -0.0869  0.1790
  402loPI   C2B 6430  10.350  12.212   8.574 -0.1867 -0.1703 -0.1146
  402loPI   C3B 6431  10.421  12.148   8.167 -0.0062  0.0432 -0.0311
  402loPI   C4B 6432  10.290  12.160   7.780  0.2876 -0.1378 -0.1048
  403loPI    C1 6433   4.500  12.768  10.041 -0.2582  0.1908  0.0477
  403loPI    C2 6434   4.705  12.898  10.358 -0.2061 -0.0880  0.1309
  403loPI    C3 6435   4.376  12.678  10.410 -0.0851 -0.3048 -0.0081
  403loPI   PO4 6436   4.514  12.983   9.784 -0.0830 -0.1439 -0.0935
  403loPI   GL1 6437   4.537  13.007   9.366 -0.1698  0.1511 -0.1798
  403loPI   GL2 6438   4.819  12.860   9.265 -0.2498  0.0957 -0.0428
  403loPI   C1A 6439   4.370  13.063   8.991  0.0122 -0.1629  0.3166
  403loPI   C2A 6440   4.308  13.186   8.479  0.1433 -0.0776 -0.0865
  403loPI   C3A 6441   4.139  13.349   8.059 -0.0374  0.1108  0.1241
  403loPI   C4A 6442   3.806  13.350   7.776  0.1393  0.0294  0.1635
  403loPI   C5A 6443   3.425  13.545   7.749 -0.1690  0.1005  0.2436
  403loPI   C6A 6444   3.301  13.659   7.332 -0.1132  0.1073  0.1001
  403loPI   C1B 6445   4.756  12.813   8.845  0.1464  0.0469  0.1911
  403loPI   C2B 6446   4.792  12.971   8.441  0.0488 -0.2069  0.4515
  403loPI   C3B 6447   4.703  13.302   8.229  0.1021 -0.1023 -0.1495
  403loPI   C4B 6448   4.533  13.521   7.837  0.2151  0.0120  0.2208
  404loPI    C1 6449   3.311  10.567   9.917  0.1382 -0.0447  0.0038
  404loPI    C2 6450   3.426  10.264  10.150 -0.0514 -0.0497  0.0931
  404loPI    C3 6451   3.266  10.591  10.313  0.2520  0.1465  0.0064
  404loPI   PO4 6452   3.474  10.670   9.691 -0.2694  0.0065 -0.2466
  404loPI   GL1 6453   3.351  10.631   9.286  0.1437  0.1099  0.3051
  404loPI   GL2 6454   3.412  10.951   9.293 -0.1279 -0.0971  0.2358
  404loPI   C1A 6455   3.610  10.430   8.873  0.2238 -0.2130  0.4990
  404loPI   C2A 6456   3.505  10.341   8.435 -0.0500 -0.1804  0.2047
  404loPI   C3A 6457   3.420  10.327   8.052  0.0553 -0.1472 -0.0014
  404loPI   C4A 6458   3.062  10.206   7.981  0.2110 -0.0203  0.2407
  404loPI   C5A 6459   2.625  10.152   7.830 -0.2686 -0.2549  0.2665
  404loPI   C6A 6460   2.394  10.172   7.504 -0.2466  0.2560 -0.0645
  404loPI   C1B 6461   3.788  10.895   9.001 -0.2873  0.0270 -0.0176
  404loPI   C2B 6462   3.675  10.865   8.578  0.2566  0.0820 -0.0053
  404loPI   C3B 6463   3.564  10.806   8.199  0.0893  0.0946  0.0942
  404loPI   C4B 6464   3.288  10.787   7.819  0.2354 -0.3514  0.0770
  405loPI    C1 6465  16.137   2.744  10.200  0.0837  0.0967 -0.2651
  405loPI    C2 6466  15.789   2.930  10.136 -0.0545 -0.0022  0.1668
  405loPI    C3 6467  15.801   2.531  10.160  0.0939 -0.0008  0.1257
  405loPI   PO4 6468  16.305   2.873  10.001  0.2447  0.2159  0.0880
  405loPI   GL1 6469  16.182   3.131   9.711  0.1070 -0.0420  0.2278
  405loPI   GL2 6470  16.277   3.415   9.798  0.1464  0.1088  0.1322
  405loPI   C1A 6471  16.159   3.088   9.233 -0.0538  0.0806  0.0952
  405loPI   C2A 6472  16.235   3.162   8.794  0.1776 -0.2983  0.0668
  405loPI   C3A 6473  16.373   3.073   8.431 -0.1779  0.2529  0.1106
  405loPI   C4A 6474  16.382   2.814   8.048 -0.4385  0.2486  0.0578
  405loPI   C5A 6475  16.576   2.797   7.611  0.3124 -0.2576 -0.1477
  405loPI   C6A 6476  16.718   2.741   7.244 -0.4160 -0.0673 -0.1108
  405loPI   C1B 6477  16.532   3.411   9.442 -0.0774  0.0713  0.1214
  405loPI   C2B 6478  16.827   3.739   9.157  0.2355  0.1067 -0.0945
  405loPI   C3B 6479  16.959   4.085   8.940  0.2072  0.1312 -0.0859
  405loPI   C4B 6480  17.025   4.518   8.746 -0.1526 -0.0801 -0.1030
  406loPI    C1 6481  12.748  15.706   9.333  0.1393  0.1516 -0.3265
  406loPI    C2 6482  12.787  15.902   9.679 -0.0663 -0.5640  0.1237
  406loPI    C3 6483  13.091  15.892   9.420  0.0546  0.0665  0.2238
  406loPI   PO4 6484  12.531  15.733   9.126 -0.2229  0.4520  0.0968
  406loPI   GL1 6485  12.568  15.924   8.757 -0.0246 -0.0485  0.0852
  406loPI   GL2 6486  12.397  15.727   8.565  0.2927 -0.0534 -0.1183
  406loPI   C1A 6487  12.850  15.816   8.399 -0.0881 -0.1300 -0.0796
  406loPI   C2A 6488  12.790  15.549   8.047  0.1023 -0.0885 -0.1005
  406loPI   C3A 6489  12.725  15.280   7.864  0.1216 -0.3380  0.0788
  406loPI   C4A 6490  12.898  14.883   7.847 -0.0504 -0.0576  0.0152
  406loPI   C5A 6491  12.633  14.572   7.628  0.0899  0.0923  0.3579
  406loPI   C6A 6492  12.391  14.458   7.302 -0.0223 -0.1432  0.1785
  406loPI   C1B 6493  12.425  15.868   8.176  0.2153  0.1399  0.0166
  406loPI   C2B 6494  12.302  15.841   7.699 -0.0740  0.1536  0.2627
  406loPI   C3B 6495  12.156  15.743   7.280 -0.1041  0.1673  0.4979
  406loPI   C4B 6496  11.724  15.659   7.133  0.1966 -0.3156 -0.0301
  407loPI    C1 6497  11.458   0.330   9.856 -0.2184 -0.1416 -0.1825
  407loPI    C2 6498  11.157   0.219  10.094  0.1625 -0.2801  0.2494
  407loPI    C3 6499  11.270   0.603  10.081  0.1399 -0.2719  0.2909
  407loPI   PO4 6500  11.373   0.302   9.638  0.2140 -0.0693 -0.1966
  407loPI   GL1 6501  11.553   0.115   9.326 -0.1268 -0.1338  0.1362
  407loPI   GL2 6502  11.282  -0.074   9.332 -0.0140  0.0378 -0.0744
  407loPI   C1A 6503  11.628  -0.143   9.031 -0.2092 -0.2507  0.2111
  407loPI   C2A 6504  11.481  -0.139   8.595  0.0627 -0.0597 -0.0518
  407loPI   C3A 6505  11.118   0.036   8.319  0.0910 -0.0928 -0.0302
  407loPI   C4A 6506  10.758   0.050   8.102 -0.0501 -0.0731 -0.0508
  407loPI   C5A 6507  10.750  -0.131   7.665 -0.0011  0.0399 -0.0414
  407loPI   C6A 6508  10.602  -0.208   7.241  0.0326 -0.0635 -0.0346
  407loPI   C1B 6509  11.100  -0.040   8.935  0.0454  0.3045 -0.1121
  407loPI   C2B 6510  10.787   0.098   8.675 -0.1090 -0.0616  0.1064
  407loPI   C3B 6511  10.348   0.098   8.370  0.1670  0.0802 -0.3396
  407loPI   C4B 6512   9.924  -0.087   8.272 -0.0942 -0.0333  0.1832
  408loPI    C1 6513   4.574  18.157   9.626  0.3524  0.0213  0.0014
  408loPI    C2 6514   4.639  18.265  10.006  0.1528 -0.2480  0.1150
  408loPI    C3 6515   4.767  17.910   9.874  0.0479 -0.2385 -0.0144
  408loPI   PO4 6516   4.369  18.241   9.577 -0.1463  0.0409 -0.2345
  408loPI   GL1 6517   4.435  18.577   9.327 -0.0522  0.0068 -0.2543
  408loPI   GL2 6518   4.698  18.458   9.270  0.1695 -0.3619  0.0838
  408loPI   C1A 6519   4.278  18.456   8.960  0.1291 -0.3108  0.0835
  408loPI   C2A 6520   4.305  18.356   8.496 -0.2751 -0.0537 -0.1946
  408loPI   C3A 6521   4.400  18.253   8.153  0.4073 -0.2439 -0.0208
  408loPI   C4A 6522   4.579  18.052   7.872 -0.1002 -0.4548 -0.0364
  408loPI   C5A 6523   4.534  17.965   7.507 -0.0908  0.2317 -0.0834
  408loPI   C6A 6524   4.774  17.738   7.129  0.2164  0.1332 -0.0488
  408loPI   C1B 6525   4.707  18.263   8.835  0.1947  0.1655 -0.2124
  408loPI   C2B 6526   4.833  18.218   8.426  0.3287 -0.1853 -0.0789
  408loPI   C3B 6527   5.014  18.333   8.069 -0.1828  0.2414 -0.3094
  408loPI   C4B 6528   5.310  18.442   7.770 -0.2004 -0.3819  0.1327
  409loPI    C1 6529   2.682   7.340   9.825  0.0794 -0.0228  0.3365
  409loPI    C2 6530   2.388   7.497  10.044  0.0422  0.0401  0.2417
  409loPI    C3 6531   2.766   7.610  10.108 -0.0030  0.3099  0.0495
  409loPI   PO4 6532   2.570   7.258   9.653  0.0271 -0.0718  0.1152
  409loPI   GL1 6533   2.113   7.304   9.587 -0.0153 -0.4223 -0.0220
  409loPI   GL2 6534   2.194   7.484   9.244 -0.2415 -0.3021  0.0771
  409loPI   C1A 6535   1.753   7.141   9.397  0.0087 -0.1188  0.1541
  409loPI   C2A 6536   1.817   7.053   8.974 -0.0682 -0.0244 -0.1567
  409loPI   C3A 6537   1.829   6.985   8.521  0.1059  0.0161  0.1380
  409loPI   C4A 6538   1.723   7.019   8.004 -0.2566 -0.3600 -0.1497
  409loPI   C5A 6539   1.660   7.134   7.589 -0.2493 -0.4726  0.1185
  409loPI   C6A 6540   1.906   7.536   7.320 -0.2219  0.0297 -0.2914
  409loPI   C1B 6541   2.309   7.429   8.818  0.0969 -0.1032 -0.6106
  409loPI   C2B 6542   2.480   7.223   8.393 -0.0151 -0.0650  0.1046
  409loPI   C3B 6543   2.333   7.265   7.954  0.0674  0.5253  0.3010
  409loPI   C4B 6544   2.513   7.454   7.586  0.0675 -0.1812 -0.1904
  410loPI    C1 6545  15.978  14.182   9.871 -0.0015 -0.2149 -0.0440
  410loPI    C2 6546  15.759  14.444  10.079  0.2660 -0.1118  0.1136
  410loPI    C3 6547  15.946  14.146  10.268  0.2550 -0.2048 -0.0209
  410loPI   PO4 6548  16.099  14.326   9.690 -0.2267  0.2014 -0.0926
  410loPI   GL1 6549  16.086  14.332   9.285  0.2538 -0.1067  0.1263
  410loPI   GL2 6550  15.976  14.559   9.090  0.0143  0.0868  0.1413
  410loPI   C1A 6551  16.135  14.086   9.010 -0.0971  0.2218 -0.0346
  410loPI   C2A 6552  16.196  13.937   8.675  0.2546  0.0788  0.1877
  410loPI   C3A 6553  16.022  13.854   8.184 -0.1167 -0.1074  0.2498
  410loPI   C4A 6554  15.758  14.168   7.778  0.0367 -0.1854 -0.1125
  410loPI   C5A 6555  15.734  14.230   7.420  0.1111  0.0843 -0.0596
  410loPI   C6A 6556  15.495  14.184   7.032 -0.0727 -0.1710 -0.3509
  410loPI   C1B 6557  15.833  14.340   8.700 -0.2805  0.3629 -0.1530
  410loPI   C2B 6558  15.560  14.186   8.267  0.0190  0.2048  0.0850
  410loPI   C3B 6559  15.193  14.006   7.882 -0.3545  0.1253  0.1536
  410loPI   C4B 6560  15.124  13.930   7.412  0.1517 -0.0719 -0.1494
  411loPI    C1 6561  18.872   1.031  10.232 -0.1106 -0.0281 -0.1220
  411loPI    C2 6562  18.899   0.633  10.259  0.1884 -0.0107 -0.1362
  411loPI    C3 6563  18.792   0.848  10.579 -0.3282 -0.1265 -0.2215
  411loPI   PO4 6564  19.066   1.064  10.118 -0.3693 -0.1664  0.0641
  411loPI   GL1 6565  19.070   1.207   9.763  0.0423 -0.0369  0.0277
  411loPI   GL2 6566  19.185   1.073   9.567 -0.1571 -0.0890  0.1114
  411loPI   C1A 6567  19.028   1.479   9.368 -0.0799 -0.2411 -0.0170
  411loPI   C2A 6568  19.194   1.524   8.964 -0.1070  0.0866  0.0009
  411loPI   C3A 6569  19.242   1.360   8.556  0.0273  0.2206 -0.2230
  411loPI   C4A 6570  19.247   1.317   8.119  0.2252  0.0350 -0.4064
  411loPI   C5A 6571  19.267   1.379   7.713 -0.1948  0.2097  0.2398
  411loPI   C6A 6572  19.104   1.717   7.440  0.2738  0.2297  0.2856
  411loPI   C1B 6573  19.003   0.994   9.111 -0.0420  0.0453 -0.0705
  411loPI   C2B 6574  18.837   1.001   8.659 -0.1856 -0.1120 -0.0901
  411loPI   C3B 6575  18.663   0.935   8.380  0.0934 -0.1119 -0.0490
  411loPI   C4B 6576  18.407   0.702   8.155 -0.0387 -0.2655 -0.4035
  412loPI    C1 6577   9.315   0.462   9.625 -0.1009 -0.0025 -0.1885
  412loPI    C2 6578   9.587   0.751   9.576 -0.0849 -0.0003 -0.0886
  412loPI    C3 6579   9.703   0.370   9.600 -0.0727  0.0164  0.1401
  412loPI   PO4 6580   9.120   0.519   9.425  0.0222 -0.1838  0.1681
  412loPI   GL1 6581   9.098   0.463   8.985  0.1578  0.1748  0.2528
  412loPI   GL2 6582   8.987   0.788   8.939  0.1576  0.0572 -0.0871
  412loPI   C1A 6583   9.053   0.247   8.624  0.1277 -0.0444  0.1944
  412loPI   C2A 6584   9.088   0.442   8.213 -0.2583 -0.1163  0.1283
  412loPI   C3A 6585   9.306   0.541   7.858  0.1128  0.1773 -0.0126
  412loPI   C4A 6586   9.296   0.605   7.464 -0.0057 -0.1537 -0.1244
  412loPI   C5A 6587   9.449   0.961   7.201 -0.0455 -0.2042 -0.3241
  412loPI   C6A 6588   9.730   1.215   7.201 -0.1410  0.0437 -0.0684
  412loPI   C1B 6589   8.987   0.747   8.553 -0.2061 -0.1517 -0.2176
  412loPI   C2B 6590   8.795   0.929   8.282 -0.2463 -0.0790  0.4110
  412loPI   C3B 6591   8.560   0.825   7.930 -0.3396 -0.1740  0.2436
  412loPI   C4B 6592   8.647   0.631   7.534  0.0778  0.3247 -0.2010
  413loPI    C1 6593  17.810  16.319   9.313  0.0846 -0.2407 -0.1353
  413loPI    C2 6594  17.676  16.334   9.689  0.0046 -0.2205 -0.1643
  413loPI    C3 6595  18.063  16.397   9.612 -0.0514  0.1937 -0.1273
  413loPI   PO4 6596  17.553  16.260   9.231  0.0572  0.1204  0.1826
  413loPI   GL1 6597  17.259  16.065   8.883 -0.2638  0.0111  0.0235
  413loPI   GL2 6598  17.078  16.292   8.910 -0.4081 -0.0087 -0.2026
  413loPI   C1A 6599  17.440  15.815   8.601 -0.0982  0.1432 -0.3934
  413loPI   C2A 6600  17.605  15.661   8.175 -0.0337 -0.0927 -0.1284
  413loPI   C3A 6601  17.932  15.504   8.049 -0.1968  0.1106 -0.1468
  413loPI   C4A 6602  18.068  15.285   7.747 -0.0152  0.1549  0.2655
  413loPI   C5A 6603  18.215  15.017   7.465  0.1104 -0.1098 -0.1330
  413loPI   C6A 6604  18.322  14.712   7.090  0.2619  0.2369  0.0433
  413loPI   C1B 6605  17.074  16.541   8.521 -0.2458  0.3413  0.1385
  413loPI   C2B 6606  17.259  16.869   8.459  0.0748  0.0374 -0.2787
  413loPI   C3B 6607  17.180  17.199   8.328  0.1566  0.1343 -0.0311
  413loPI   C4B 6608  17.004  17.590   8.197  0.0547 -0.2553  0.2472
  414loPI    C1 6609  11.234   5.614   9.742  0.0866 -0.1251 -0.0105
  414loPI    C2 6610  11.327   5.347  10.025 -0.1053 -0.0922  0.0853
  414loPI    C3 6611  11.179   5.704  10.128  0.0523  0.0126 -0.0471
  414loPI   PO4 6612  11.451   5.651   9.605  0.2171  0.0040  0.0538
  414loPI   GL1 6613  11.729   5.579   9.251  0.0479  0.2747  0.0818
  414loPI   GL2 6614  11.727   5.780   9.234 -0.0045  0.5092 -0.0807
  414loPI   C1A 6615  11.709   5.496   8.789 -0.1607 -0.3059 -0.3100
  414loPI   C2A 6616  11.918   5.477   8.487  0.0242 -0.0475  0.1229
  414loPI   C3A 6617  12.048   5.429   8.050  0.1582 -0.0207  0.1456
  414loPI   C4A 6618  12.126   5.523   7.548 -0.2476 -0.1918 -0.2725
  414loPI   C5A 6619  11.996   5.834   7.411  0.2055 -0.3971 -0.2139
  414loPI   C6A 6620  11.883   6.198   7.181  0.1446 -0.0034  0.1264
  414loPI   C1B 6621  11.793   6.004   8.842 -0.0992 -0.1744 -0.0993
  414loPI   C2B 6622  11.992   5.979   8.484  0.2914  0.2236 -0.1874
  414loPI   C3B 6623  12.073   6.009   8.134 -0.0644 -0.2188 -0.0443
  414loPI   C4B 6624  12.344   5.946   7.799 -0.0885 -0.0701 -0.2615
  415loPI    C1 6625  11.300   1.148   9.764 -0.0112 -0.1022 -0.0796
  415loPI    C2 6626  11.677   1.274   9.811 -0.0038 -0.2350  0.2459
  415loPI    C3 6627  11.595   0.882   9.812 -0.1210 -0.2134 -0.0137
  415loPI   PO4 6628  11.178   1.307   9.573  0.2479 -0.1222  0.4554
  415loPI   GL1 6629  11.275   1.278   9.154  0.4955 -0.2299 -0.0923
  415loPI   GL2 6630  11.585   1.219   9.212 -0.0643 -0.1310  0.0375
  415loPI   C1A 6631  11.335   0.914   8.916 -0.1292 -0.0737 -0.2032
  415loPI   C2A 6632  11.337   0.918   8.431  0.1846 -0.0561 -0.1728
  415loPI   C3A 6633  11.246   0.915   8.006 -0.0773  0.2573 -0.0906
  415loPI   C4A 6634  11.118   1.142   7.658  0.0942 -0.1595  0.1029
  415loPI   C5A 6635  10.952   1.383   7.326  0.1752  0.0895  0.1263
  415loPI   C6A 6636  10.925   1.686   7.057  0.0201 -0.1505  0.2100
  415loPI   C1B 6637  11.691   1.168   8.707  0.0204 -0.0808 -0.2044
  415loPI   C2B 6638  12.003   1.121   8.376  0.1468 -0.0361 -0.0677
  415loPI   C3B 6639  12.109   1.119   7.887  0.0173  0.0108 -0.0592
  415loPI   C4B 6640  12.424   1.360   7.676 -0.0373  0.0507 -0.1471
  416loPI    C1 6641   7.498   7.870  10.065 -0.0275 -0.0038  0.0392
  416loPI    C2 6642   7.344   7.740  10.411 -0.4293 -0.0343 -0.1459
  416loPI    C3 6643   7.414   8.130  10.357  0.2728 -0.0957  0.2116
  416loPI   PO4 6644   7.298   7.730   9.875 -0.1880  0.0518  0.0841
  416loPI   GL1 6645   7.537   7.627   9.514 -0.2286  0.1344 -0.0099
  416loPI   GL2 6646   7.557   7.287   9.424 -0.1359 -0.0217 -0.0857
  416loPI   C1A 6647   7.794   7.551   9.097  0.1075  0.1522  0.0772
  416loPI   C2A 6648   7.690   7.507   8.626  0.1253 -0.0819 -0.1063
  416loPI   C3A 6649   7.844   7.699   8.284 -0.2052 -0.1095 -0.2945
  416loPI   C4A 6650   8.009   7.644   7.866  0.0851 -0.0917  0.2007
  416loPI   C5A 6651   7.688   7.785   7.538  0.0064  0.1822  0.1521
  416loPI   C6A 6652   7.289   7.628   7.456 -0.1242  0.1111  0.1864
  416loPI   C1B 6653   7.392   7.089   8.977  0.1055 -0.2361  0.5250
  416loPI   C2B 6654   7.397   7.135   8.482 -0.1904  0.3650 -0.0115
  416loPI   C3B 6655   7.195   7.040   8.104 -0.0017 -0.2998 -0.1920
  416loPI   C4B 6656   7.124   7.156   7.602 -0.1676  0.1480  0.1616
  417loPI    C1 6657  14.648   7.840   9.802 -0.1956  0.1452  0.2818
  417loPI    C2 6658  14.540   7.462   9.874  0.0720  0.0313  0.1007
  417loPI    C3 6659  14.633   7.704  10.178 -0.2338 -0.0048  0.2266
  417loPI   PO4 6660  14.501   7.911   9.673 -0.0006  0.1821  0.5634
  417loPI   GL1 6661  14.252   7.552   9.494 -0.2832 -0.3013  0.0867
  417loPI   GL2 6662  14.547   7.565   9.295 -0.1073 -0.1846  0.0894
  417loPI   C1A 6663  14.003   7.515   9.175 -0.1710  0.2152 -0.2173
  417loPI   C2A 6664  13.977   7.161   8.753 -0.2583 -0.0818  0.1578
  417loPI   C3A 6665  14.247   7.064   8.426  0.0219 -0.0897  0.0204
  417loPI   C4A 6666  14.593   6.927   8.290  0.3631 -0.0912  0.1859
  417loPI   C5A 6667  14.801   7.206   7.977 -0.0615  0.1881 -0.1605
  417loPI   C6A 6668  14.914   7.545   7.758  0.1052  0.0048 -0.0433
  417loPI   C1B 6669  14.337   7.794   8.994  0.1111  0.1703  0.1209
  417loPI   C2B 6670  14.333   7.958   8.509  0.3819 -0.0682  0.2513
  417loPI   C3B 6671  14.298   7.967   8.027 -0.2093 -0.2349 -0.2082
  417loPI   C4B 6672  14.046   7.840   7.711 -0.2743 -0.0018 -0.4152
  418loPI    C1 6673   5.064   2.853   9.911  0.1761 -0.3662 -0.0740
  418loPI    C2 6674   5.313   3.100  10.102  0.0721 -0.1659 -0.1933
  418loPI    C3 6675   4.931   3.073  10.217  0.1079 -0.3503 -0.1147
  418loPI   PO4 6676   5.278   2.757   9.718  0.0948 -0.1870  0.0388
  418loPI   GL1 6677   5.384   2.853   9.312 -0.2536  0.0833  0.0188
  418loPI   GL2 6678   5.774   2.828   9.231  0.1036 -0.0713 -0.0136
  418loPI   C1A 6679   5.412   2.881   8.834  0.1209  0.0573 -0.2022
  418loPI   C2A 6680   5.635   2.778   8.419  0.0433  0.4394 -0.0290
  418loPI   C3A 6681   5.907   2.993   8.070 -0.4306 -0.1635  0.0811
  418loPI   C4A 6682   5.962   3.336   7.696  0.1644  0.3809  0.1408
  418loPI   C5A 6683   5.720   3.538   7.416 -0.1975 -0.0108  0.0170
  418loPI   C6A 6684   5.490   3.578   7.070 -0.0272  0.0115 -0.2991
  418loPI   C1B 6685   5.842   2.608   8.911 -0.0018 -0.1879 -0.0640
  418loPI   C2B 6686   6.116   2.449   8.517 -0.0548  0.5605 -0.0278
  418loPI   C3B 6687   6.287   2.476   8.106  0.2881  0.4568  0.1602
  418loPI   C4B 6688   6.508   2.308   7.775 -0.1145 -0.1047 -0.0869
  419loPI    C1 6689  11.680   9.278   9.937  0.1169  0.1136 -0.2089
  419loPI    C2 6690  11.746   9.671   9.899  0.2515  0.1050 -0.0736
  419loPI    C3 6691  12.021   9.438  10.072  0.0017  0.0150  0.2116
  419loPI   PO4 6692  11.530   9.173   9.741 -0.1835  0.0915  0.2612
  419loPI   GL1 6693  11.333   9.243   9.359 -0.0549  0.0072 -0.2348
  419loPI   GL2 6694  11.063   8.939   9.278  0.1044 -0.0952 -0.2676
  419loPI   C1A 6695  10.980   9.459   9.097  0.1922 -0.0066  0.2751
  419loPI   C2A 6696  10.824   9.468   8.718 -0.2027 -0.2463  0.0579
  419loPI   C3A 6697  10.576   9.425   8.361 -0.1371 -0.0278 -0.2322
  419loPI   C4A 6698  10.657   9.672   8.098 -0.0155  0.1736 -0.2877
  419loPI   C5A 6699  10.742   9.997   8.079 -0.0999 -0.1760  0.2201
  419loPI   C6A 6700  10.858  10.343   7.905  0.1896  0.1505  0.0931
  419loPI   C1B 6701  11.281   9.121   8.845  0.0087 -0.0357  0.0797
  419loPI   C2B 6702  11.310   9.492   8.588 -0.2126  0.0802 -0.0237
  419loPI   C3B 6703  11.175   9.802   8.320 -0.0684  0.1401  0.2635
  419loPI   C4B 6704  11.241  10.237   8.238 -0.0062  0.0006  0.0825
  420loPI    C1 6705   2.381  13.317   9.672 -0.0183 -0.3178 -0.2095
  420loPI    C2 6706   2.654  13.024   9.676  0.1366 -0.1736  0.0755
  420loPI    C3 6707   2.663  13.310   9.956 -0.2116 -0.0771 -0.0073
  420loPI   PO4 6708   2.348  13.345   9.437  0.0889  0.0439 -0.0108
  420loPI   GL1 6709   2.474  13.543   9.039  0.0985  0.0951 -0.3187
  420loPI   GL2 6710   2.657  13.794   9.133  0.1310 -0.0273 -0.2336
  420loPI   C1A 6711   2.588  13.490   8.636  0.1753 -0.1317 -0.1205
  420loPI   C2A 6712   2.509  13.647   8.193  0.0627 -0.3341  0.2127
  420loPI   C3A 6713   2.283  13.765   7.822  0.1992 -0.0399  0.4467
  420loPI   C4A 6714   2.313  14.014   7.466  0.2076 -0.1132  0.1606
  420loPI   C5A 6715   2.482  14.373   7.305  0.2084  0.4159  0.0676
  420loPI   C6A 6716   2.421  14.639   6.907 -0.2172  0.1476 -0.0973
  420loPI   C1B 6717   2.741  14.010   8.746  0.0917 -0.1067  0.1135
  420loPI   C2B 6718   2.785  14.068   8.245 -0.1862 -0.1344 -0.0744
  420loPI   C3B 6719   2.675  14.220   7.819  0.1808 -0.1357  0.1196
  420loPI   C4B 6720   2.975  14.457   7.474 -0.2294 -0.1603 -0.1327
  421loPI    C1 6721   7.497  15.408   9.998  0.1495  0.0472  0.2000
  421loPI    C2 6722   7.534  15.010   9.992 -0.1003  0.0245 -0.0133
  421loPI    C3 6723   7.828  15.236  10.143  0.0975 -0.2332 -0.0058
  421loPI   PO4 6724   7.471  15.551   9.759 -0.1525 -0.2164 -0.1316
  421loPI   GL1 6725   7.369  15.383   9.356  0.0148 -0.2587 -0.1698
  421loPI   GL2 6726   7.070  15.359   9.212  0.1270  0.0873  0.1272
  421loPI   C1A 6727   7.444  15.579   8.971 -0.0074  0.2432 -0.0998
  421loPI   C2A 6728   7.334  15.636   8.521 -0.2089 -0.0366  0.0359
  421loPI   C3A 6729   7.307  15.703   8.114 -0.4256 -0.1228  0.0770
  421loPI   C4A 6730   7.316  15.686   7.758 -0.0455  0.0368  0.1168
  421loPI   C5A 6731   7.290  15.396   7.387 -0.1798  0.1228 -0.0219
  421loPI   C6A 6732   7.424  15.496   6.915  0.0306  0.0481  0.2404
  421loPI   C1B 6733   6.984  15.348   8.714 -0.1152 -0.0589 -0.1695
  421loPI   C2B 6734   6.898  15.377   8.241 -0.2381 -0.1242  0.2197
  421loPI   C3B 6735   6.924  15.450   7.867 -0.1637  0.3094 -0.0877
  421loPI   C4B 6736   6.723  15.418   7.458  0.0677  0.1485  0.0827
  422loPI    C1 6737   4.515   8.210   9.662  0.0127 -0.2059  0.0798
  422loPI    C2 6738   4.777   8.025   9.900 -0.0307 -0.0079  0.2856
  422loPI    C3 6739   4.615   8.372  10.014  0.0280  0.1441 -0.0814
  422loPI   PO4 6740   4.458   8.208   9.450 -0.0555 -0.1500  0.0538
  422loPI   GL1 6741   4.491   8.096   9.173  0.3228  0.2287  0.0435
  422loPI   GL2 6742   4.539   7.714   9.064 -0.1125 -0.1568  0.5120
  422loPI   C1A 6743   4.719   8.119   8.769  0.1148 -0.2118 -0.0875
  422loPI   C2A 6744   4.836   8.366   8.359 -0.3798  0.3395 -0.2392
  422loPI   C3A 6745   4.876   8.678   8.028 -0.5075  0.3040  0.0186
  422loPI   C4A 6746   5.010   8.917   7.698 -0.2244  0.3225  0.0394
  422loPI   C5A 6747   5.129   8.945   7.256 -0.1634 -0.1792  0.0847
  422loPI   C6A 6748   5.311   9.178   6.926 -0.1154  0.0383  0.1457
  422loPI   C1B 6749   4.653   7.617   8.647  0.0737 -0.0708 -0.1368
  422loPI   C2B 6750   4.651   7.529   8.177  0.0435  0.0518  0.0251
  422loPI   C3B 6751   4.527   7.367   7.736 -0.2598 -0.4527 -0.2748
  422loPI   C4B 6752   4.161   7.462   7.382 -0.0079 -0.0190  0.0227
  423loPI    C1 6753  13.660   0.365  10.132  0.0757  0.0868  0.0161
  423loPI    C2 6754  13.963   0.583  10.278  0.1236  0.2780 -0.3576
  423loPI    C3 6755  14.005   0.387   9.931 -0.0160 -0.1025 -0.1658
  423loPI   PO4 6756  13.490   0.562  10.058 -0.3740  0.0698  0.2770
  423loPI   GL1 6757  13.471   0.752   9.715 -0.2115  0.0094  0.0857
  423loPI   GL2 6758  13.412   0.938   9.557 -0.1176  0.0344 -0.2862
  423loPI   C1A 6759  13.192   0.601   9.350  0.1325  0.1634  0.0016
  423loPI   C2A 6760  13.049   0.555   8.898 -0.3525 -0.0068 -0.2083
  423loPI   C3A 6761  12.916   0.612   8.454  0.1844  0.1583 -0.1068
  423loPI   C4A 6762  12.783   0.618   7.917  0.3255  0.2033 -0.0682
  423loPI   C5A 6763  12.859   1.071   7.659  0.0366  0.0898 -0.2142
  423loPI   C6A 6764  12.754   1.400   7.295 -0.0722  0.2219 -0.1945
  423loPI   C1B 6765  13.264   1.177   9.126 -0.1825  0.0214 -0.0190
  423loPI   C2B 6766  13.329   1.070   8.688 -0.0597  0.0048  0.0025
  423loPI   C3B 6767  13.499   1.163   8.240  0.3691 -0.0572 -0.0275
  423loPI   C4B 6768  13.344   1.307   7.854  0.0020  0.2596  0.0835
  424loPI    C1 6769  16.928  15.923   9.533  0.0377 -0.1072 -0.0433
  424loPI    C2 6770  17.054  16.289   9.436 -0.2234  0.0259  0.1067
  424loPI    C3 6771  17.217  16.097   9.747 -0.2290  0.1004  0.1558
  424loPI   PO4 6772  16.872  15.807   9.140  0.1048  0.0803  0.4203
  424loPI   GL1 6773  16.922  15.597   8.729 -0.0934 -0.0554 -0.1931
  424loPI   GL2 6774  16.927  15.222   8.856  0.3569 -0.1582 -0.4185
  424loPI   C1A 6775  17.015  15.622   8.295 -0.0015  0.1834 -0.1113
  424loPI   C2A 6776  16.892  15.638   7.782  0.3423  0.3817 -0.0638
  424loPI   C3A 6777  16.886  15.765   7.404  0.2806 -0.1476 -0.0184
  424loPI   C4A 6778  16.880  16.080   7.134 -0.0841  0.1857  0.0719
  424loPI   C5A 6779  16.746  16.325   6.789  0.1440  0.0918  0.4092
  424loPI   C6A 6780  16.750  16.499   6.355  0.1743  0.1534 -0.0488
  424loPI   C1B 6781  16.914  15.126   8.353 -0.0125 -0.4800  0.1062
  424loPI   C2B 6782  16.836  14.997   8.025  0.2839 -0.1194 -0.0815
  424loPI   C3B 6783  16.925  15.100   7.643 -0.0904 -0.1064  0.1637
  424loPI   C4B 6784  17.047  15.142   7.218 -0.1396 -0.0190  0.1705
  425loPI    C1 6785   4.255   0.920  10.097  0.1578  0.0447  0.1158
  425loPI    C2 6786   3.907   0.954  10.291  0.0640 -0.2140 -0.0027
  425loPI    C3 6787   4.137   1.277  10.236 -0.0634 -0.0773  0.2472
  425loPI   PO4 6788   4.168   0.673   9.955 -0.1139 -0.1884 -0.2063
  425loPI   GL1 6789   4.268   0.541   9.594  0.2337 -0.2042 -0.1151
  425loPI   GL2 6790   4.128   0.306   9.545  0.4260  0.2094 -0.0774
  425loPI   C1A 6791   4.244   0.414   9.088 -0.1744 -0.2087 -0.0024
  425loPI   C2A 6792   4.339   0.485   8.603 -0.2520 -0.0318  0.0562
  425loPI   C3A 6793   4.254   0.461   8.098  0.1062 -0.2975 -0.1331
  425loPI   C4A 6794   4.040   0.374   7.662  0.1185 -0.1214  0.2695
  425loPI   C5A 6795   3.656   0.515   7.504 -0.0849  0.1667 -0.2665
  425loPI   C6A 6796   3.528   0.565   7.039 -0.2029 -0.0366 -0.1020
  425loPI   C1B 6797   3.821   0.208   9.125 -0.0556 -0.1506 -0.3134
  425loPI   C2B 6798   3.902   0.286   8.728  0.2811  0.1139  0.0359
  425loPI   C3B 6799   3.818   0.438   8.261  0.0450  0.2037  0.2422
  425loPI   C4B 6800   3.541   0.583   7.969  0.0473  0.0271 -0.0028
  426loPI    C1 6801  12.662   6.649  10.505 -0.0127  0.1211 -0.3539
  426loPI    C2 6802  12.545   6.978  10.699  0.0961  0.0440 -0.1537
  426loPI    C3 6803  12.441   6.618  10.837  0.3431 -0.0173 -0.1235
  426loPI   PO4 6804  12.650   6.696  10.219 -0.1909  0.1227 -0.0404
  426loPI   GL1 6805  12.923   6.532   9.875 -0.1222  0.1102 -0.4111
  426loPI   GL2 6806  12.787   6.293   9.745  0.0775  0.0874  0.0628
  426loPI   C1A 6807  13.082   6.624   9.558  0.1599 -0.1444 -0.0126
  426loPI   C2A 6808  13.056   6.447   9.137  0.0103 -0.0562  0.0036
  426loPI   C3A 6809  13.345   6.489   8.841  0.3646  0.2183 -0.0059
  426loPI   C4A 6810  13.472   6.416   8.450 -0.0947  0.0382  0.0380
  426loPI   C5A 6811  13.885   6.176   8.324  0.0478  0.2193  0.1861
  426loPI   C6A 6812  14.208   5.787   8.410  0.1725 -0.0675 -0.1849
  426loPI   C1B 6813  12.587   6.473   9.467 -0.0562 -0.2031 -0.5994
  426loPI   C2B 6814  12.559   6.688   9.146 -0.0854 -0.4009  0.1982
  426loPI   C3B 6815  12.647   6.734   8.775 -0.2415 -0.3635  0.0034
  426loPI   C4B 6816  12.582   6.886   8.391 -0.2469 -0.0396  0.1700
  427loPI    C1 6817   7.607   1.123   9.984 -0.2443  0.3974  0.0105
  427loPI    C2 6818   7.820   1.346  10.239  0.1929 -0.0215  0.0264
  427loPI    C3 6819   7.522   1.116  10.375  0.1459  0.0796  0.0962
  427loPI   PO4 6820   7.470   1.298   9.785  0.1485 -0.2674 -0.0957
  427loPI   GL1 6821   7.381   1.320   9.341 -0.2823 -0.1728  0.1006
  427loPI   GL2 6822   7.148   1.414   9.162 -0.2135 -0.0007 -0.0376
  427loPI   C1A 6823   7.508   1.264   8.888  0.0198 -0.0465  0.0591
  427loPI   C2A 6824   7.487   1.113   8.489  0.0860 -0.1373 -0.2945
  427loPI   C3A 6825   7.660   0.892   8.108 -0.2488  0.0804 -0.0585
  427loPI   C4A 6826   7.948   1.018   7.722 -0.1089 -0.2788  0.3575
  427loPI   C5A 6827   8.025   1.399   7.344  0.6391 -0.0152 -0.1457
  427loPI   C6A 6828   7.722   1.504   6.879  0.0131 -0.0668  0.1117
  427loPI   C1B 6829   7.028   1.451   8.755  0.0250 -0.0332  0.0187
  427loPI   C2B 6830   6.689   1.591   8.469  0.0985 -0.0476  0.1397
  427loPI   C3B 6831   6.693   1.395   8.110 -0.0036 -0.1295 -0.3042
  427loPI   C4B 6832   6.730   1.029   7.903  0.0443  0.1850 -0.0118
  428loPI    C1 6833  18.054   0.868  10.112  0.0342  0.0758  0.1745
  428loPI    C2 6834  18.398   0.857  10.316  0.1087  0.0259  0.0476
  428loPI    C3 6835  18.062   0.716  10.482  0.1440  0.0971  0.1811
  428loPI   PO4 6836  18.101   1.080   9.987  0.0468 -0.0554 -0.0135
  428loPI   GL1 6837  18.222   1.222   9.525  0.1015  0.1951 -0.0521
  428loPI   GL2 6838  18.209   0.858   9.536 -0.2545 -0.0529  0.0375
  428loPI   C1A 6839  18.243   1.214   9.162  0.1293  0.0897 -0.0358
  428loPI   C2A 6840  18.362   1.167   8.743  0.1203  0.6019 -0.0406
  428loPI   C3A 6841  18.146   0.834   8.584 -0.1525  0.2413 -0.0336
  428loPI   C4A 6842  17.766   0.696   8.570  0.1473  0.2215  0.0526
  428loPI   C5A 6843  17.444   0.514   8.734 -0.0517 -0.1831  0.2859
  428loPI   C6A 6844  17.159   0.317   8.937 -0.2022 -0.0257  0.2590
  428loPI   C1B 6845  18.505   0.745   9.110 -0.0145 -0.2054  0.1268
  428loPI   C2B 6846  18.581   0.549   8.752  0.2802 -0.0750  0.1193
  428loPI   C3B 6847  18.412   0.300   8.404  0.1361  0.0166 -0.4936
  428loPI   C4B 6848  18.287   0.027   8.175 -0.1139 -0.2441 -0.0747
  429loPI    C1 6849  17.829   8.410   9.859  0.1761 -0.0461  0.1311
  429loPI    C2 6850  17.905   8.802   9.828  0.0325 -0.0402 -0.1736
  429loPI    C3 6851  18.179   8.557   9.986  0.1511  0.1717 -0.0473
  429loPI   PO4 6852  17.683   8.400   9.552 -0.2602 -0.0842 -0.3331
  429loPI   GL1 6853  17.427   8.184   9.287  0.4578  0.1628 -0.1685
  429loPI   GL2 6854  17.051   8.034   9.341  0.2021  0.1742  0.0547
  429loPI   C1A 6855  17.298   8.137   8.823 -0.0448  0.3261  0.2664
  429loPI   C2A 6856  17.428   8.050   8.467 -0.1751 -0.2781  0.1707
  429loPI   C3A 6857  17.357   8.071   8.053  0.0486 -0.0032  0.1389
  429loPI   C4A 6858  17.102   8.172   7.632  0.1555  0.1694 -0.1025
  429loPI   C5A 6859  17.154   8.326   7.215  0.0443 -0.0935 -0.1156
  429loPI   C6A 6860  17.427   8.510   6.925  0.0412 -0.1056 -0.0191
  429loPI   C1B 6861  17.146   7.624   9.075  0.1732  0.3181  0.1118
  429loPI   C2B 6862  17.195   7.622   8.576 -0.0826 -0.0394  0.1812
  429loPI   C3B 6863  17.154   7.562   8.191  0.1024 -0.1239  0.1609
  429loPI   C4B 6864  16.987   7.287   8.001 -0.1003  0.1276  0.2800
  430loPI    C1 6865   2.661   1.734  10.086 -0.1158 -0.1618  0.1095
  430loPI    C2 6866   2.920   1.955  10.296 -0.0532 -0.0245 -0.1097
  430loPI    C3 6867   2.527   2.010  10.342 -0.0384  0.0813 -0.1090
  430loPI   PO4 6868   2.786   1.729   9.895  0.2307 -0.0908 -0.3086
  430loPI   GL1 6869   2.766   1.961   9.448 -0.1783 -0.0822 -0.1755
  430loPI   GL2 6870   2.861   2.225   9.358  0.2034 -0.1042 -0.0959
  430loPI   C1A 6871   2.695   1.945   9.000 -0.0096 -0.3416  0.0688
  430loPI   C2A 6872   2.811   2.098   8.608 -0.2516  0.1806 -0.1280
  430loPI   C3A 6873   2.886   1.836   8.282  0.0387  0.1769 -0.0271
  430loPI   C4A 6874   3.033   1.835   7.859  0.1218  0.0293 -0.2249
  430loPI   C5A 6875   3.265   1.687   7.565  0.0680  0.1069 -0.5214
  430loPI   C6A 6876   3.567   1.611   7.356  0.1036 -0.1637 -0.1224
  430loPI   C1B 6877   2.759   2.497   8.909 -0.0463 -0.1654  0.1992
  430loPI   C2B 6878   3.002   2.573   8.611  0.1657 -0.5330  0.0157
  430loPI   C3B 6879   3.147   2.522   8.223  0.1200 -0.0543 -0.2424
  430loPI   C4B 6880   3.182   2.657   7.901 -0.3348  0.1015  0.0575
  431loPI    C1 6881   6.116   6.217   9.437  0.0326  0.1186 -0.0538
  431loPI    C2 6882   5.861   6.286   9.737  0.0329  0.1050 -0.0505
  431loPI    C3 6883   6.110   6.575   9.616  0.0513  0.1020 -0.0199
  431loPI   PO4 6884   5.970   6.075   9.271  0.1439 -0.2741 -0.2456
  431loPI   GL1 6885   5.982   5.807   8.919 -0.4312  0.0384  0.1270
  431loPI   GL2 6886   5.722   5.633   8.998 -0.0850 -0.1852 -0.0376
  431loPI   C1A 6887   5.747   5.963   8.601  0.1108 -0.0549  0.0450
  431loPI   C2A 6888   5.671   6.171   8.132  0.0154  0.0727  0.0559
  431loPI   C3A 6889   5.599   6.361   7.688  0.2789  0.0462 -0.0361
  431loPI   C4A 6890   5.447   6.472   7.326  0.2781  0.3378  0.0700
  431loPI   C5A 6891   5.352   6.850   7.289  0.0628  0.1059 -0.1749
  431loPI   C6A 6892   5.092   7.195   7.176  0.0201 -0.0375 -0.5154
  431loPI   C1B 6893   5.755   5.488   8.538 -0.2666 -0.1359  0.0322
  431loPI   C2B 6894   5.898   5.665   8.180 -0.0555  0.0544 -0.2933
  431loPI   C3B 6895   5.692   5.825   7.758 -0.2773  0.3358 -0.0451
  431loPI   C4B 6896   5.330   5.967   7.341  0.1061  0.1795  0.4943
  432loPI    C1 6897  16.535  10.264   9.534  0.0705 -0.0746  0.1433
  432loPI    C2 6898  16.401  10.487   9.837  0.0492 -0.2732  0.2822
  432loPI    C3 6899  16.766  10.326   9.854  0.1762 -0.0167  0.0561
  432loPI   PO4 6900  16.434  10.053   9.481 -0.0691  0.0541 -0.1005
  432loPI   GL1 6901  16.205   9.819   9.223 -0.1053  0.0217 -0.0681
  432loPI   GL2 6902  16.187  10.016   8.977 -0.2113 -0.1396 -0.1719
  432loPI   C1A 6903  16.236   9.399   9.028  0.1145  0.3490 -0.0378
  432loPI   C2A 6904  16.320   9.133   8.692 -0.1465 -0.1047 -0.3910
  432loPI   C3A 6905  16.494   8.957   8.344 -0.0769 -0.2139  0.2473
  432loPI   C4A 6906  16.669   8.897   8.045 -0.2850  0.0872  0.0336
  432loPI   C5A 6907  16.710   9.147   7.743 -0.2435  0.3376 -0.0227
  432loPI   C6A 6908  16.725   9.287   7.284  0.3107  0.1584 -0.0124
  432loPI   C1B 6909  15.898   9.815   8.824  0.0072 -0.1166  0.2296
  432loPI   C2B 6910  15.766   9.799   8.442  0.2606  0.2877  0.2077
  432loPI   C3B 6911  15.843   9.822   7.986  0.0653 -0.1803  0.1507
  432loPI   C4B 6912  15.647  10.013   7.607  0.2216  0.1846 -0.1498
  433loPI    C1 6913   5.152  15.726   9.813 -0.1675 -0.0757  0.0774
  433loPI    C2 6914   5.388  15.619  10.117 -0.1838 -0.1447  0.0659
  433loPI    C3 6915   4.995  15.664  10.176 -0.1709 -0.0496  0.0805
  433loPI   PO4 6916   5.222  15.616   9.650 -0.0360  0.3352 -0.0352
  433loPI   GL1 6917   5.316  15.684   9.314 -0.0103 -0.1560  0.2973
  433loPI   GL2 6918   5.270  15.957   9.180  0.0010  0.2455  0.1808
  433loPI   C1A 6919   5.447  15.597   8.837  0.2156  0.0882  0.0538
  433loPI   C2A 6920   5.344  15.564   8.492 -0.1111  0.3774 -0.1267
  433loPI   C3A 6921   5.311  15.634   8.105  0.0127 -0.2447 -0.5021
  433loPI   C4A 6922   5.190  15.698   7.703 -0.1936  0.2412 -0.1665
  433loPI   C5A 6923   5.499  15.845   7.317 -0.0255 -0.4343 -0.0570
  433loPI   C6A 6924   5.826  16.160   7.380 -0.1748 -0.2839  0.0600
  433loPI   C1B 6925   4.983  15.768   8.787 -0.2754  0.0405 -0.2368
  433loPI   C2B 6926   4.802  15.711   8.398 -0.0430 -0.2803  0.0397
  433loPI   C3B 6927   4.828  15.504   7.987  0.3674  0.0164 -0.1887
  433loPI   C4B 6928   5.007  15.286   7.591 -0.0668 -0.3079 -0.0150
  434loPI    C1 6929  11.529  13.910   9.433 -0.3247  0.2027  0.0375
  434loPI    C2 6930  11.645  13.570   9.609 -0.2002  0.0683 -0.2940
  434loPI    C3 6931  11.613  13.906   9.824  0.1558 -0.0416 -0.0601
  434loPI   PO4 6932  11.342  13.818   9.261 -0.0159  0.2767  0.1172
  434loPI   GL1 6933  11.196  13.588   8.950 -0.2823  0.0045  0.1161
  434loPI   GL2 6934  11.495  13.841   8.843 -0.0428  0.1387 -0.0544
  434loPI   C1A 6935  10.850  13.715   8.663 -0.0279  0.0353 -0.1134
  434loPI   C2A 6936  10.797  13.464   8.316  0.0946 -0.1282  0.1845
  434loPI   C3A 6937  10.686  13.414   7.956 -0.3303 -0.1455 -0.1743
  434loPI   C4A 6938  10.871  13.110   7.557 -0.2893  0.0953  0.1634
  434loPI   C5A 6939  11.040  12.563   7.478  0.0860  0.2491 -0.2695
  434loPI   C6A 6940  10.727  12.409   7.329 -0.1690 -0.2142  0.0379
  434loPI   C1B 6941  11.769  13.722   8.458  0.1196 -0.1345  0.3496
  434loPI   C2B 6942  11.696  13.585   8.086  0.2700 -0.0235 -0.2016
  434loPI   C3B 6943  11.433  13.845   7.753 -0.1034  0.2451 -0.2858
  434loPI   C4B 6944  11.109  13.830   7.291 -0.0482  0.0430  0.2365
  435loPI    C1 6945   8.980   6.529   9.541 -0.0526  0.1267 -0.0364
  435loPI    C2 6946   8.773   6.757   9.797 -0.0502 -0.0051  0.0843
  435loPI    C3 6947   8.974   6.926   9.495 -0.1349  0.1432  0.1102
  435loPI   PO4 6948   8.844   6.306   9.357  0.0258  0.2034  0.0002
  435loPI   GL1 6949   8.768   6.459   8.932  0.0695 -0.1146 -0.1808
  435loPI   GL2 6950   8.917   6.762   8.998 -0.1555  0.0855  0.0295
  435loPI   C1A 6951   8.904   6.193   8.689  0.1597  0.0824  0.0590
  435loPI   C2A 6952   8.865   6.093   8.276 -0.1381  0.0871  0.1381
  435loPI   C3A 6953   8.656   6.020   7.819  0.1704 -0.0991 -0.0486
  435loPI   C4A 6954   8.310   5.710   7.496  0.0855  0.1110 -0.1209
  435loPI   C5A 6955   7.980   5.530   7.361  0.0471  0.1188 -0.1342
  435loPI   C6A 6956   7.694   5.489   6.989  0.2734  0.1237  0.0990
  435loPI   C1B 6957   8.622   6.951   8.886  0.0104  0.0229  0.0353
  435loPI   C2B 6958   8.326   6.968   8.538  0.3065 -0.5524  0.1654
  435loPI   C3B 6959   8.106   6.712   8.253 -0.1698 -0.0545 -0.1527
  435loPI   C4B 6960   8.239   6.697   7.834  0.1140 -0.2562  0.0816
  436loPI    C1 6961  18.016  11.810   9.595  0.0200 -0.2444  0.2095
  436loPI    C2 6962  17.825  11.460   9.562 -0.2568 -0.0783  0.0073
  436loPI    C3 6963  17.691  11.737   9.817 -0.1185 -0.0669  0.0685
  436loPI   PO4 6964  18.084  11.923   9.393  0.1199  0.2122  0.0915
  436loPI   GL1 6965  17.885  12.017   8.984  0.1343  0.0124  0.1117
  436loPI   GL2 6966  17.949  12.306   9.114  0.2391 -0.0030  0.0678
  436loPI   C1A 6967  18.246  11.802   8.689 -0.0551  0.1341  0.0894
  436loPI   C2A 6968  18.582  11.758   8.355  0.1360  0.2603 -0.1639
  436loPI   C3A 6969  18.543  11.734   7.875  0.1567 -0.1726 -0.0500
  436loPI   C4A 6970  18.328  11.917   7.549 -0.2128 -0.0577  0.0831
  436loPI   C5A 6971  18.293  12.105   7.053 -0.1431  0.2186 -0.2546
  436loPI   C6A 6972  17.989  12.073   6.875 -0.1214  0.0678  0.0863
  436loPI   C1B 6973  17.973  12.410   8.633 -0.0401  0.0992 -0.1269
  436loPI   C2B 6974  18.011  12.553   8.186 -0.2531 -0.0147 -0.2708
  436loPI   C3B 6975  18.362  12.512   7.880 -0.2329  0.1302  0.2710
  436loPI   C4B 6976  18.427  12.459   7.461  0.4792 -0.0337  0.2161
  437loPI    C1 6977   7.818   2.089   9.767 -0.3628 -0.0169 -0.1767
  437loPI    C2 6978   7.512   2.036  10.019 -0.0467 -0.0509  0.2098
  437loPI    C3 6979   7.739   1.725   9.913 -0.0449  0.0026  0.0545
  437loPI   PO4 6980   7.739   2.135   9.567 -0.2603 -0.1374 -0.0111
  437loPI   GL1 6981   7.570   1.842   9.258  0.1041  0.1305  0.2248
  437loPI   GL2 6982   7.743   1.686   9.131  0.1957 -0.2585 -0.1256
  437loPI   C1A 6983   7.675   2.178   8.934 -0.2055 -0.2954 -0.0335
  437loPI   C2A 6984   7.478   2.327   8.546  0.0081  0.2383 -0.0546
  437loPI   C3A 6985   7.224   2.479   8.303  0.1761  0.2236 -0.2334
  437loPI   C4A 6986   7.163   2.688   7.932 -0.0816  0.1816  0.2645
  437loPI   C5A 6987   7.308   3.071   8.096 -0.1471 -0.1328 -0.0684
  437loPI   C6A 6988   7.526   3.474   8.004 -0.1034 -0.0699  0.1984
  437loPI   C1B 6989   7.439   1.732   8.777 -0.1444  0.0449  0.0094
  437loPI   C2B 6990   7.317   1.592   8.387  0.0115  0.2887  0.2691
  437loPI   C3B 6991   7.176   1.680   7.942 -0.0865  0.1063 -0.0566
  437loPI   C4B 6992   6.949   1.380   7.673 -0.1753  0.1811  0.0009
  438loPI    C1 6993   2.737  13.758   9.679  0.0720  0.1208  0.0377
  438loPI    C2 6994   2.367  13.848   9.557  0.1065  0.2724  0.0435
  438loPI    C3 6995   2.452  13.837   9.948  0.0148 -0.1390  0.0561
  438loPI   PO4 6996   2.871  13.573   9.569 -0.0528  0.1003 -0.0204
  438loPI   GL1 6997   2.835  13.153   9.210 -0.3998  0.1862 -0.0139
  438loPI   GL2 6998   2.620  12.848   9.172 -0.0574 -0.2065  0.4040
  438loPI   C1A 6999   3.025  13.445   8.868  0.0730 -0.1912 -0.1905
  438loPI   C2A 7000   3.033  13.651   8.535  0.3061 -0.1985 -0.1719
  438loPI   C3A 7001   3.275  13.784   8.152 -0.2048  0.0224  0.0584
  438loPI   C4A 7002   3.141  13.989   7.720 -0.0218  0.4699 -0.4163
  438loPI   C5A 7003   3.299  14.110   7.234 -0.2410 -0.1036  0.2724
  438loPI   C6A 7004   3.565  14.021   7.052 -0.3473  0.1717 -0.1753
  438loPI   C1B 7005   2.749  13.037   8.751  0.1193 -0.1849 -0.1898
  438loPI   C2B 7006   2.622  13.158   8.246  0.0996 -0.1591 -0.2273
  438loPI   C3B 7007   2.558  13.235   7.779 -0.1680  0.1037 -0.1744
  438loPI   C4B 7008   2.879  13.115   7.459  0.0846 -0.2086 -0.0165
  439loPI    C1 7009   0.075   9.869   9.527 -0.1515  0.0444 -0.0867
  439loPI    C2 7010  -0.271   9.965   9.703 -0.1022  0.0110  0.0292
  439loPI    C3 7011  -0.047   9.668   9.850 -0.0003  0.0649 -0.0161
  439loPI   PO4 7012   0.208  10.116   9.564  0.1408  0.1424 -0.3486
  439loPI   GL1 7013   0.366  10.292   9.252  0.2804 -0.0732  0.2994
  439loPI   GL2 7014   0.143  10.590   9.240  0.0450 -0.0856  0.0078
  439loPI   C1A 7015   0.516  10.262   8.863 -0.1258  0.2346 -0.0535
  439loPI   C2A 7016   0.682  10.143   8.495  0.3092  0.1845  0.1166
  439loPI   C3A 7017   0.599  10.140   8.149  0.0653 -0.1297  0.1887
  439loPI   C4A 7018   0.392   9.992   7.752 -0.1118 -0.2118 -0.2686
  439loPI   C5A 7019   0.512  10.125   7.326  0.0223  0.1993 -0.2503
  439loPI   C6A 7020   0.509   9.940   6.942 -0.2457  0.0411 -0.1813
  439loPI   C1B 7021   0.204  10.674   8.890  0.1128  0.0086  0.0967
  439loPI   C2B 7022   0.238  10.636   8.439  0.0643 -0.3871  0.1601
  439loPI   C3B 7023   0.022  10.548   8.131 -0.1168  0.0640  0.5645
  439loPI   C4B 7024  -0.322  10.339   8.247  0.0931 -0.1428  0.1379
  440loPI    C1 7025   6.140   2.455   9.954 -0.0231  0.1379 -0.3371
  440loPI    C2 7026   5.821   2.646  10.099  0.1341  0.0864  0.0899
  440loPI    C3 7027   6.132   2.854   9.958  0.0316  0.1379 -0.0629
  440loPI   PO4 7028   6.120   2.352   9.728 -0.1299  0.0019 -0.0579
  440loPI   GL1 7029   6.060   2.194   9.251 -0.1183  0.0045 -0.0122
  440loPI   GL2 7030   6.134   2.458   9.262  0.1122 -0.1342  0.0269
  440loPI   C1A 7031   5.991   2.082   8.804 -0.3731  0.0431 -0.0552
  440loPI   C2A 7032   5.988   1.978   8.327 -0.0377 -0.1617 -0.0221
  440loPI   C3A 7033   5.733   1.873   8.040  0.1933 -0.0565 -0.1749
  440loPI   C4A 7034   5.342   1.782   7.815  0.1457 -0.1142 -0.2960
  440loPI   C5A 7035   5.122   1.934   7.482 -0.0128  0.0991  0.4137
  440loPI   C6A 7036   5.252   2.144   7.076  0.2171  0.0609 -0.2651
  440loPI   C1B 7037   6.499   2.333   8.869  0.1471  0.1779 -0.0930
  440loPI   C2B 7038   6.458   2.064   8.530  0.2462 -0.0743  0.1768
  440loPI   C3B 7039   6.434   1.879   8.172 -0.2238 -0.2214  0.2774
  440loPI   C4B 7040   6.634   1.809   7.778  0.0656 -0.0046 -0.0660
  441loPI    C1 7041   1.762   2.699  10.231  0.2170  0.2248  0.1101
  441loPI    C2 7042   1.386   2.725  10.366  0.1343 -0.0039 -0.0693
  441loPI    C3 7043   1.657   3.000  10.473 -0.0512  0.0919  0.1627
  441loPI   PO4 7044   1.801   2.643   9.954  0.1923  0.0877  0.0764
  441loPI   GL1 7045   1.913   2.517   9.606  0.2545  0.3645 -0.1123
  441loPI   GL2 7046   1.609   2.375   9.532 -0.2814 -0.2119 -0.0022
  441loPI   C1A 7047   1.921   2.529   9.170 -0.2620  0.0222 -0.3373
  441loPI   C2A 7048   1.826   2.404   8.792 -0.0674  0.1834 -0.1662
  441loPI   C3A 7049   1.875   2.308   8.317 -0.0178  0.0292  0.2680
  441loPI   C4A 7050   1.573   2.404   7.929 -0.0173 -0.0809  0.1440
  441loPI   C5A 7051   1.322   2.438   7.455  0.2739  0.1396  0.1905
  441loPI   C6A 7052   1.195   2.878   7.496 -0.0224  0.0042 -0.0348
  441loPI   C1B 7053   1.434   2.333   9.181 -0.5453  0.2324 -0.4355
  441loPI   C2B 7054   1.303   2.444   8.766 -0.0927 -0.2954  0.4488
  441loPI   C3B 7055   1.496   2.643   8.425  0.0417 -0.1989  0.0304
  441loPI   C4B 7056   1.778   2.953   8.096  0.1522  0.0414 -0.2438
  442loPI    C1 7057   5.306  12.996  10.250  0.0357  0.1447  0.2322
  442loPI    C2 7058   5.566  12.896  10.537 -0.1006  0.0343  0.3185
  442loPI    C3 7059   5.178  12.810  10.580 -0.1245  0.0308  0.1076
  442loPI   PO4 7060   5.386  13.073  10.023  0.1091  0.1658  0.0081
  442loPI   GL1 7061   5.466  13.174   9.494 -0.1851 -0.0537 -0.0241
  442loPI   GL2 7062   5.513  13.426   9.366  0.0054 -0.0384  0.0314
  442loPI   C1A 7063   5.408  13.104   9.030  0.1366  0.1254  0.0884
  442loPI   C2A 7064   5.450  12.986   8.590  0.1291 -0.0952 -0.0507
  442loPI   C3A 7065   5.543  12.763   8.239 -0.1147  0.2804 -0.0765
  442loPI   C4A 7066   5.626  12.650   7.732 -0.1632 -0.0874 -0.0944
  442loPI   C5A 7067   5.541  12.188   7.563 -0.1448 -0.0815  0.1245
  442loPI   C6A 7068   5.330  11.842   7.390 -0.0720 -0.4382  0.0125
  442loPI   C1B 7069   5.569  13.547   8.913  0.0202  0.1393  0.2043
  442loPI   C2B 7070   5.420  13.800   8.489 -0.2333  0.0461 -0.0179
  442loPI   C3B 7071   5.489  13.692   8.066 -0.0327 -0.0192  0.1428
  442loPI   C4B 7072   5.026  13.508   7.942 -0.1759 -0.2266  0.0542
  443loPI    C1 7073  10.997   7.021   9.870  0.0105  0.0996  0.1112
  443loPI    C2 7074  10.991   7.419   9.912 -0.2614  0.0993  0.0889
  443loPI    C3 7075  10.803   7.186  10.178  0.3500 -0.0468  0.4115
  443loPI   PO4 7076  11.073   6.945   9.598 -0.2437 -0.1670  0.0219
  443loPI   GL1 7077  11.236   7.086   9.223  0.0052  0.4365 -0.3505
  443loPI   GL2 7078  11.304   7.338   9.183 -0.1924  0.0209  0.1103
  443loPI   C1A 7079  11.336   6.743   9.047 -0.0149 -0.1096 -0.2925
  443loPI   C2A 7080  11.662   6.645   8.703  0.1760 -0.2063  0.0710
  443loPI   C3A 7081  11.958   6.477   8.403 -0.2108  0.3592 -0.0353
  443loPI   C4A 7082  11.962   6.575   7.982  0.1811  0.3642 -0.1896
  443loPI   C5A 7083  11.876   6.859   7.740 -0.1760 -0.0244  0.0538
  443loPI   C6A 7084  11.574   7.092   7.452 -0.0386  0.0202  0.1152
  443loPI   C1B 7085  11.096   7.204   8.746 -0.1448  0.0195  0.1008
  443loPI   C2B 7086  11.298   6.896   8.515 -0.2433  0.1224 -0.0235
  443loPI   C3B 7087  11.552   6.689   8.195  0.3610 -0.0278 -0.0725
  443loPI   C4B 7088  11.452   6.559   7.758 -0.1332 -0.0443  0.1546
  444loPI    C1 7089   0.751  11.779   9.582  0.2177  0.1637  0.0494
  444loPI    C2 7090   0.513  11.630   9.867 -0.0045 -0.0966 -0.2651
  444loPI    C3 7091   0.566  12.026   9.837  0.0054 -0.0655  0.1209
  444loPI   PO4 7092   0.883  11.518   9.491  0.0611 -0.0853  0.1526
  444loPI   GL1 7093   0.848  11.253   9.160  0.2793 -0.1351 -0.0573
  444loPI   GL2 7094   1.175  11.459   9.012 -0.2218  0.2882 -0.2833
  444loPI   C1A 7095   0.770  11.212   8.668 -0.2126 -0.1567  0.1882
  444loPI   C2A 7096   0.545  11.049   8.462 -0.0003  0.4444  0.0158
  444loPI   C3A 7097   0.197  11.007   8.128  0.0749 -0.0745 -0.1858
  444loPI   C4A 7098   0.172  11.014   7.748  0.2217 -0.1280 -0.2491
  444loPI   C5A 7099   0.247  10.926   7.342 -0.0618 -0.3102  0.0309
  444loPI   C6A 7100   0.447  11.135   7.013  0.0100  0.0338  0.4433
  444loPI   C1B 7101   1.311  11.624   8.654 -0.0145  0.3396 -0.2778
  444loPI   C2B 7102   1.433  11.617   8.288  0.0596  0.0945 -0.0485
  444loPI   C3B 7103   1.582  11.648   7.769 -0.2165 -0.1912  0.0010
  444loPI   C4B 7104   1.661  11.318   7.533 -0.1572 -0.0259  0.0180
  445loPI    C1 7105   7.912  16.721  10.151 -0.0016  0.2375  0.0974
  445loPI    C2 7106   7.606  16.971  10.214 -0.2147  0.0581 -0.2005
  445loPI    C3 7107   7.573  16.585  10.315 -0.1903 -0.0189 -0.4777
  445loPI   PO4 7108   8.013  16.766   9.949 -0.3377  0.0030  0.2582
  445loPI   GL1 7109   7.886  16.640   9.491  0.1200 -0.2170  0.0693
  445loPI   GL2 7110   7.588  16.499   9.386 -0.1090  0.3965  0.2071
  445loPI   C1A 7111   7.772  17.036   9.285 -0.3366 -0.1121 -0.0347
  445loPI   C2A 7112   7.927  17.091   8.837  0.4188  0.0496 -0.1158
  445loPI   C3A 7113   8.117  17.175   8.524 -0.0260 -0.2383  0.3892
  445loPI   C4A 7114   8.159  17.331   8.095  0.2837  0.2537  0.0981
  445loPI   C5A 7115   7.875  17.367   7.782  0.0777  0.1472  0.2235
  445loPI   C6A 7116   7.777  17.271   7.320 -0.1724  0.1615 -0.1819
  445loPI   C1B 7117   7.670  16.586   8.962 -0.4099 -0.1844 -0.3378
  445loPI   C2B 7118   7.552  16.383   8.596  0.0742  0.0367 -0.1726
  445loPI   C3B 7119   7.240  16.230   8.206 -0.2985  0.0357  0.0813
  445loPI   C4B 7120   7.192  16.277   7.734 -0.0420 -0.1682  0.1791
  446loPI    C1 7121   2.171  14.935   9.442  0.1195  0.0116 -0.1225
  446loPI    C2 7122   2.264  15.306   9.558 -0.1049 -0.0031  0.1135
  446loPI    C3 7123   2.395  14.992   9.768 -0.0262 -0.0537 -0.0098
  446loPI   PO4 7124   1.949  15.029   9.327  0.2242 -0.0217  0.1456
  446loPI   GL1 7125   1.844  15.296   8.996 -0.1228  0.0510 -0.1022
  446loPI   GL2 7126   1.981  15.461   9.108 -0.0419 -0.2965 -0.0844
  446loPI   C1A 7127   1.826  15.283   8.610 -0.0277  0.2117 -0.2696
  446loPI   C2A 7128   2.035  15.315   8.267  0.0619  0.0971  0.3993
  446loPI   C3A 7129   2.322  15.508   8.024  0.1434  0.1431  0.0923
  446loPI   C4A 7130   2.459  15.778   7.666  0.0200  0.2171  0.0696
  446loPI   C5A 7131   2.441  16.096   7.276 -0.0934 -0.0776  0.0757
  446loPI   C6A 7132   2.190  16.163   7.101  0.0590  0.0808 -0.2427
  446loPI   C1B 7133   2.187  15.594   8.686 -0.0254  0.1657  0.1729
  446loPI   C2B 7134   1.999  15.828   8.310  0.2681  0.2157  0.0151
  446loPI   C3B 7135   2.112  16.215   8.018  0.1268 -0.2530  0.1894
  446loPI   C4B 7136   1.771  16.456   7.862  0.2283 -0.0526  0.1537
  447loPI    C1 7137  18.863  19.100  10.128  0.1704  0.1303 -0.0379
  447loPI    C2 7138  19.204  18.958   9.974  0.1899  0.2791 -0.1342
  447loPI    C3 7139  19.013  18.754  10.261  0.2980  0.1372 -0.1622
  447loPI   PO4 7140  18.773  19.197   9.927 -0.0491  0.0013 -0.2200
  447loPI   GL1 7141  18.788  19.300   9.525  0.1741 -0.0994 -0.1295
  447loPI   GL2 7142  18.838  18.986   9.360 -0.2054 -0.1344  0.1700
  447loPI   C1A 7143  18.951  19.516   9.224  0.1443  0.0364  0.1219
  447loPI   C2A 7144  18.834  19.686   8.787  0.2679  0.0085  0.0041
  447loPI   C3A 7145  18.787  19.452   8.339 -0.4125 -0.4407 -0.2774
  447loPI   C4A 7146  18.554  19.097   8.083 -0.0429  0.1960  0.0852
  447loPI   C5A 7147  18.230  18.727   7.825 -0.4784  0.1753 -0.0320
  447loPI   C6A 7148  17.991  18.632   7.511  0.3589  0.2899 -0.2217
  447loPI   C1B 7149  19.061  19.075   8.958  0.1542 -0.2951 -0.2145
  447loPI   C2B 7150  19.187  19.328   8.559  0.1965  0.2841 -0.0448
  447loPI   C3B 7151  19.284  19.704   8.926 -0.1873  0.1063  0.1608
  447loPI   C4B 7152  19.551  20.013   8.926  0.1812 -0.0934  0.0285
  448loPI    C1 7153  12.570   3.562   9.735  0.0622  0.0472 -0.2066
  448loPI    C2 7154  12.854   3.373   9.525  0.1212 -0.1472  0.0432
  448loPI    C3 7155  12.956   3.644   9.801  0.0588 -0.1386  0.0580
  448loPI   PO4 7156  12.390   3.297   9.689 -0.0135 -0.2116  0.0032
  448loPI   GL1 7157  12.433   3.037   9.456  0.1606 -0.0121 -0.1907
  448loPI   GL2 7158  12.623   2.841   9.400  0.0112  0.3975  0.1024
  448loPI   C1A 7159  12.365   2.933   9.049  0.3706 -0.0247  0.0426
  448loPI   C2A 7160  12.463   2.816   8.598  0.4893  0.1459  0.1883
  448loPI   C3A 7161  12.722   2.546   8.497 -0.1343  0.0584  0.3325
  448loPI   C4A 7162  13.046   2.450   8.342 -0.0943  0.0602  0.0263
  448loPI   C5A 7163  13.107   2.145   8.081 -0.3627 -0.1036 -0.0375
  448loPI   C6A 7164  13.491   2.017   7.865 -0.1494  0.5379  0.1059
  448loPI   C1B 7165  12.811   2.500   9.092 -0.1386  0.0039  0.2094
  448loPI   C2B 7166  13.163   2.339   8.802  0.0468  0.3269  0.2364
  448loPI   C3B 7167  13.516   2.530   8.621 -0.2795 -0.0575 -0.1280
  448loPI   C4B 7168  13.885   2.591   8.377  0.3752  0.2977 -0.0981
  449loPI    C1 7169  14.803   3.776   9.931 -0.0782  0.0561  0.0564
  449loPI    C2 7170  14.573   3.504  10.113  0.0419 -0.0494  0.0511
  449loPI    C3 7171  14.939   3.584  10.254  0.2053 -0.2590 -0.2426
  449loPI   PO4 7172  14.678   3.697   9.638 -0.0752  0.1680 -0.1845
  449loPI   GL1 7173  14.483   3.631   9.201 -0.2594  0.0562 -0.0717
  449loPI   GL2 7174  14.216   3.889   9.333  0.1065  0.0381 -0.0972
  449loPI   C1A 7175  14.682   3.803   8.844  0.0205  0.2327 -0.0578
  449loPI   C2A 7176  14.766   3.950   8.352 -0.0250  0.2519 -0.0978
  449loPI   C3A 7177  14.756   4.126   7.882  0.1323  0.0895 -0.0532
  449loPI   C4A 7178  15.129   4.233   7.690 -0.1831 -0.2541 -0.1638
  449loPI   C5A 7179  15.284   4.634   7.607  0.1535  0.2013  0.1307
  449loPI   C6A 7180  15.100   5.128   7.548  0.0715  0.2573  0.2798
  449loPI   C1B 7181  14.219   4.011   8.872  0.0266 -0.0912 -0.0792
  449loPI   C2B 7182  14.223   3.958   8.550  0.0514  0.3252  0.3028
  449loPI   C3B 7183  14.337   3.894   8.080  0.1701 -0.0007  0.0572
  449loPI   C4B 7184  14.247   4.098   7.664  0.2113  0.2914  0.2285
  450loPI    C1 7185  17.605   0.914   9.806 -0.3673 -0.0450 -0.0619
  450loPI    C2 7186  17.613   0.652  10.108  0.0945 -0.0684 -0.0875
  450loPI    C3 7187  17.550   1.040  10.182 -0.1693 -0.1247 -0.0050
  450loPI   PO4 7188  17.713   0.763   9.608 -0.3300 -0.0232 -0.1616
  450loPI   GL1 7189  17.509   1.016   9.231 -0.0389 -0.0155 -0.0060
  450loPI   GL2 7190  17.737   1.255   9.378  0.0737  0.0078 -0.0732
  450loPI   C1A 7191  17.390   1.115   8.900  0.3222 -0.1601  0.1931
  450loPI   C2A 7192  17.352   1.364   8.545  0.0574 -0.2326  0.5876
  450loPI   C3A 7193  17.085   1.388   8.121 -0.0693 -0.0890 -0.0604
  450loPI   C4A 7194  17.202   1.549   7.710  0.0624 -0.0450  0.0047
  450loPI   C5A 7195  17.489   1.572   7.441 -0.0936 -0.2122  0.4223
  450loPI   C6A 7196  17.562   1.781   7.126 -0.2141 -0.0502  0.4007
  450loPI   C1B 7197  17.801   1.367   9.063  0.2350 -0.0526 -0.1049
  450loPI   C2B 7198  17.820   1.230   8.711 -0.0701 -0.2990  0.1737
  450loPI   C3B 7199  17.718   1.134   8.284  0.1182 -0.0859  0.2318
  450loPI   C4B 7200  17.591   1.298   7.862 -0.0758 -0.0447 -0.0879
  451loPI    C1 7201  16.059   6.060   9.979  0.0770  0.0656  0.2864
  451loPI    C2 7202  15.992   6.186  10.353  0.2884  0.1220  0.3063
  451loPI    C3 7203  16.245   5.884  10.286  0.0004 -0.1083  0.2344
  451loPI   PO4 7204  16.176   6.280   9.776 -0.0932  0.0763 -0.1687
  451loPI   GL1 7205  16.069   6.375   9.354 -0.0561  0.0204 -0.2270
  451loPI   GL2 7206  15.881   6.118   9.263 -0.1523  0.2011  0.1291
  451loPI   C1A 7207  16.200   6.618   8.997 -0.1752 -0.2198 -0.1569
  451loPI   C2A 7208  16.596   6.744   8.794 -0.2708  0.0496  0.1763
  451loPI   C3A 7209  16.820   6.568   8.535 -0.1074 -0.1228  0.1843
  451loPI   C4A 7210  16.987   6.466   8.230 -0.0904  0.2055  0.1417
  451loPI   C5A 7211  16.938   6.410   7.837 -0.1258  0.6652 -0.1173
  451loPI   C6A 7212  16.989   6.338   7.375  0.1299 -0.0679  0.2534
  451loPI   C1B 7213  15.923   6.195   8.857  0.1655 -0.0690  0.4019
  451loPI   C2B 7214  15.775   6.064   8.453  0.1145  0.0431 -0.2976
  451loPI   C3B 7215  15.571   5.934   8.112 -0.0859  0.0430 -0.0917
  451loPI   C4B 7216  15.779   5.812   7.738 -0.1834  0.0556 -0.0141
  452loPI    C1 7217   5.005  16.485   9.903  0.0564  0.4401  0.2891
  452loPI    C2 7218   5.232  16.208  10.080  0.1503  0.1922 -0.2025
  452loPI    C3 7219   4.845  16.134  10.010  0.1728  0.1886 -0.3240
  452loPI   PO4 7220   5.154  16.493   9.604 -0.1552  0.2096  0.1618
  452loPI   GL1 7221   5.171  16.469   9.229  0.0782  0.0712  0.1512
  452loPI   GL2 7222   5.090  16.776   9.197  0.1697 -0.1369 -0.2723
  452loPI   C1A 7223   5.206  16.314   8.837  0.1477  0.0812 -0.1944
  452loPI   C2A 7224   5.132  16.088   8.427 -0.0868  0.3692  0.0307
  452loPI   C3A 7225   4.921  16.052   7.978  0.0626 -0.0761 -0.2450
  452loPI   C4A 7226   4.555  16.267   7.717 -0.3975 -0.1083  0.3496
  452loPI   C5A 7227   4.463  16.475   7.486  0.1267  0.1271  0.0473
  452loPI   C6A 7228   4.530  16.889   7.398 -0.3211 -0.0509  0.3854
  452loPI   C1B 7229   5.470  16.766   8.897 -0.1263  0.2601 -0.1667
  452loPI   C2B 7230   5.510  16.524   8.482 -0.0240  0.1238  0.0962
  452loPI   C3B 7231   5.507  16.214   8.128  0.0764 -0.1993  0.2874
  452loPI   C4B 7232   5.422  16.177   7.680  0.1796  0.0037 -0.2098
  453loPI    C1 7233   5.689  13.474   9.844 -0.0797  0.0505  0.0550
  453loPI    C2 7234   5.295  13.535   9.811 -0.1167 -0.2424 -0.0711
  453loPI    C3 7235   5.464  13.511  10.173 -0.1589  0.2082 -0.0155
  453loPI   PO4 7236   5.751  13.642   9.715 -0.1046  0.1248  0.0934
  453loPI   GL1 7237   5.807  13.887   9.327 -0.2476 -0.1051  0.3066
  453loPI   GL2 7238   5.592  14.004   9.117  0.1021 -0.2780  0.1875
  453loPI   C1A 7239   6.043  13.801   8.913  0.0518 -0.0348 -0.4220
  453loPI   C2A 7240   6.120  13.720   8.422  0.1111  0.0143 -0.2641
  453loPI   C3A 7241   6.004  13.748   8.009 -0.1757  0.2307  0.3030
  453loPI   C4A 7242   5.802  13.609   7.651  0.2509 -0.1242  0.1830
  453loPI   C5A 7243   5.793  13.265   7.288  0.1701 -0.0073  0.2532
  453loPI   C6A 7244   5.890  12.818   7.094  0.0622 -0.0909  0.0097
  453loPI   C1B 7245   5.309  14.112   8.851  0.0001  0.0237 -0.0174
  453loPI   C2B 7246   5.298  14.297   8.387  0.0695  0.0907 -0.2895
  453loPI   C3B 7247   5.300  14.539   7.996 -0.1566 -0.1713 -0.2317
  453loPI   C4B 7248   5.257  14.633   7.611  0.2089 -0.0884  0.4303
  454loPI    C1 7249   3.091  15.411   9.621  0.2099  0.0799  0.0017
  454loPI    C2 7250   2.754  15.361   9.830  0.2361  0.0710  0.0420
  454loPI    C3 7251   2.780  15.222   9.456  0.1478  0.1910 -0.0096
  454loPI   PO4 7252   3.170  15.603   9.619 -0.0238  0.1528 -0.0700
  454loPI   GL1 7253   3.328  15.689   9.170 -0.1465 -0.1672 -0.1641
  454loPI   GL2 7254   3.592  15.550   9.017 -0.1060  0.0752 -0.1189
  454loPI   C1A 7255   3.078  15.525   8.888 -0.0810  0.0720  0.2348
  454loPI   C2A 7256   3.083  15.370   8.455 -0.1698  0.0036 -0.0688
  454loPI   C3A 7257   3.016  15.300   7.984 -0.0973  0.0884  0.0540
  454loPI   C4A 7258   2.795  15.371   7.624 -0.3673 -0.0747  0.1093
  454loPI   C5A 7259   2.840  15.754   7.312 -0.2899 -0.1067 -0.0644
  454loPI   C6A 7260   2.929  16.202   7.343 -0.1335 -0.0453 -0.0743
  454loPI   C1B 7261   3.977  15.573   8.692  0.0403  0.0918 -0.0398
  454loPI   C2B 7262   3.948  15.512   8.259 -0.0321  0.0208 -0.0807
  454loPI   C3B 7263   3.613  15.594   8.047  0.2386 -0.1744  0.0837
  454loPI   C4B 7264   3.409  15.978   8.127 -0.1539 -0.0588 -0.0244
  455loPI    C1 7265   1.847   6.243  10.079 -0.1703  0.0867  0.0570
  455loPI    C2 7266   1.970   6.270  10.458  0.1037 -0.1599 -0.0112
  455loPI    C3 7267   2.004   6.584  10.214  0.0489 -0.0419  0.1316
  455loPI   PO4 7268   2.022   6.061   9.893 -0.2749  0.2742 -0.0932
  455loPI   GL1 7269   1.976   5.793   9.581 -0.0298 -0.0575  0.0874
  455loPI   GL2 7270   2.152   5.556   9.482  0.2391  0.2811  0.2340
  455loPI   C1A 7271   1.932   5.906   9.138  0.0780 -0.0730 -0.0907
  455loPI   C2A 7272   1.866   5.780   8.736  0.0302 -0.1599  0.1498
  455loPI   C3A 7273   1.829   6.040   8.438 -0.0457  0.0521  0.2478
  455loPI   C4A 7274   1.555   6.132   8.081  0.2128 -0.1249  0.0515
  455loPI   C5A 7275   1.198   6.201   7.920 -0.1065 -0.1868  0.2319
  455loPI   C6A 7276   0.868   5.990   7.853  0.0320  0.1134 -0.0463
  455loPI   C1B 7277   2.146   5.260   9.203  0.1144 -0.2107 -0.1628
  455loPI   C2B 7278   2.008   5.278   8.826 -0.2817  0.0393  0.0025
  455loPI   C3B 7279   1.764   5.238   8.493  0.1865  0.2221  0.1490
  455loPI   C4B 7280   1.289   5.252   8.299 -0.1096  0.0787  0.0062
  456loPI    C1 7281   3.284   8.840  10.131  0.1395  0.1305 -0.0291
  456loPI    C2 7282   3.026   8.929  10.423  0.2005 -0.1443  0.1113
  456loPI    C3 7283   3.415   9.008  10.470  0.1617  0.1577 -0.0510
  456loPI   PO4 7284   3.158   8.916   9.863  0.1823  0.4580  0.1890
  456loPI   GL1 7285   3.195   8.686   9.485 -0.1121  0.1133  0.1359
  456loPI   GL2 7286   3.378   9.061   9.459 -0.2913  0.1959 -0.0618
  456loPI   C1A 7287   3.088   8.610   8.990 -0.1324  0.3108 -0.0384
  456loPI   C2A 7288   3.073   8.385   8.630 -0.0226 -0.0532  0.0038
  456loPI   C3A 7289   3.499   8.184   8.431  0.0143 -0.1431 -0.0331
  456loPI   C4A 7290   3.599   8.052   7.976  0.1204  0.1409 -0.3363
  456loPI   C5A 7291   3.870   7.925   7.671 -0.0623  0.0709  0.2891
  456loPI   C6A 7292   4.341   7.886   7.666 -0.0052  0.0465 -0.0490
  456loPI   C1B 7293   3.211   9.049   9.067 -0.3309  0.2321  0.0637
  456loPI   C2B 7294   3.123   8.965   8.664 -0.0255 -0.0057  0.2915
  456loPI   C3B 7295   3.204   8.865   8.306  0.2290 -0.0157 -0.3365
  456loPI   C4B 7296   3.251   8.538   8.067 -0.1423  0.0391 -0.2031
  457loPI    C1 7297   6.587   7.927   9.793 -0.0972 -0.1545  0.1301
  457loPI    C2 7298   6.509   7.763  10.149 -0.2341 -0.2072  0.0764
  457loPI    C3 7299   6.816   7.630   9.931 -0.0713 -0.0887  0.2302
  457loPI   PO4 7300   6.397   7.983   9.696 -0.1010  0.1448 -0.1300
  457loPI   GL1 7301   6.359   8.051   9.288  0.1937 -0.0531 -0.0858
  457loPI   GL2 7302   6.347   7.788   9.221  0.0647  0.2603 -0.1084
  457loPI   C1A 7303   6.550   8.092   8.884  0.0725  0.5196 -0.0345
  457loPI   C2A 7304   6.518   8.209   8.509 -0.2332  0.0477  0.0546
  457loPI   C3A 7305   6.423   8.112   8.102  0.0675 -0.2326  0.4058
  457loPI   C4A 7306   6.249   8.090   7.726 -0.1042 -0.1059  0.1981
  457loPI   C5A 7307   6.528   8.111   7.408  0.2402  0.3355 -0.4684
  457loPI   C6A 7308   6.562   8.070   7.009 -0.1252  0.3486  0.0588
  457loPI   C1B 7309   6.483   7.334   9.107  0.0473 -0.2549  0.0965
  457loPI   C2B 7310   6.458   7.263   8.612 -0.1112  0.2562 -0.3336
  457loPI   C3B 7311   6.475   7.118   8.272 -0.2488  0.5148 -0.1069
  457loPI   C4B 7312   6.758   7.126   7.893  0.3502 -0.2344  0.0254
  458loPI    C1 7313  16.029   9.326   9.808  0.1486  0.0932 -0.0853
  458loPI    C2 7314  15.950   9.564  10.120  0.2608  0.2566 -0.1805
  458loPI    C3 7315  16.072   9.189  10.181  0.1275  0.2374 -0.0292
  458loPI   PO4 7316  15.868   9.255   9.649 -0.0141  0.0227  0.1980
  458loPI   GL1 7317  15.804   9.271   9.241  0.2088  0.2571 -0.2148
  458loPI   GL2 7318  15.720   9.614   9.328 -0.1028  0.0631 -0.2151
  458loPI   C1A 7319  15.707   9.121   8.781  0.0780  0.2303  0.1440
  458loPI   C2A 7320  15.842   9.179   8.374 -0.0393 -0.1897 -0.0701
  458loPI   C3A 7321  15.759   9.223   7.915  0.1313  0.1783 -0.0578
  458loPI   C4A 7322  15.479   9.414   7.564 -0.0036  0.1656  0.0809
  458loPI   C5A 7323  15.457   9.551   7.152  0.3451 -0.0184  0.0151
  458loPI   C6A 7324  15.121   9.794   7.005 -0.2101  0.2171 -0.2678
  458loPI   C1B 7325  15.470   9.609   8.985 -0.0223 -0.0507  0.3546
  458loPI   C2B 7326  15.359   9.488   8.564  0.2147  0.3509 -0.1685
  458loPI   C3B 7327  15.353   9.145   8.301 -0.0585  0.3465 -0.0994
  458loPI   C4B 7328  15.140   8.780   8.187  0.2171  0.2495 -0.0138
  459loPI    C1 7329  18.480  15.009   9.453  0.2610 -0.0450  0.0266
  459loPI    C2 7330  18.303  14.841   9.770  0.0341 -0.0229 -0.0862
  459loPI    C3 7331  18.361  14.627   9.437  0.1376 -0.0027 -0.0817
  459loPI   PO4 7332  18.359  15.266   9.307  0.1589  0.3073 -0.1470
  459loPI   GL1 7333  18.191  15.356   8.871  0.0594 -0.0580  0.1634
  459loPI   GL2 7334  18.477  15.266   8.841  0.1153 -0.0092 -0.0225
  459loPI   C1A 7335  17.960  15.456   8.560 -0.0178  0.0713  0.1207
  459loPI   C2A 7336  17.957  15.941   8.554  0.0248  0.2583 -0.3030
  459loPI   C3A 7337  17.860  16.132   8.260 -0.0860  0.0488  0.1301
  459loPI   C4A 7338  17.622  16.262   7.902 -0.4481  0.2850 -0.0487
  459loPI   C5A 7339  17.523  16.601   7.573 -0.2068 -0.3581 -0.1681
  459loPI   C6A 7340  17.274  16.889   7.386  0.2341 -0.2926 -0.0145
  459loPI   C1B 7341  18.730  15.293   8.423  0.0001  0.0470  0.3037
  459loPI   C2B 7342  18.760  15.358   8.026  0.2039  0.0689 -0.3312
  459loPI   C3B 7343  18.481  15.486   7.628  0.1177 -0.4682  0.1737
  459loPI   C4B 7344  18.408  15.580   7.151  0.2152 -0.1847  0.4207
  460loPI    C1 7345   4.261  15.997   9.490 -0.0960 -0.2383 -0.0215
  460loPI    C2 7346   4.236  15.601   9.440 -0.1810 -0.1968 -0.3261
  460loPI    C3 7347   3.951  15.840   9.291 -0.1788 -0.0263 -0.0631
  460loPI   PO4 7348   4.523  16.074   9.330 -0.0239 -0.2770  0.0002
  460loPI   GL1 7349   4.803  16.131   9.027  0.0512  0.0151  0.0143
  460loPI   GL2 7350   4.683  16.496   9.045 -0.3403  0.1216 -0.3150
  460loPI   C1A 7351   4.597  16.085   8.611 -0.0916  0.4819  0.0469
  460loPI   C2A 7352   4.308  15.870   8.373 -0.3816 -0.1734  0.1146
  460loPI   C3A 7353   4.279  15.656   7.899 -0.1286 -0.2090  0.0665
  460loPI   C4A 7354   4.645  15.699   7.593 -0.1122  0.1145  0.1686
  460loPI   C5A 7355   4.917  15.630   7.299  0.0133 -0.2101  0.0621
  460loPI   C6A 7356   4.997  15.489   6.906  0.3133 -0.1989  0.2435
  460loPI   C1B 7357   4.787  16.558   8.713 -0.0191 -0.2437 -0.2035
  460loPI   C2B 7358   4.816  16.452   8.284  0.0558  0.2601 -0.2710
  460loPI   C3B 7359   5.139  16.629   7.996  0.1645 -0.1638  0.0823
  460loPI   C4B 7360   4.995  16.623   7.625  0.4845  0.0938 -0.2881
  461loPI    C1 7361   8.928  11.018  10.129  0.0142  0.2236 -0.3086
  461loPI    C2 7362   9.076  11.076  10.497 -0.0701 -0.0555 -0.2281
  461loPI    C3 7363   8.752  11.278  10.377 -0.1377 -0.0813 -0.0904
  461loPI   PO4 7364   8.829  10.741  10.092  0.1180 -0.0615  0.1926
  461loPI   GL1 7365   8.848  10.583   9.656  0.0795 -0.1168 -0.1294
  461loPI   GL2 7366   8.687  10.291   9.754 -0.1307  0.0884 -0.2575
  461loPI   C1A 7367   9.041  10.767   9.286  0.0578 -0.2531  0.0548
  461loPI   C2A 7368   9.055  10.616   8.927 -0.2318  0.0912 -0.2000
  461loPI   C3A 7369   9.201  10.641   8.543  0.1281  0.4084 -0.0619
  461loPI   C4A 7370   9.382  10.620   8.054  0.2047  0.0799  0.2507
  461loPI   C5A 7371   9.598  10.405   7.819 -0.0173 -0.0482 -0.1691
  461loPI   C6A 7372   9.884  10.301   7.492  0.0508  0.2675 -0.2309
  461loPI   C1B 7373   8.690  10.258   9.226 -0.0913  0.2323  0.1231
  461loPI   C2B 7374   8.545  10.318   8.819  0.0508  0.0113  0.2655
  461loPI   C3B 7375   8.389  10.258   8.361 -0.2701 -0.0277  0.0471
  461loPI   C4B 7376   8.335  10.340   7.925  0.1103 -0.0846  0.0575
  462loPI    C1 7377   0.479   5.789  10.193  0.0065  0.0835 -0.0770
  462loPI    C2 7378   0.103   5.820  10.324 -0.0434 -0.0265 -0.1913
  462loPI    C3 7379   0.408   5.859  10.580 -0.1348 -0.0439 -0.0787
  462loPI   PO4 7380   0.378   5.878   9.890  0.1861 -0.1265  0.2011
  462loPI   GL1 7381   0.179   5.729   9.460  0.1149  0.0298 -0.0172
  462loPI   GL2 7382   0.124   6.045   9.493 -0.0666 -0.0371 -0.1920
  462loPI   C1A 7383   0.227   5.730   8.934 -0.1865  0.1488 -0.1281
  462loPI   C2A 7384   0.143   5.691   8.401  0.1233  0.0126  0.0934
  462loPI   C3A 7385   0.004   5.430   7.982  0.2497  0.1677  0.1321
  462loPI   C4A 7386  -0.190   5.379   7.647  0.1678 -0.0195  0.0126
  462loPI   C5A 7387  -0.284   5.874   7.426  0.1008 -0.3787 -0.1445
  462loPI   C6A 7388  -0.671   6.016   7.410  0.0150 -0.1575 -0.2491
  462loPI   C1B 7389   0.175   6.163   9.184  0.0500  0.1507 -0.2534
  462loPI   C2B 7390   0.021   6.142   8.710  0.0569  0.1430  0.3384
  462loPI   C3B 7391  -0.015   6.204   8.298 -0.0262 -0.4522  0.0721
  462loPI   C4B 7392  -0.034   5.890   7.854  0.1921 -0.1201  0.3419
  463loPI    C1 7393  14.458  13.937   9.429  0.0140 -0.2217 -0.0176
  463loPI    C2 7394  14.276  13.996   9.780  0.1505 -0.1765  0.0459
  463loPI    C3 7395  14.665  14.080   9.739  0.0584  0.1468 -0.2118
  463loPI   PO4 7396  14.307  14.028   9.270 -0.2422  0.1382  0.0661
  463loPI   GL1 7397  14.187  14.189   8.922 -0.0597 -0.0580  0.0695
  463loPI   GL2 7398  14.106  13.979   8.589  0.2559  0.1116 -0.0458
  463loPI   C1A 7399  14.299  14.469   8.530  0.1150 -0.4274  0.2558
  463loPI   C2A 7400  14.222  14.526   8.139  0.1221 -0.0092 -0.0039
  463loPI   C3A 7401  13.901  14.582   7.854 -0.3406 -0.0849  0.1019
  463loPI   C4A 7402  14.003  14.594   7.380  0.3688  0.2836 -0.1314
  463loPI   C5A 7403  13.973  14.708   6.943  0.2373  0.3514  0.2347
  463loPI   C6A 7404  14.168  15.036   6.729 -0.0193 -0.0396  0.2616
  463loPI   C1B 7405  14.143  13.989   8.136 -0.1182 -0.1510  0.0662
  463loPI   C2B 7406  14.229  14.234   7.689  0.0321  0.0098  0.1575
  463loPI   C3B 7407  14.459  14.513   7.309 -0.0871 -0.1842  0.4627
  463loPI   C4B 7408  14.706  14.709   6.973  0.1014  0.2618 -0.2229
  464loPI    C1 7409   8.054   9.909  10.169 -0.2597  0.0805  0.0960
  464loPI    C2 7410   7.778  10.114   9.963 -0.1624  0.0746 -0.0412
  464loPI    C3 7411   7.672   9.790  10.172 -0.2465  0.0256 -0.1593
  464loPI   PO4 7412   8.264   9.993   9.966 -0.2162 -0.0177 -0.1686
  464loPI   GL1 7413   8.179   9.907   9.546  0.0652 -0.2277 -0.1234
  464loPI   GL2 7414   8.153   9.663   9.308  0.0842 -0.1344  0.0558
  464loPI   C1A 7415   8.199  10.260   9.233  0.1786  0.0203  0.3156
  464loPI   C2A 7416   7.982  10.631   9.042 -0.0096  0.3407  0.1472
  464loPI   C3A 7417   7.977  11.003   8.747  0.1147 -0.2675 -0.1643
  464loPI   C4A 7418   7.935  11.263   8.380 -0.1545  0.0885 -0.0787
  464loPI   C5A 7419   7.600  11.234   8.150  0.5319 -0.2288 -0.1522
  464loPI   C6A 7420   7.653  11.052   7.787  0.1603  0.2036  0.1785
  464loPI   C1B 7421   8.226   9.797   8.951  0.2498 -0.3731 -0.1077
  464loPI   C2B 7422   8.293   9.800   8.481 -0.0637 -0.1179  0.0463
  464loPI   C3B 7423   8.249   9.748   8.011 -0.4368 -0.2378 -0.1557
  464loPI   C4B 7424   8.160   9.682   7.602 -0.0006  0.1430  0.0725
  465loPI    C1 7425   4.021   6.194  10.109  0.0404  0.1179  0.2558
  465loPI    C2 7426   4.068   5.806  10.195 -0.0929  0.0101 -0.1380
  465loPI    C3 7427   3.924   6.056  10.472 -0.2524 -0.2710  0.0379
  465loPI   PO4 7428   3.913   6.199   9.819  0.1980  0.2846  0.2503
  465loPI   GL1 7429   3.970   6.275   9.395 -0.0299  0.0650 -0.0245
  465loPI   GL2 7430   4.278   6.273   9.185 -0.1284  0.1753  0.0696
  465loPI   C1A 7431   3.874   6.483   8.970 -0.5299  0.1491 -0.0833
  465loPI   C2A 7432   3.904   6.737   8.634  0.0734 -0.3346 -0.1450
  465loPI   C3A 7433   3.892   6.635   8.266 -0.2562 -0.2395 -0.1190
  465loPI   C4A 7434   3.818   6.700   7.845 -0.3905  0.0442 -0.0645
  465loPI   C5A 7435   3.994   6.992   7.590  0.0948  0.2064 -0.0138
  465loPI   C6A 7436   3.697   7.220   7.286 -0.3182  0.1013 -0.0756
  465loPI   C1B 7437   4.230   6.163   8.822 -0.1832  0.1553  0.1906
  465loPI   C2B 7438   4.112   6.099   8.381  0.0304 -0.2321  0.2329
  465loPI   C3B 7439   4.080   6.268   7.942  0.0859  0.2056 -0.0243
  465loPI   C4B 7440   3.969   6.297   7.456  0.2280 -0.0386  0.1001
  466loPI    C1 7441  10.270   8.077   9.940  0.1184  0.0111 -0.0457
  466loPI    C2 7442   9.995   8.363   9.992 -0.0477 -0.1675  0.0744
  466loPI    C3 7443  10.250   8.276  10.287 -0.0430 -0.1909  0.0633
  466loPI   PO4 7444  10.256   8.159   9.638  0.2473 -0.1763 -0.2172
  466loPI   GL1 7445  10.320   8.136   9.215 -0.0979 -0.0548  0.0190
  466loPI   GL2 7446  10.596   8.305   9.178 -0.1534 -0.2956 -0.3207
  466loPI   C1A 7447  10.274   7.953   8.800  0.0014  0.1543  0.2372
  466loPI   C2A 7448  10.351   7.923   8.332  0.1151  0.2628  0.0091
  466loPI   C3A 7449  10.175   7.729   8.033  0.0313 -0.1949 -0.0989
  466loPI   C4A 7450  10.036   7.668   7.619 -0.0662  0.0148 -0.5789
  466loPI   C5A 7451   9.782   7.318   7.283  0.1137 -0.2147 -0.2255
  466loPI   C6A 7452   9.367   7.291   7.051  0.0964  0.0509 -0.3045
  466loPI   C1B 7453  10.518   8.588   8.739 -0.1993  0.1169  0.3175
  466loPI   C2B 7454  10.539   8.907   8.431  0.0279 -0.1872  0.5886
  466loPI   C3B 7455  10.555   9.064   7.992  0.1718 -0.2812 -0.2124
  466loPI   C4B 7456  10.837   9.085   7.594  0.1763 -0.0253 -0.3080
  467loPI    C1 7457   7.181   5.791   9.867  0.2102  0.0976  0.0386
  467loPI    C2 7458   7.468   5.872  10.133 -0.0827  0.0202  0.3868
  467loPI    C3 7459   7.110   6.047  10.167 -0.0480  0.2009 -0.1077
  467loPI   PO4 7460   7.272   5.883   9.643  0.0745 -0.0584  0.2087
  467loPI   GL1 7461   7.535   5.925   9.253 -0.1396 -0.1869  0.0973
  467loPI   GL2 7462   7.366   6.278   9.338  0.3316 -0.1316  0.1602
  467loPI   C1A 7463   7.714   6.106   8.897 -0.0296  0.1725 -0.1142
  467loPI   C2A 7464   7.565   6.183   8.511 -0.2045 -0.3960  0.1100
  467loPI   C3A 7465   7.731   6.252   8.171 -0.0736 -0.3439  0.2740
  467loPI   C4A 7466   7.878   6.385   7.851  0.2085  0.1448  0.2291
  467loPI   C5A 7467   8.162   6.265   7.523 -0.0267 -0.0965  0.0750
  467loPI   C6A 7468   8.552   6.172   7.323 -0.1200 -0.3287  0.0019
  467loPI   C1B 7469   7.229   6.202   8.901  0.2854 -0.0918  0.4652
  467loPI   C2B 7470   7.025   6.262   8.529  0.1089  0.1396 -0.0438
  467loPI   C3B 7471   6.742   6.121   8.162 -0.1159  0.0662  0.0770
  467loPI   C4B 7472   6.760   6.078   7.788  0.3523  0.2194 -0.2971
  468loPI    C1 7473  14.060  11.190   9.286 -0.3017 -0.0823  0.1057
  468loPI    C2 7474  14.069  10.827   9.453  0.1202 -0.0507  0.1623
  468loPI    C3 7475  14.025  11.152   9.682 -0.0368 -0.0519  0.1342
  468loPI   PO4 7476  13.930  11.130   9.058 -0.1645 -0.2098 -0.0885
  468loPI   GL1 7477  13.956  10.757   8.705  0.0176  0.0263  0.1727
  468loPI   GL2 7478  13.745  11.084   8.588  0.3819  0.0175 -0.0676
  468loPI   C1A 7479  14.176  10.832   8.333  0.0569  0.1270 -0.1726
  468loPI   C2A 7480  14.370  11.040   7.940 -0.1781 -0.3798  0.0848
  468loPI   C3A 7481  14.402  11.048   7.544 -0.0698  0.0804 -0.0784
  468loPI   C4A 7482  14.552  10.729   7.338 -0.2931  0.0607  0.0640
  468loPI   C5A 7483  14.945  10.474   7.276  0.1105 -0.1955 -0.0874
  468loPI   C6A 7484  14.941  10.116   7.303  0.0133  0.1985  0.0422
  468loPI   C1B 7485  13.884  11.205   8.125 -0.0560  0.0325 -0.0658
  468loPI   C2B 7486  13.890  11.180   7.748 -0.1912  0.2508  0.0039
  468loPI   C3B 7487  13.972  11.343   7.459 -0.1176  0.0873  0.0100
  468loPI   C4B 7488  14.166  11.249   7.076 -0.0849 -0.5763 -0.0123
  469loPI    C1 7489   9.132  14.317   9.722  0.2210  0.0218  0.0382
  469loPI    C2 7490   9.094  14.319  10.120 -0.3084  0.2193 -0.0063
  469loPI    C3 7491   9.265  14.007   9.938 -0.0969  0.1095  0.3690
  469loPI   PO4 7492   8.894  14.374   9.665 -0.0783  0.2155  0.0747
  469loPI   GL1 7493   8.888  14.414   9.258  0.1130 -0.1841 -0.2837
  469loPI   GL2 7494   8.674  14.186   9.088 -0.2259 -0.3968  0.2562
  469loPI   C1A 7495   9.209  14.387   8.898  0.0659 -0.0488  0.3290
  469loPI   C2A 7496   9.276  14.597   8.463  0.0331 -0.3107  0.2880
  469loPI   C3A 7497   9.484  14.797   8.080 -0.0347 -0.0337  0.0426
  469loPI   C4A 7498   9.793  14.861   7.744  0.1464  0.0164  0.0616
  469loPI   C5A 7499   9.843  14.611   7.293  0.0762 -0.3878 -0.0820
  469loPI   C6A 7500   9.528  14.567   6.897  0.1626  0.0413 -0.0664
  469loPI   C1B 7501   8.741  14.252   8.785  0.0722 -0.2940  0.1360
  469loPI   C2B 7502   8.729  14.342   8.324  0.0089 -0.2002 -0.2550
  469loPI   C3B 7503   8.708  14.377   7.908 -0.1992 -0.1620  0.3407
  469loPI   C4B 7504   8.686  14.468   7.499 -0.0107 -0.1434 -0.0508
  470loPI    C1 7505  15.216   5.719   9.970 -0.0405  0.1372  0.1419
  470loPI    C2 7506  14.841   5.851  10.012 -0.1226 -0.0815  0.1128
  470loPI    C3 7507  15.035   5.697  10.325 -0.1119 -0.1101  0.0920
  470loPI   PO4 7508  15.241   5.702   9.686 -0.1355 -0.1079 -0.1501
  470loPI   GL1 7509  14.969   5.567   9.485  0.0478  0.2045  0.2886
  470loPI   GL2 7510  14.706   5.949   9.505 -0.0272 -0.0652 -0.1588
  470loPI   C1A 7511  15.107   5.517   9.017  0.2496 -0.1923 -0.1369
  470loPI   C2A 7512  15.240   5.721   8.562 -0.0779  0.1742  0.0664
  470loPI   C3A 7513  15.093   5.833   8.075  0.1470  0.2409  0.1340
  470loPI   C4A 7514  15.264   5.852   7.669  0.4693  0.0897  0.1985
  470loPI   C5A 7515  15.522   6.241   7.514 -0.2751 -0.0894  0.1340
  470loPI   C6A 7516  15.676   6.648   7.586  0.0156 -0.3631 -0.1341
  470loPI   C1B 7517  14.613   5.637   9.183  0.2104  0.2045  0.4199
  470loPI   C2B 7518  14.416   5.657   8.830  0.0802 -0.0498 -0.2588
  470loPI   C3B 7519  14.297   5.310   8.520  0.1453  0.2971  0.1663
  470loPI   C4B 7520  14.429   4.974   8.275 -0.0178 -0.1493  0.0107
  471loPI    C1 7521  19.332  17.368   9.803 -0.1178 -0.0300  0.1993
  471loPI    C2 7522  19.215  17.734   9.912 -0.2502 -0.0089 -0.0078
  471loPI    C3 7523  19.602  17.634   9.930 -0.2027  0.1675 -0.0264
  471loPI   PO4 7524  19.185  17.322   9.489 -0.3179 -0.4153  0.4748
  471loPI   GL1 7525  19.284  17.539   9.114 -0.1610  0.1079  0.1608
  471loPI   GL2 7526  19.584  17.444   9.172 -0.0667 -0.1175 -0.5053
  471loPI   C1A 7527  19.080  17.430   8.823  0.0157  0.2410  0.3138
  471loPI   C2A 7528  18.729  17.254   8.616 -0.1418  0.1045 -0.0799
  471loPI   C3A 7529  18.558  17.177   8.220 -0.1989 -0.1185 -0.2155
  471loPI   C4A 7530  18.742  17.132   7.791 -0.1876 -0.0017  0.1426
  471loPI   C5A 7531  19.069  17.156   7.670  0.0356  0.1141  0.2253
  471loPI   C6A 7532  19.329  16.915   7.422 -0.0973  0.1703 -0.1354
  471loPI   C1B 7533  19.642  17.391   8.807 -0.1405 -0.1023 -0.0643
  471loPI   C2B 7534  19.412  17.258   8.456 -0.0801  0.0081  0.4906
  471loPI   C3B 7535  19.048  17.169   8.195  0.1404 -0.6115 -0.1675
  471loPI   C4B 7536  18.853  17.548   8.039 -0.2177  0.1339  0.0479
  472loPI    C1 7537   4.894   4.369   9.961  0.1317 -0.0902 -0.0736
  472loPI    C2 7538   4.812   4.043  10.177 -0.0873  0.0167  0.0075
  472loPI    C3 7539   5.031   4.338  10.336  0.0556 -0.0616 -0.0430
  472loPI   PO4 7540   5.006   4.286   9.723  0.1129 -0.1181  0.3118
  472loPI   GL1 7541   4.881   4.490   9.284 -0.0009  0.0680  0.4430
  472loPI   GL2 7542   4.703   4.257   9.318 -0.1981 -0.1253  0.3194
  472loPI   C1A 7543   5.034   4.425   8.941  0.2155  0.2000 -0.2477
  472loPI   C2A 7544   5.115   4.075   8.695  0.2547  0.0849 -0.1570
  472loPI   C3A 7545   4.748   4.044   8.284 -0.0188  0.3003 -0.0104
  472loPI   C4A 7546   4.839   3.787   7.849  0.1655  0.1541  0.0040
  472loPI   C5A 7547   4.984   3.366   7.797  0.0992  0.0586  0.1188
  472loPI   C6A 7548   5.113   2.918   7.711 -0.0617  0.1549  0.4011
  472loPI   C1B 7549   4.712   4.092   8.978  0.3958  0.1342 -0.1913
  472loPI   C2B 7550   4.447   3.909   8.760  0.1787  0.4638  0.1256
  472loPI   C3B 7551   4.365   3.722   8.373  0.0506  0.1539 -0.1785
  472loPI   C4B 7552   4.446   3.499   7.938 -0.1263 -0.0251  0.2485
  473loPI    C1 7553   4.356  15.152   9.720 -0.0369  0.3572 -0.0047
  473loPI    C2 7554   4.111  14.837   9.736  0.1026  0.2433 -0.0931
  473loPI    C3 7555   3.961  15.205   9.694 -0.0754  0.2145  0.2525
  473loPI   PO4 7556   4.528  15.156   9.475  0.1265 -0.0815 -0.1192
  473loPI   GL1 7557   4.528  15.180   9.020 -0.1486 -0.0846 -0.1016
  473loPI   GL2 7558   4.757  14.925   9.045  0.0498  0.0653 -0.1570
  473loPI   C1A 7559   4.557  15.355   8.636 -0.0781 -0.1249 -0.0408
  473loPI   C2A 7560   4.438  15.321   8.237 -0.1632 -0.0177  0.0520
  473loPI   C3A 7561   4.404  15.188   7.843 -0.1998 -0.2533 -0.2342
  473loPI   C4A 7562   4.566  15.181   7.406 -0.0867 -0.1502 -0.0733
  473loPI   C5A 7563   4.401  15.485   7.167  0.1545 -0.2853 -0.2297
  473loPI   C6A 7564   4.255  15.769   6.779 -0.0753  0.1708  0.0399
  473loPI   C1B 7565   4.544  14.858   8.679 -0.4032 -0.0254  0.0270
  473loPI   C2B 7566   4.441  14.792   8.284 -0.1007  0.1138 -0.0544
  473loPI   C3B 7567   4.362  14.673   7.883  0.2087  0.0391  0.1025
  473loPI   C4B 7568   4.029  14.909   7.557  0.2445 -0.1002 -0.2103
  474loPI    C1 7569   8.187   5.675  10.182  0.0482 -0.2136 -0.0903
  474loPI    C2 7570   8.226   5.357  10.421 -0.0676 -0.1833 -0.0304
  474loPI    C3 7571   8.293   5.725  10.564 -0.0479 -0.1719 -0.0687
  474loPI   PO4 7572   7.965   5.664  10.002  0.2914 -0.0295 -0.2371
  474loPI   GL1 7573   7.908   5.733   9.523 -0.2215  0.0931  0.3550
  474loPI   GL2 7574   8.005   5.489   9.543 -0.0430 -0.1094  0.2204
  474loPI   C1A 7575   7.944   5.689   9.056 -0.1028  0.1289  0.1594
  474loPI   C2A 7576   7.725   5.428   8.683 -0.1077 -0.1746  0.2315
  474loPI   C3A 7577   7.781   5.200   8.315 -0.0783  0.0874 -0.2634
  474loPI   C4A 7578   7.777   5.342   7.909 -0.2647  0.2541  0.1179
  474loPI   C5A 7579   7.738   5.782   7.777  0.0466  0.1604 -0.1456
  474loPI   C6A 7580   7.732   6.026   7.420  0.3480 -0.0518 -0.0086
  474loPI   C1B 7581   8.316   5.388   9.229  0.1101 -0.3566 -0.1715
  474loPI   C2B 7582   8.287   5.439   8.808  0.1315 -0.1370  0.3414
  474loPI   C3B 7583   8.117   5.722   8.479 -0.0632 -0.3096  0.1831
  474loPI   C4B 7584   7.679   5.768   8.271 -0.1463  0.1674  0.1210
  475loPI    C1 7585   7.192   3.139   9.664 -0.1139  0.1069 -0.0226
  475loPI    C2 7586   7.451   3.178   9.966  0.1306  0.0126 -0.2164
  475loPI    C3 7587   7.101   3.372   9.976  0.0923 -0.0685  0.1718
  475loPI   PO4 7588   7.164   2.901   9.640 -0.0872  0.3090 -0.2314
  475loPI   GL1 7589   7.249   2.715   9.291 -0.1474 -0.0662 -0.0985
  475loPI   GL2 7590   7.367   2.416   9.263 -0.3126  0.2958  0.0146
  475loPI   C1A 7591   7.304   2.776   8.887  0.1039 -0.1177  0.1147
  475loPI   C2A 7592   7.081   2.909   8.491  0.4465  0.0869 -0.0474
  475loPI   C3A 7593   6.767   2.936   8.152  0.1739  0.0591 -0.2930
  475loPI   C4A 7594   6.864   3.161   7.736  0.3509  0.1702  0.1574
  475loPI   C5A 7595   6.751   3.131   7.290  0.0817 -0.0627 -0.2430
  475loPI   C6A 7596   7.029   2.976   6.921 -0.3203  0.3261 -0.3655
  475loPI   C1B 7597   6.928   2.456   9.080 -0.2465  0.0409  0.0061
  475loPI   C2B 7598   6.774   2.790   8.905  0.0306 -0.1765 -0.1254
  475loPI   C3B 7599   6.396   2.842   8.918  0.1185  0.4131 -0.2681
  475loPI   C4B 7600   6.181   3.094   9.190  0.3661 -0.0287  0.1433
  476loPI    C1 7601  16.995  10.853   9.247  0.0207 -0.0272  0.1291
  476loPI    C2 7602  16.692  10.779   9.497 -0.1328  0.1036 -0.0150
  476loPI    C3 7603  16.965  11.057   9.590  0.0880 -0.1883  0.2318
  476loPI   PO4 7604  16.927  10.874   9.036 -0.0080  0.1863  0.0822
  476loPI   GL1 7605  17.014  10.911   8.712 -0.0638  0.0115  0.0339
  476loPI   GL2 7606  17.243  11.218   8.733 -0.4668  0.1959 -0.1686
  476loPI   C1A 7607  17.249  10.948   8.246  0.0108 -0.1846  0.2676
  476loPI   C2A 7608  17.242  11.012   7.902  0.1383  0.1246  0.2789
  476loPI   C3A 7609  16.926  11.131   7.586 -0.3005  0.1987 -0.0671
  476loPI   C4A 7610  17.128  11.368   7.275 -0.0529 -0.3074 -0.1676
  476loPI   C5A 7611  17.014  11.612   7.002  0.1846  0.0783 -0.0246
  476loPI   C6A 7612  16.861  11.804   6.590  0.0754  0.1525  0.0403
  476loPI   C1B 7613  17.322  11.563   8.333  0.0019 -0.2058 -0.1288
  476loPI   C2B 7614  17.361  11.806   8.029  0.1378 -0.1281 -0.1359
  476loPI   C3B 7615  17.554  11.800   7.620 -0.2328  0.1578 -0.0771
  476loPI   C4B 7616  17.410  11.817   7.166 -0.3271 -0.2307  0.0250
  477loPI    C1 7617   1.320  13.414   9.871 -0.0289 -0.0111  0.0292
  477loPI    C2 7618   1.449  13.791   9.914 -0.1079 -0.0101  0.2730
  477loPI    C3 7619   1.601  13.500  10.142  0.2460 -0.2010 -0.1901
  477loPI   PO4 7620   1.359  13.337   9.624 -0.2704 -0.3718  0.1095
  477loPI   GL1 7621   1.480  13.331   9.263 -0.0948  0.2226 -0.1401
  477loPI   GL2 7622   1.219  13.349   9.153  0.1041  0.1017 -0.2862
  477loPI   C1A 7623   1.523  13.412   8.714  0.2610 -0.0715  0.2338
  477loPI   C2A 7624   1.937  13.490   8.388  0.0191  0.3027  0.3342
  477loPI   C3A 7625   2.066  13.232   8.035  0.1304  0.1105  0.1345
  477loPI   C4A 7626   2.004  13.133   7.637  0.0574  0.2019 -0.0007
  477loPI   C5A 7627   1.838  13.424   7.326  0.1223 -0.0239 -0.1485
  477loPI   C6A 7628   1.445  13.596   7.320  0.1921 -0.0951 -0.2023
  477loPI   C1B 7629   1.013  13.403   8.699 -0.2042  0.0081 -0.0072
  477loPI   C2B 7630   0.800  13.016   8.525  0.2774  0.2915  0.2344
  477loPI   C3B 7631   0.592  12.894   8.088  0.0191 -0.0466 -0.0483
  477loPI   C4B 7632   0.271  12.874   7.808  0.0024  0.0998  0.1449
  478loPI    C1 7633   6.398  12.932   9.833  0.0663 -0.0060  0.0305
  478loPI    C2 7634   6.783  12.970   9.933  0.0590 -0.0033  0.0583
  478loPI    C3 7635   6.561  12.682  10.099  0.0044  0.1047  0.1738
  478loPI   PO4 7636   6.325  12.957   9.474  0.2889 -0.1172  0.0138
  478loPI   GL1 7637   6.263  13.046   9.148 -0.1134 -0.0547 -0.1748
  478loPI   GL2 7638   6.612  12.966   9.057 -0.0071 -0.0874  0.2476
  478loPI   C1A 7639   6.024  13.341   8.784  0.0264 -0.0869 -0.2511
  478loPI   C2A 7640   5.764  13.413   8.448 -0.1896 -0.0347  0.0471
  478loPI   C3A 7641   5.741  13.266   7.993 -0.1143 -0.2396 -0.0900
  478loPI   C4A 7642   6.105  12.995   7.766 -0.1017  0.0327 -0.0239
  478loPI   C5A 7643   6.289  12.613   7.590  0.0964 -0.3595  0.2744
  478loPI   C6A 7644   6.494  12.267   7.415  0.0703 -0.2185  0.1859
  478loPI   C1B 7645   6.439  12.615   8.812 -0.2338  0.2228  0.0315
  478loPI   C2B 7646   6.117  12.450   8.679  0.1172  0.3215 -0.1097
  478loPI   C3B 7647   5.687  12.366   8.455 -0.3151  0.1193  0.1114
  478loPI   C4B 7648   5.386  12.229   8.168  0.2223  0.1379 -0.1203
  479loPI    C1 7649  10.605   4.580  10.102 -0.2252 -0.0654  0.1622
  479loPI    C2 7650  10.686   4.936  10.264  0.2064 -0.0836  0.0021
  479loPI    C3 7651  10.808   4.602  10.446  0.2475 -0.1262 -0.1037
  479loPI   PO4 7652  10.614   4.616   9.781 -0.2024  0.0411  0.0563
  479loPI   GL1 7653  10.580   4.742   9.404  0.1396 -0.0593 -0.0577
  479loPI   GL2 7654  10.283   4.676   9.369 -0.0022  0.2568 -0.0956
  479loPI   C1A 7655  10.790   4.458   9.112 -0.0926  0.1303  0.0045
  479loPI   C2A 7656  10.654   4.513   8.680 -0.1568 -0.2895 -0.0728
  479loPI   C3A 7657  10.778   4.541   8.358 -0.1849 -0.1111 -0.0173
  479loPI   C4A 7658  10.761   4.329   8.011 -0.0936  0.0346  0.0600
  479loPI   C5A 7659  10.944   4.580   7.803 -0.3216 -0.0225 -0.2657
  479loPI   C6A 7660  11.253   4.570   7.502 -0.0891 -0.1836 -0.2075
  479loPI   C1B 7661  10.303   4.686   8.921  0.1582 -0.0639  0.2018
  479loPI   C2B 7662  10.211   4.672   8.456 -0.1481  0.0895  0.1363
  479loPI   C3B 7663  10.418   4.727   8.024  0.3671 -0.1084  0.1148
  479loPI   C4B 7664  10.429   4.499   7.658  0.5923  0.1176  0.1696
  480loPI    C1 7665   7.637  12.499   9.590  0.0192 -0.2173  0.0228
  480loPI    C2 7666   7.698  12.712   9.922  0.4007 -0.2675 -0.0112
  480loPI    C3 7667   7.481  12.377   9.937  0.1690 -0.1145  0.1272
  480loPI   PO4 7668   7.565  12.662   9.354 -0.0545  0.1193  0.0662
  480loPI   GL1 7669   7.807  12.883   9.084 -0.0219 -0.1514  0.1175
  480loPI   GL2 7670   8.150  13.139   9.143  0.1956 -0.1023  0.0130
  480loPI   C1A 7671   7.923  12.623   8.722  0.0760 -0.0264 -0.1291
  480loPI   C2A 7672   7.818  12.524   8.271 -0.0847  0.1190 -0.2420
  480loPI   C3A 7673   7.706  12.467   7.932 -0.2833  0.0469 -0.1916
  480loPI   C4A 7674   7.451  12.501   7.562 -0.2202 -0.2826 -0.0337
  480loPI   C5A 7675   7.699  12.411   7.234 -0.2577 -0.0526 -0.2385
  480loPI   C6A 7676   7.871  12.239   6.883 -0.1040  0.0061 -0.3027
  480loPI   C1B 7677   8.296  13.444   8.804  0.0677 -0.5037  0.0440
  480loPI   C2B 7678   8.158  13.459   8.425  0.0505  0.0380  0.1830
  480loPI   C3B 7679   8.290  13.583   8.015 -0.2385 -0.1505 -0.1153
  480loPI   C4B 7680   8.310  13.772   7.534  0.3831  0.1173 -0.0564
  481loPI    C1 7681  13.258  17.856   9.709  0.1377 -0.0580 -0.0621
  481loPI    C2 7682  13.509  18.069   9.481  0.2031 -0.0084  0.0552
  481loPI    C3 7683  13.290  18.252   9.762 -0.0491 -0.0338 -0.1207
  481loPI   PO4 7684  13.083  17.746   9.495 -0.1208 -0.0778  0.1157
  481loPI   GL1 7685  13.127  17.836   9.168 -0.1210 -0.0607 -0.1764
  481loPI   GL2 7686  13.281  18.078   8.999 -0.3103  0.0126 -0.0577
  481loPI   C1A 7687  13.290  17.532   8.804 -0.0915 -0.0978 -0.1291
  481loPI   C2A 7688  13.205  17.358   8.348  0.0261 -0.0845  0.0461
  481loPI   C3A 7689  13.077  17.111   8.054  0.0277  0.2892 -0.1101
  481loPI   C4A 7690  13.074  16.929   7.483  0.1668  0.1821 -0.3881
  481loPI   C5A 7691  13.028  16.904   7.126 -0.0638 -0.3583 -0.0531
  481loPI   C6A 7692  12.951  16.798   6.734 -0.0291  0.0494 -0.0290
  481loPI   C1B 7693  13.072  17.923   8.480 -0.0392 -0.3510  0.1428
  481loPI   C2B 7694  12.935  17.684   8.121  0.0472 -0.0213 -0.0192
  481loPI   C3B 7695  12.711  17.880   7.758 -0.2608  0.2513  0.0893
  481loPI   C4B 7696  12.227  17.858   7.637  0.0365  0.2929  0.1367
  482loPI    C1 7697   7.019  13.606   9.389 -0.1021 -0.1696 -0.1329
  482loPI    C2 7698   7.413  13.658   9.341 -0.0715 -0.1169  0.1563
  482loPI    C3 7699   7.205  13.909   9.572 -0.3224  0.0027 -0.1908
  482loPI   PO4 7700   6.966  13.469   9.169  0.1044  0.0550  0.1742
  482loPI   GL1 7701   6.888  13.489   8.755 -0.3782  0.0026 -0.3348
  482loPI   GL2 7702   6.578  13.519   8.729 -0.0991 -0.3195 -0.1224
  482loPI   C1A 7703   6.911  13.852   8.563  0.0720  0.4546  0.0043
  482loPI   C2A 7704   6.977  14.086   8.215  0.1711  0.0158  0.1846
  482loPI   C3A 7705   6.931  14.006   7.733 -0.0433  0.2175 -0.0141
  482loPI   C4A 7706   6.991  14.071   7.369 -0.0314 -0.1993  0.0165
  482loPI   C5A 7707   7.134  14.132   7.002  0.1542 -0.1611 -0.3947
  482loPI   C6A 7708   6.906  14.106   6.611 -0.2345  0.1772 -0.2008
  482loPI   C1B 7709   6.536  13.063   8.581  0.3088 -0.1529  0.0095
  482loPI   C2B 7710   6.437  12.800   8.288  0.0273  0.2485  0.1186
  482loPI   C3B 7711   6.531  12.446   7.996  0.6016  0.1199 -0.0345
  482loPI   C4B 7712   6.495  12.011   7.838  0.0672  0.0977  0.1870
  483loPI    C1 7713   8.157  15.072   9.806 -0.1015 -0.1331  0.0186
  483loPI    C2 7714   8.427  15.123  10.096 -0.0527  0.1186 -0.0691
  483loPI    C3 7715   8.168  14.819  10.116  0.0506  0.0432  0.1590
  483loPI   PO4 7716   8.206  15.082   9.562  0.1398  0.0346  0.1843
  483loPI   GL1 7717   8.113  15.093   9.138 -0.1589  0.4647 -0.0125
  483loPI   GL2 7718   7.892  14.863   9.214 -0.2463 -0.2266 -0.0958
  483loPI   C1A 7719   8.317  15.136   8.724  0.0909  0.5048  0.1364
  483loPI   C2A 7720   8.447  15.075   8.327 -0.0084 -0.2317 -0.1810
  483loPI   C3A 7721   8.131  15.170   8.058 -0.0956  0.1104  0.2721
  483loPI   C4A 7722   8.105  15.268   7.626 -0.1303  0.2818 -0.0417
  483loPI   C5A 7723   7.797  15.077   7.460 -0.1016 -0.2483  0.3662
  483loPI   C6A 7724   7.522  15.003   7.141  0.1451  0.3039  0.2031
  483loPI   C1B 7725   7.928  14.821   8.770  0.2710  0.3806  0.0691
  483loPI   C2B 7726   7.816  14.854   8.412  0.3373  0.1858  0.0107
  483loPI   C3B 7727   7.704  14.853   7.971 -0.0881 -0.1020 -0.0827
  483loPI   C4B 7728   7.601  14.643   7.577 -0.1147 -0.1962  0.2459
  484loPI    C1 7729  18.651  12.324   9.720 -0.0729  0.2319  0.0124
  484loPI    C2 7730  18.458  11.975   9.690  0.0776  0.1466  0.0268
  484loPI    C3 7731  18.456  12.176  10.036 -0.0944  0.2110 -0.0108
  484loPI   PO4 7732  18.703  12.368   9.457 -0.0263  0.1195  0.1904
  484loPI   GL1 7733  18.464  12.177   9.217 -0.1518  0.1028  0.2253
  484loPI   GL2 7734  18.379  12.159   8.972  0.0205  0.3067 -0.0766
  484loPI   C1A 7735  18.817  11.961   8.855 -0.2192 -0.1760 -0.3356
  484loPI   C2A 7736  19.008  11.965   8.494  0.0325 -0.0050  0.0277
  484loPI   C3A 7737  19.077  11.825   8.064  0.0212  0.0776  0.0802
  484loPI   C4A 7738  19.114  11.757   7.588 -0.1598  0.3042  0.0932
  484loPI   C5A 7739  19.209  11.629   7.088  0.1908 -0.0797  0.0748
  484loPI   C6A 7740  19.181  11.608   6.774  0.2051  0.1429 -0.0707
  484loPI   C1B 7741  18.585  12.232   8.530  0.1526 -0.0587  0.0303
  484loPI   C2B 7742  18.744  12.298   8.153 -0.0440  0.0779 -0.2188
  484loPI   C3B 7743  18.794  12.165   7.714 -0.0675  0.2291 -0.1283
  484loPI   C4B 7744  18.797  12.217   7.225  0.0274  0.6259 -0.2089
  485loPI    C1 7745   6.408   1.862  10.078 -0.1666  0.0190 -0.0016
  485loPI    C2 7746   6.687   2.030   9.845 -0.3137  0.0863 -0.1312
  485loPI    C3 7747   6.595   2.195  10.198 -0.0864 -0.0190 -0.0201
  485loPI   PO4 7748   6.508   1.575  10.025 -0.1626 -0.0090  0.0213
  485loPI   GL1 7749   6.505   1.359   9.520  0.0450  0.3282 -0.2159
  485loPI   GL2 7750   6.506   1.056   9.349  0.1154  0.0625 -0.2792
  485loPI   C1A 7751   6.649   1.434   9.034 -0.0053 -0.0470  0.1372
  485loPI   C2A 7752   6.595   1.142   8.721 -0.2188  0.0559 -0.3702
  485loPI   C3A 7753   6.266   1.014   8.444  0.3030  0.1974  0.1537
  485loPI   C4A 7754   6.204   1.038   7.965 -0.0114  0.2045 -0.1319
  485loPI   C5A 7755   5.832   1.065   7.715 -0.2477  0.3234 -0.2344
  485loPI   C6A 7756   5.597   0.967   7.255 -0.0918  0.0511  0.2948
  485loPI   C1B 7757   6.251   0.872   8.968 -0.1621  0.0339 -0.0390
  485loPI   C2B 7758   6.184   0.432   8.673  0.1647  0.0639 -0.0108
  485loPI   C3B 7759   6.351   0.314   8.278 -0.1245 -0.2482  0.2007
  485loPI   C4B 7760   6.289   0.248   7.850 -0.2442 -0.1918  0.0033
  486loPI    C1 7761  18.256   4.999  10.149  0.3954  0.0827 -0.1916
  486loPI    C2 7762  18.110   5.370  10.183  0.2051  0.0157 -0.2637
  486loPI    C3 7763  18.474   5.284  10.324  0.1052  0.1424  0.0807
  486loPI   PO4 7764  18.105   4.980   9.904  0.1669  0.0661  0.1083
  486loPI   GL1 7765  18.122   5.135   9.492  0.1144  0.0571  0.1677
  486loPI   GL2 7766  18.040   5.390   9.563  0.0319 -0.4482  0.2847
  486loPI   C1A 7767  18.313   5.284   9.077  0.1154  0.0897 -0.1830
  486loPI   C2A 7768  18.359   5.424   8.667  0.2866  0.2148  0.0884
  486loPI   C3A 7769  18.173   5.126   8.312 -0.1865  0.0647  0.2611
  486loPI   C4A 7770  17.780   4.985   8.293  0.2194 -0.3673 -0.1458
  486loPI   C5A 7771  17.539   4.996   7.960  0.1693  0.0274  0.1701
  486loPI   C6A 7772  17.211   4.985   7.617 -0.0269 -0.1249  0.1699
  486loPI   C1B 7773  17.819   5.301   9.162  0.0119 -0.1502  0.1839
  486loPI   C2B 7774  17.999   5.005   8.819 -0.1276 -0.1264  0.0175
  486loPI   C3B 7775  18.124   4.680   8.564 -0.1134 -0.0007  0.1060
  486loPI   C4B 7776  18.293   4.510   8.219 -0.2493  0.1818  0.1447
  487loPI    C1 7777   5.345   5.489   9.598  0.1514 -0.1518 -0.0891
  487loPI    C2 7778   5.301   5.682   9.251  0.0398 -0.1176 -0.0567
  487loPI    C3 7779   5.637   5.726   9.463  0.0309  0.0112 -0.0679
  487loPI   PO4 7780   5.309   5.163   9.523  0.1327 -0.0869 -0.0881
  487loPI   GL1 7781   5.232   5.090   9.143  0.0549 -0.1957  0.1458
  487loPI   GL2 7782   5.376   4.855   9.124  0.2053  0.1284  0.1136
  487loPI   C1A 7783   5.340   5.286   8.844 -0.0924 -0.0340 -0.0751
  487loPI   C2A 7784   5.280   5.704   8.675  0.0384  0.3180 -0.2280
  487loPI   C3A 7785   5.414   5.704   8.233 -0.3360 -0.0967  0.1803
  487loPI   C4A 7786   5.533   5.387   7.941 -0.2625 -0.0658 -0.0411
  487loPI   C5A 7787   5.765   5.351   7.483  0.1162 -0.0100 -0.1641
  487loPI   C6A 7788   5.685   5.441   7.087 -0.4630 -0.1619 -0.0382
  487loPI   C1B 7789   5.017   4.861   8.702 -0.1226  0.0877 -0.1555
  487loPI   C2B 7790   4.819   4.953   8.310  0.2440 -0.0915 -0.1015
  487loPI   C3B 7791   4.606   5.296   8.177 -0.0070 -0.1461  0.1399
  487loPI   C4B 7792   4.856   5.700   8.172  0.0727 -0.1050 -0.1651
  488loPI    C1 7793  16.179  16.271   9.477  0.0256 -0.1016 -0.0613
  488loPI    C2 7794  16.062  15.953   9.689 -0.3011  0.1376  0.1272
  488loPI    C3 7795  16.115  16.306   9.870  0.0303  0.2011 -0.0847
  488loPI   PO4 7796  16.030  16.206   9.264  0.1753 -0.0078 -0.1136
  488loPI   GL1 7797  16.177  15.928   8.877 -0.3281  0.0272  0.4049
  488loPI   GL2 7798  15.959  15.791   8.931 -0.6733 -0.1685 -0.0735
  488loPI   C1A 7799  16.234  15.944   8.477 -0.1532  0.0291  0.1680
  488loPI   C2A 7800  16.085  15.720   8.158 -0.0210  0.0490  0.3638
  488loPI   C3A 7801  16.017  15.555   7.753 -0.0825  0.1434  0.3220
  488loPI   C4A 7802  15.863  15.712   7.298  0.3166 -0.0906  0.0444
  488loPI   C5A 7803  15.803  16.093   7.043  0.0040 -0.0200  0.0719
  488loPI   C6A 7804  15.716  16.487   6.982 -0.0046 -0.1719  0.0599
  488loPI   C1B 7805  15.633  15.556   8.885  0.7250  0.2001 -0.1831
  488loPI   C2B 7806  15.377  15.482   8.444  0.2095  0.2188 -0.1833
  488loPI   C3B 7807  15.188  15.416   8.115 -0.0905  0.3319 -0.2780
  488loPI   C4B 7808  15.097  15.449   7.721  0.0506  0.0856  0.3108
  489loPI    C1 7809  13.698  12.658   9.657 -0.0281 -0.1452  0.0666
  489loPI    C2 7810  14.007  12.407   9.691 -0.0775 -0.1990  0.1220
  489loPI    C3 7811  14.004  12.749   9.898 -0.0075 -0.1494  0.0420
  489loPI   PO4 7812  13.616  12.682   9.375 -0.3804 -0.2627  0.0976
  489loPI   GL1 7813  13.351  12.564   9.142 -0.2008 -0.3575  0.2347
  489loPI   GL2 7814  13.191  12.808   9.151  0.1914 -0.0539 -0.0324
  489loPI   C1A 7815  13.690  12.644   8.739 -0.1279  0.0315 -0.1527
  489loPI   C2A 7816  13.735  12.740   8.388  0.1990 -0.1290  0.2289
  489loPI   C3A 7817  14.096  12.739   7.976 -0.0778 -0.0209  0.2981
  489loPI   C4A 7818  14.219  12.491   7.478 -0.0619  0.1322 -0.1101
  489loPI   C5A 7819  14.368  12.640   7.053  0.1450  0.2360  0.3196
  489loPI   C6A 7820  14.458  12.905   6.676  0.0832  0.0936  0.2297
  489loPI   C1B 7821  13.220  12.744   8.727 -0.0573 -0.1615  0.1843
  489loPI   C2B 7822  13.240  12.662   8.360  0.1254 -0.0741  0.1599
  489loPI   C3B 7823  13.134  12.305   8.052  0.0025 -0.1462  0.1815
  489loPI   C4B 7824  13.091  11.788   8.033  0.1726  0.0017  0.3025
  490loPI    C1 7825   4.745  13.579   9.835  0.0839  0.0167 -0.0317
  490loPI    C2 7826   4.906  13.313  10.087  0.0910  0.1638  0.1208
  490loPI    C3 7827   4.543  13.463  10.161  0.0076  0.0564 -0.0647
  490loPI   PO4 7828   4.718  13.475   9.576 -0.0177  0.1347 -0.0166
  490loPI   GL1 7829   4.413  13.522   9.182 -0.0933 -0.1118 -0.2263
  490loPI   GL2 7830   4.144  13.544   9.031 -0.0020 -0.1088 -0.0441
  490loPI   C1A 7831   4.530  13.866   9.042 -0.2408  0.3514 -0.1811
  490loPI   C2A 7832   4.344  14.094   8.716 -0.2611 -0.0776 -0.1425
  490loPI   C3A 7833   3.888  14.171   8.585 -0.0953 -0.0837  0.1285
  490loPI   C4A 7834   3.649  14.176   8.212 -0.6331  0.0764  0.0233
  490loPI   C5A 7835   3.628  14.020   7.803 -0.0388  0.2269 -0.2278
  490loPI   C6A 7836   3.758  13.920   7.500 -0.2228 -0.2697 -0.1343
  490loPI   C1B 7837   4.122  13.670   8.647 -0.0902 -0.2236  0.3871
  490loPI   C2B 7838   3.911  13.781   8.257 -0.0966 -0.1145  0.1075
  490loPI   C3B 7839   4.106  13.809   7.889  0.0487  0.0163 -0.0780
  490loPI   C4B 7840   4.166  13.526   7.461  0.0741  0.2858  0.1518
  491loPI    C1 7841   8.359   3.781   9.667 -0.1169  0.2973  0.0367
  491loPI    C2 7842   8.672   3.544   9.744 -0.1787  0.1733 -0.0869
  491loPI    C3 7843   8.640   3.899   9.926  0.0433  0.1956 -0.0887
  491loPI   PO4 7844   8.459   3.797   9.372  0.2587  0.1603 -0.1255
  491loPI   GL1 7845   8.505   3.709   8.991  0.3449  0.4041 -0.1822
  491loPI   GL2 7846   8.154   3.630   8.943 -0.3042  0.0097 -0.1358
  491loPI   C1A 7847   8.529   3.338   8.716  0.4112  0.0021 -0.1519
  491loPI   C2A 7848   8.483   3.149   8.321 -0.2025  0.0571  0.0213
  491loPI   C3A 7849   8.304   3.155   7.799 -0.1123  0.3985  0.0889
  491loPI   C4A 7850   8.116   3.151   7.433  0.1274 -0.0490  0.0863
  491loPI   C5A 7851   7.850   2.996   7.237 -0.1146  0.0104 -0.3858
  491loPI   C6A 7852   7.601   2.644   7.292  0.2061 -0.0855  0.2946
  491loPI   C1B 7853   7.956   3.924   8.755 -0.2046  0.0583 -0.2508
  491loPI   C2B 7854   7.844   4.164   8.338  0.0434  0.0681  0.0230
  491loPI   C3B 7855   7.720   4.010   7.923  0.0688  0.2469  0.1483
  491loPI   C4B 7856   7.581   3.923   7.502 -0.2486 -0.1217  0.0270
  492loPI    C1 7857  10.475   0.027   9.958  0.0836  0.2399 -0.3053
  492loPI    C2 7858  10.367  -0.054  10.334 -0.2381  0.0941 -0.4262
  492loPI    C3 7859  10.637   0.231  10.261  0.1191 -0.1397 -0.0613
  492loPI   PO4 7860  10.431  -0.248   9.880  0.1737  0.0434 -0.2232
  492loPI   GL1 7861  10.314  -0.304   9.376  0.2272  0.0763  0.0529
  492loPI   GL2 7862   9.999  -0.490   9.218  0.0860 -0.0564 -0.0160
  492loPI   C1A 7863  10.614  -0.401   8.967  0.2247  0.1899 -0.2221
  492loPI   C2A 7864  10.828  -0.358   8.533 -0.2232 -0.0813  0.0083
  492loPI   C3A 7865  10.890  -0.429   8.132  0.0834  0.0170 -0.1564
  492loPI   C4A 7866  11.185  -0.637   7.879 -0.2092 -0.2796  0.0476
  492loPI   C5A 7867  11.596  -0.699   7.806 -0.2430  0.0577 -0.3899
  492loPI   C6A 7868  11.774  -0.919   7.522 -0.1718 -0.4375 -0.0630
  492loPI   C1B 7869  10.170  -0.618   8.928  0.0244  0.1572  0.0706
  492loPI   C2B 7870  10.454  -0.818   8.623 -0.0222  0.0807  0.0495
  492loPI   C3B 7871  10.543  -0.774   8.122 -0.3677 -0.0774 -0.0090
  492loPI   C4B 7872  10.574  -0.596   7.679  0.2550  0.0104  0.1035
  493loPI    C1 7873   8.829  16.496   9.719  0.0088  0.0224  0.1791
  493loPI    C2 7874   8.771  16.137   9.886  0.1493 -0.0100  0.1591
  493loPI    C3 7875   8.891  16.446  10.110  0.0846  0.0107  0.1657
  493loPI   PO4 7876   9.011  16.457   9.589  0.1892 -0.2049 -0.1553
  493loPI   GL1 7877   9.191  16.652   9.237  0.0611  0.1589  0.0031
  493loPI   GL2 7878   9.358  16.260   9.115 -0.1080  0.0751  0.0002
  493loPI   C1A 7879   9.336  16.897   8.976 -0.0057  0.3051  0.1345
  493loPI   C2A 7880   9.142  16.827   8.656 -0.0405 -0.1968  0.0123
  493loPI   C3A 7881   9.000  16.890   8.184 -0.0976 -0.0709 -0.1776
  493loPI   C4A 7882   8.946  16.970   7.795  0.2328 -0.0750  0.0691
  493loPI   C5A 7883   8.822  16.948   7.400  0.1242 -0.1975 -0.1029
  493loPI   C6A 7884   9.149  17.103   7.231  0.1084  0.1177  0.3853
  493loPI   C1B 7885   9.459  16.015   8.709  0.2171 -0.1761 -0.2999
  493loPI   C2B 7886   9.585  16.094   8.311  0.0890 -0.2124 -0.2326
  493loPI   C3B 7887   9.695  16.273   7.919 -0.2388  0.0967  0.0496
  493loPI   C4B 7888   9.842  16.360   7.563  0.2666  0.1640 -0.1742
  494loPI    C1 7889   9.972  19.423   9.893  0.1427 -0.0734  0.0011
  494loPI    C2 7890   9.634  19.604  10.007  0.1106 -0.2409  0.1758
  494loPI    C3 7891   9.985  19.790  10.052  0.0370 -0.0357 -0.0758
  494loPI   PO4 7892   9.859  19.295   9.645  0.1579  0.0004 -0.2581
  494loPI   GL1 7893   9.651  19.451   9.371  0.1126  0.3033  0.0797
  494loPI   GL2 7894   9.513  19.732   9.198 -0.1926  0.4548 -0.2523
  494loPI   C1A 7895   9.744  19.365   8.909  0.2592 -0.1296 -0.3185
  494loPI   C2A 7896   9.817  19.056   8.609  0.3110 -0.2220  0.3143
  494loPI   C3A 7897   9.991  18.955   8.134  0.0314 -0.1976 -0.0853
  494loPI   C4A 7898  10.149  18.815   7.833  0.3062  0.0197  0.0401
  494loPI   C5A 7899   9.952  18.951   7.431  0.1331 -0.0681 -0.0498
  494loPI   C6A 7900   9.567  18.941   7.172 -0.3125 -0.1269 -0.1852
  494loPI   C1B 7901   9.484  19.740   8.801 -0.0384 -0.4297 -0.1670
  494loPI   C2B 7902   9.545  19.764   8.367  0.1100 -0.0492 -0.0416
  494loPI   C3B 7903   9.715  19.816   7.951 -0.1042  0.2201  0.0038
  494loPI   C4B 7904   9.805  19.856   7.513  0.1014  0.0507 -0.2250
  495loPI    C1 7905  12.958  16.392   9.746 -0.1733 -0.0202 -0.0597
  495loPI    C2 7906  12.719  16.332  10.061 -0.1088  0.1211  0.0171
  495loPI    C3 7907  13.012  16.603  10.082  0.0383 -0.0282 -0.0875
  495loPI   PO4 7908  12.805  16.404   9.544  0.1728 -0.1380  0.1365
  495loPI   GL1 7909  12.897  16.666   9.149 -0.0503 -0.0762 -0.2111
  495loPI   GL2 7910  12.719  16.932   9.028 -0.0502 -0.2691  0.2257
  495loPI   C1A 7911  13.138  16.467   8.775  0.0201 -0.3216 -0.0547
  495loPI   C2A 7912  13.335  16.100   8.539  0.0217 -0.0943 -0.2994
  495loPI   C3A 7913  13.681  15.883   8.463  0.3043  0.1110  0.0799
  495loPI   C4A 7914  13.936  15.851   8.227  0.1010  0.2245 -0.0782
  495loPI   C5A 7915  14.067  16.120   7.937  0.1414 -0.1383  0.4087
  495loPI   C6A 7916  14.071  16.509   7.604  0.2702  0.2821 -0.0629
  495loPI   C1B 7917  12.740  17.230   8.780 -0.1723  0.2062  0.1496
  495loPI   C2B 7918  12.675  17.462   8.486 -0.1223  0.0974 -0.3665
  495loPI   C3B 7919  12.574  17.946   8.332  0.0041  0.0702  0.0794
  495loPI   C4B 7920  12.420  18.097   8.079  0.0226 -0.0848  0.1815
  496loPI    C1 7921   7.810  14.609   9.653  0.1367  0.0596  0.1136
  496loPI    C2 7922   7.690  14.547  10.029  0.2126 -0.4530  0.0619
  496loPI    C3 7923   7.440  14.473   9.726  0.1565 -0.0550  0.0053
  496loPI   PO4 7924   8.070  14.573   9.660 -0.1650 -0.0125  0.2937
  496loPI   GL1 7925   8.384  14.672   9.282  0.2397  0.0469  0.0596
  496loPI   GL2 7926   8.517  14.873   9.250 -0.1615 -0.0720  0.0084
  496loPI   C1A 7927   8.314  14.501   8.879  0.3642  0.2006 -0.1152
  496loPI   C2A 7928   8.332  14.545   8.513  0.0384  0.0761 -0.1946
  496loPI   C3A 7929   8.275  14.605   8.106 -0.2049 -0.1835  0.0734
  496loPI   C4A 7930   8.146  14.758   7.664 -0.3278  0.2008 -0.0676
  496loPI   C5A 7931   8.317  14.888   7.307 -0.3115  0.0713 -0.1779
  496loPI   C6A 7932   8.765  14.933   7.407  0.1143 -0.1416 -0.2786
  496loPI   C1B 7933   8.726  14.794   8.866 -0.0702  0.3353 -0.0429
  496loPI   C2B 7934   8.879  14.789   8.605 -0.0164 -0.1131  0.0808
  496loPI   C3B 7935   8.856  14.811   8.168  0.0543  0.0529 -0.0183
  496loPI   C4B 7936   8.588  14.911   7.860  0.4209  0.1409  0.1664
  497loPI    C1 7937   0.297  15.444   9.560 -0.1612 -0.1627  0.0573
  497loPI    C2 7938   0.283  15.746   9.822 -0.2118 -0.0396 -0.0853
  497loPI    C3 7939   0.596  15.497   9.820 -0.2599 -0.1052  0.1601
  497loPI   PO4 7940   0.181  15.560   9.339 -0.1551  0.4168  0.3105
  497loPI   GL1 7941   0.363  15.652   9.014 -0.0720 -0.1477 -0.1293
  497loPI   GL2 7942   0.586  15.309   8.854  0.3088  0.1811  0.2429
  497loPI   C1A 7943   0.260  15.496   8.538  0.3628  0.2390 -0.0706
  497loPI   C2A 7944   0.528  15.516   8.229  0.1025 -0.0646  0.0891
  497loPI   C3A 7945   0.873  15.603   7.927  0.0733 -0.0974  0.1257
  497loPI   C4A 7946   0.863  15.830   7.574 -0.2621 -0.1475 -0.0858
  497loPI   C5A 7947   0.996  16.148   7.299  0.0568  0.1939  0.2135
  497loPI   C6A 7948   1.155  16.318   6.939 -0.3894  0.0086  0.1089
  497loPI   C1B 7949   0.593  15.065   8.470 -0.1145 -0.2248 -0.0853
  497loPI   C2B 7950   0.608  14.955   7.999  0.1665  0.1228 -0.0564
  497loPI   C3B 7951   0.669  14.796   7.532  0.1388  0.4192  0.1474
  497loPI   C4B 7952   0.755  14.535   7.261 -0.1051 -0.0038 -0.2294
  498loPI    C1 7953  16.986  17.352   9.645 -0.1600  0.0023 -0.1233
  498loPI    C2 7954  17.185  17.495   9.961 -0.1413  0.1466 -0.1996
  498loPI    C3 7955  17.305  17.156   9.786  0.0353  0.2292 -0.2412
  498loPI   PO4 7956  16.977  17.532   9.406  0.0275 -0.2414 -0.3879
  498loPI   GL1 7957  17.032  17.662   9.007 -0.0386 -0.0514  0.1508
  498loPI   GL2 7958  17.185  17.416   8.917 -0.0065 -0.1246 -0.2246
  498loPI   C1A 7959  17.151  17.864   8.546 -0.0147  0.0548  0.0476
  498loPI   C2A 7960  17.040  18.150   8.258 -0.1469 -0.0104 -0.1364
  498loPI   C3A 7961  16.902  18.253   7.861  0.0383  0.1000 -0.0360
  498loPI   C4A 7962  16.689  18.266   7.455 -0.0142 -0.1146  0.0272
  498loPI   C5A 7963  16.463  18.147   7.220 -0.3073  0.0067  0.1066
  498loPI   C6A 7964  16.135  18.100   6.989 -0.0292  0.3673 -0.2431
  498loPI   C1B 7965  16.811  17.427   8.622  0.1608  0.3352 -0.1664
  498loPI   C2B 7966  16.506  17.388   8.294 -0.1771  0.0637 -0.1439
  498loPI   C3B 7967  16.407  17.380   7.931  0.2734 -0.0105 -0.1047
  498loPI   C4B 7968  16.472  17.663   7.597  0.0635  0.1450  0.0198
  499loPI    C1 7969  16.677  15.519   9.672  0.0641 -0.2330 -0.2031
  499loPI    C2 7970  16.498  15.197   9.826  0.0873 -0.1420  0.0181
  499loPI    C3 7971  16.847  15.322   9.976  0.1132 -0.0546 -0.1133
  499loPI   PO4 7972  16.599  15.426   9.403 -0.0357 -0.1265 -0.0195
  499loPI   GL1 7973  16.464  15.093   9.008 -0.4660 -0.0006  0.1093
  499loPI   GL2 7974  16.428  15.502   8.901  0.0670  0.1727  0.2800
  499loPI   C1A 7975  16.496  15.021   8.683 -0.0578  0.1067 -0.2138
  499loPI   C2A 7976  16.381  14.775   8.255  0.0746 -0.0695 -0.0713
  499loPI   C3A 7977  16.388  14.794   7.756  0.1629 -0.0198 -0.1171
  499loPI   C4A 7978  16.572  14.856   7.374 -0.0119  0.2032 -0.1245
  499loPI   C5A 7979  16.334  14.901   6.981  0.1178  0.0968 -0.0177
  499loPI   C6A 7980  15.854  14.764   6.826 -0.3172 -0.2352 -0.0306
  499loPI   C1B 7981  16.483  15.546   8.485 -0.2573  0.1569 -0.1707
  499loPI   C2B 7982  16.474  15.386   8.030 -0.2353  0.0630 -0.2188
  499loPI   C3B 7983  16.414  15.311   7.640 -0.2026  0.3319 -0.0488
  499loPI   C4B 7984  16.554  15.284   7.189 -0.0669 -0.1211 -0.3117
  500loPI    C1 7985   6.360  18.925   9.956  0.2717  0.0334 -0.0148
  500loPI    C2 7986   6.364  18.555   9.802  0.1776  0.0253  0.0010
  500loPI    C3 7987   6.260  18.612  10.184  0.0276  0.0851 -0.0479
  500loPI   PO4 7988   6.312  19.096   9.787  0.1604 -0.0430 -0.2308
  500loPI   GL1 7989   6.280  18.920   9.394 -0.1910 -0.0693 -0.1908
  500loPI   GL2 7990   5.975  19.015   9.386  0.0103  0.0108 -0.0046
  500loPI   C1A 7991   6.333  19.226   9.096  0.0390 -0.0889 -0.0568
  500loPI   C2A 7992   6.536  19.469   8.865 -0.3434  0.2698  0.2207
  500loPI   C3A 7993   6.815  19.545   8.624 -0.2057  0.0543  0.1468
  500loPI   C4A 7994   7.027  19.815   8.326 -0.1803 -0.0725 -0.3026
  500loPI   C5A 7995   6.795  19.925   7.886  0.0083  0.3798  0.1358
  500loPI   C6A 7996   6.916  20.265   7.563 -0.1778 -0.2450  0.0573
  500loPI   C1B 7997   5.911  18.916   8.990 -0.0715  0.1297  0.0982
  500loPI   C2B 7998   6.213  18.987   8.665 -0.0883  0.2212  0.0901
  500loPI   C3B 7999   6.341  18.652   8.342  0.2031  0.1408  0.1553
  500loPI   C4B 8000   6.569  18.295   8.479 -0.0163 -0.0586 -0.0778
  501loPI    C1 8001  16.255  12.088   9.523  0.1738  0.0230  0.3577
  501loPI    C2 8002  15.969  12.011   9.255  0.3007 -0.0681  0.2469
  501loPI    C3 8003  15.915  12.298   9.527  0.0296 -0.2064  0.3435
  501loPI   PO4 8004  16.465  11.938   9.416 -0.0564 -0.0223  0.2666
  501loPI   GL1 8005  16.678  12.171   9.135 -0.0383  0.0023 -0.2003
  501loPI   GL2 8006  16.493  12.092   8.889 -0.2080 -0.3913 -0.0661
  501loPI   C1A 8007  17.014  12.274   8.792 -0.0905 -0.2932  0.2111
  501loPI   C2A 8008  17.165  12.189   8.271 -0.0064  0.2029  0.1502
  501loPI   C3A 8009  17.303  12.370   7.936 -0.2527 -0.1106  0.3667
  501loPI   C4A 8010  17.286  12.307   7.515  0.1319 -0.3535  0.1809
  501loPI   C5A 8011  17.360  12.338   7.057 -0.1275  0.3144  0.2083
  501loPI   C6A 8012  17.551  12.231   6.704 -0.0205  0.1972 -0.2409
  501loPI   C1B 8013  16.427  11.698   8.616  0.0064 -0.0100  0.1553
  501loPI   C2B 8014  16.225  11.364   8.434 -0.1282 -0.1879  0.1856
  501loPI   C3B 8015  16.389  11.015   8.252  0.0774  0.0027  0.1754
  501loPI   C4B 8016  16.785  10.853   8.058 -0.1210  0.1020 -0.1625
  502loPI    C1 8017  16.779  18.714   9.831 -0.1828 -0.0194  0.0936
  502loPI    C2 8018  16.771  18.370   9.628  0.0953  0.1387 -0.1956
  502loPI    C3 8019  16.758  18.367  10.028  0.1993 -0.2118 -0.1915
  502loPI   PO4 8020  16.834  18.872   9.652  0.1680 -0.1066 -0.0750
  502loPI   GL1 8021  16.756  18.917   9.203  0.0464  0.0228  0.4438
  502loPI   GL2 8022  16.713  18.558   9.136 -0.3655  0.1659  0.2555
  502loPI   C1A 8023  16.760  18.895   8.742  0.1606  0.1964 -0.0040
  502loPI   C2A 8024  16.868  18.826   8.282 -0.0325 -0.1255  0.0301
  502loPI   C3A 8025  16.815  18.775   7.887  0.0606  0.2569  0.4932
  502loPI   C4A 8026  17.011  18.656   7.566  0.1567  0.2880 -0.1081
  502loPI   C5A 8027  17.152  18.352   7.304 -0.0900 -0.2943  0.2042
  502loPI   C6A 8028  17.101  18.076   6.970 -0.0506  0.2897 -0.0709
  502loPI   C1B 8029  16.767  18.324   8.648 -0.3323  0.1810 -0.0843
  502loPI   C2B 8030  16.577  18.360   8.226 -0.0685  0.0416 -0.0863
  502loPI   C3B 8031  16.363  18.596   7.981 -0.1260  0.0161  0.3318
  502loPI   C4B 8032  16.483  18.962   7.606  0.2938 -0.2128  0.1471
  503loPI    C1 8033  19.442   1.385  10.237 -0.0015  0.0799  0.1469
  503loPI    C2 8034  19.804   1.441  10.075 -0.0312 -0.0577  0.0305
  503loPI    C3 8035  19.743   1.137  10.328 -0.0724 -0.0509  0.0288
  503loPI   PO4 8036  19.286   1.537  10.004  0.2916 -0.2111 -0.0858
  503loPI   GL1 8037  19.471   1.501   9.622 -0.0493 -0.2716 -0.0183
  503loPI   GL2 8038  19.638   1.787   9.632 -0.1554 -0.4389 -0.0249
  503loPI   C1A 8039  19.584   1.378   9.275  0.1281  0.1530  0.2572
  503loPI   C2A 8040  19.765   1.326   8.837 -0.0453  0.1282 -0.0676
  503loPI   C3A 8041  19.765   1.229   8.369  0.1280 -0.4117  0.1971
  503loPI   C4A 8042  19.679   1.101   7.872 -0.0998  0.1118 -0.0521
  503loPI   C5A 8043  19.643   1.059   7.482 -0.1141 -0.1731  0.0748
  503loPI   C6A 8044  19.507   0.958   6.970 -0.3620  0.0459 -0.1508
  503loPI   C1B 8045  19.600   1.859   9.240 -0.1739 -0.0695  0.1265
  503loPI   C2B 8046  19.677   1.866   8.849  0.0211 -0.0230  0.0872
  503loPI   C3B 8047  19.722   1.862   8.423 -0.1752 -0.0566 -0.3239
  503loPI   C4B 8048  19.684   1.674   8.103  0.0254 -0.2873  0.1407
  504loPI    C1 8049   9.883  13.888   9.183  0.0440 -0.0165 -0.1331
  504loPI    C2 8050   9.912  14.194   9.439 -0.0416 -0.2531  0.1651
  504loPI    C3 8051  10.207  14.121   9.180 -0.1274  0.2262 -0.0777
  504loPI   PO4 8052   9.720  13.989   9.019 -0.2140  0.1399  0.1656
  504loPI   GL1 8053   9.725  14.265   8.654 -0.2356  0.1859  0.2190
  504loPI   GL2 8054  10.053  14.310   8.726 -0.2532 -0.0537  0.1974
  504loPI   C1A 8055   9.578  14.202   8.255  0.0326 -0.0669  0.0541
  504loPI   C2A 8056   9.542  14.369   7.778  0.2245 -0.0034 -0.1435
  504loPI   C3A 8057   9.602  14.185   7.452  0.1115 -0.4130 -0.1940
  504loPI   C4A 8058   9.999  13.934   7.443 -0.2707 -0.1849 -0.0123
  504loPI   C5A 8059  10.241  13.561   7.205  0.1683 -0.2638  0.0881
  504loPI   C6A 8060  10.529  13.187   7.183 -0.1645  0.1163  0.2085
  504loPI   C1B 8061  10.071  14.127   8.290 -0.0996 -0.0719  0.0256
  504loPI   C2B 8062   9.963  13.932   7.973 -0.0808 -0.0537  0.0239
  504loPI   C3B 8063   9.479  13.864   7.867  0.3162 -0.0442  0.2318
  504loPI   C4B 8064   9.169  13.512   7.840  0.1640  0.1498  0.3165
  505loPI    C1 8065  15.641   5.392   9.905  0.0046 -0.1289 -0.1360
  505loPI    C2 8066  16.023   5.498   9.957 -0.0207 -0.0867 -0.0337
  505loPI    C3 8067  15.734   5.684  10.162 -0.0841 -0.2106 -0.0093
  505loPI   PO4 8068  15.683   5.323   9.628  0.0695  0.1223  0.0751
  505loPI   GL1 8069  15.651   5.628   9.291 -0.5191  0.4244 -0.0145
  505loPI   GL2 8070  15.910   5.420   9.189  0.2218 -0.0356 -0.2017
  505loPI   C1A 8071  15.638   5.670   8.819  0.3326  0.0231 -0.2286
  505loPI   C2A 8072  15.723   5.590   8.396  0.0855  0.2304 -0.1341
  505loPI   C3A 8073  15.892   5.319   8.062  0.0876 -0.0603  0.2103
  505loPI   C4A 8074  16.176   5.039   7.722  0.0723 -0.3290 -0.5121
  505loPI   C5A 8075  16.341   4.640   7.697 -0.0353  0.1492 -0.0760
  505loPI   C6A 8076  16.111   4.268   7.623  0.0753 -0.3663  0.1152
  505loPI   C1B 8077  16.157   5.635   8.823 -0.0753 -0.0795  0.0259
  505loPI   C2B 8078  16.489   5.564   8.425  0.1234  0.1339  0.1771
  505loPI   C3B 8079  16.401   5.779   7.989 -0.3757 -0.0864 -0.2207
  505loPI   C4B 8080  16.480   6.112   7.655  0.1134  0.1002  0.1071
  506loPI    C1 8081  13.072   2.041   9.983 -0.1709  0.0374 -0.0443
  506loPI    C2 8082  13.097   2.094  10.379 -0.0832  0.0045 -0.0451
  506loPI    C3 8083  13.040   2.408  10.138  0.0065  0.0424 -0.0172
  506loPI   PO4 8084  13.324   1.801   9.948 -0.1438  0.0467 -0.1666
  506loPI   GL1 8085  13.400   1.556   9.500  0.1766  0.2330  0.1482
  506loPI   GL2 8086  13.686   1.459   9.337 -0.0120  0.4844  0.0156
  506loPI   C1A 8087  13.242   1.677   9.001  0.4273  0.3066  0.2129
  506loPI   C2A 8088  13.065   1.470   8.750  0.0805 -0.4108  0.1087
  506loPI   C3A 8089  12.924   1.200   8.477  0.1214  0.0121 -0.1196
  506loPI   C4A 8090  13.078   0.939   8.117  0.2331 -0.0799 -0.3503
  506loPI   C5A 8091  13.286   0.732   7.896 -0.2572 -0.1640 -0.2019
  506loPI   C6A 8092  13.487   0.546   7.614 -0.0963 -0.1585  0.2505
  506loPI   C1B 8093  13.749   1.783   9.046  0.2606 -0.1224 -0.0754
  506loPI   C2B 8094  13.583   2.021   8.739 -0.2321  0.0965 -0.1562
  506loPI   C3B 8095  13.563   2.123   8.380 -0.2145  0.1585  0.1692
  506loPI   C4B 8096  13.467   2.489   8.133  0.2805 -0.0716 -0.1458
  507loPI    C1 8097  11.199   8.004   9.647 -0.0493 -0.0222  0.0774
  507loPI    C2 8098  11.258   7.882  10.023  0.0547  0.1110  0.1054
  507loPI    C3 8099  11.183   8.268   9.947 -0.2601  0.0353  0.0170
  507loPI   PO4 8100  11.033   7.803   9.539 -0.1567 -0.1659  0.1829
  507loPI   GL1 8101  10.775   7.733   9.130  0.0223 -0.1657 -0.0500
  507loPI   GL2 8102  10.771   7.462   8.927  0.1226  0.0179 -0.0605
  507loPI   C1A 8103  10.809   7.985   8.833 -0.0442  0.0458  0.1222
  507loPI   C2A 8104  10.754   8.271   8.446  0.0408  0.0428  0.3058
  507loPI   C3A 8105  10.700   8.103   8.003 -0.1845  0.1041 -0.0509
  507loPI   C4A 8106  10.777   8.210   7.491  0.4582 -0.3529  0.0330
  507loPI   C5A 8107  10.405   8.437   7.389 -0.0469 -0.1009 -0.2262
  507loPI   C6A 8108  10.048   8.622   7.178  0.1496 -0.1662 -0.0216
  507loPI   C1B 8109  10.772   7.593   8.527 -0.2429  0.1530 -0.1707
  507loPI   C2B 8110  10.655   7.586   8.101 -0.2076 -0.1450 -0.1471
  507loPI   C3B 8111  10.627   7.605   7.649 -0.0391  0.3453  0.2622
  507loPI   C4B 8112  10.578   7.408   7.232 -0.0497  0.2252  0.0889
  508loPI    C1 8113   0.348  13.607   9.668  0.1042 -0.0521 -0.0848
  508loPI    C2 8114   0.221  13.978   9.745  0.0489 -0.1448  0.2855
  508loPI    C3 8115   0.436  13.779  10.018  0.4584 -0.2240 -0.0841
  508loPI   PO4 8116   0.280  13.584   9.412 -0.0687 -0.0100  0.0871
  508loPI   GL1 8117   0.301  13.612   9.067  0.3917  0.0148 -0.0150
  508loPI   GL2 8118   0.024  13.639   8.818 -0.1447  0.1848 -0.2515
  508loPI   C1A 8119   0.547  13.538   8.725  0.0222 -0.2179 -0.4100
  508loPI   C2A 8120   0.434  13.378   8.238 -0.1112 -0.0966  0.1385
  508loPI   C3A 8121   0.416  13.366   7.855  0.1688 -0.0969  0.2532
  508loPI   C4A 8122   0.456  13.190   7.413  0.1277 -0.0446  0.4103
  508loPI   C5A 8123   0.276  12.783   7.205  0.0357  0.0513 -0.0854
  508loPI   C6A 8124  -0.162  12.571   7.081  0.0200 -0.1400 -0.1622
  508loPI   C1B 8125   0.020  13.584   8.443  0.0864  0.0818 -0.1771
  508loPI   C2B 8126  -0.069  13.501   8.112  0.0629 -0.2068  0.2181
  508loPI   C3B 8127  -0.072  13.505   7.774  0.0963 -0.0108 -0.1298
  508loPI   C4B 8128  -0.017  13.443   7.364 -0.3477 -0.1625  0.0990
  509loPI    C1 8129   7.456  11.850   9.884  0.0647  0.1480 -0.2039
  509loPI    C2 8130   7.126  11.955  10.084  0.1240 -0.0238 -0.0124
  509loPI    C3 8131   7.483  11.973  10.264  0.1861 -0.1145 -0.1249
  509loPI   PO4 8132   7.517  11.989   9.565 -0.1177  0.0009  0.0173
  509loPI   GL1 8133   7.394  12.123   9.199 -0.0640 -0.0824 -0.1785
  509loPI   GL2 8134   7.213  12.319   9.025 -0.1430  0.2978  0.2324
  509loPI   C1A 8135   7.464  11.821   8.873 -0.1306 -0.0777  0.0860
  509loPI   C2A 8136   7.365  11.679   8.427  0.1079 -0.1948  0.1008
  509loPI   C3A 8137   7.163  11.624   8.189  0.0266  0.2753 -0.0680
  509loPI   C4A 8138   7.173  11.735   7.754  0.0760  0.2025  0.3678
  509loPI   C5A 8139   6.928  12.021   7.581  0.1765  0.1690 -0.1959
  509loPI   C6A 8140   6.779  11.843   7.321  0.5939 -0.3829  0.2994
  509loPI   C1B 8141   6.953  12.510   8.686 -0.0635  0.0063 -0.2245
  509loPI   C2B 8142   6.951  12.542   8.256 -0.0500  0.0461  0.2054
  509loPI   C3B 8143   7.030  12.481   7.866  0.1014 -0.2250 -0.2496
  509loPI   C4B 8144   6.860  12.588   7.489 -0.0006 -0.3171 -0.1050
  510loPI    C1 8145   6.698   0.914  10.433 -0.0836 -0.1587 -0.2283
  510loPI    C2 8146   6.786   1.271  10.276  0.0902  0.0601  0.3423
  510loPI    C3 8147   6.447   1.222  10.482 -0.0375 -0.1685  0.0843
  510loPI   PO4 8148   6.695   0.749  10.152 -0.1771  0.0894  0.1033
  510loPI   GL1 8149   6.767   0.772   9.654  0.1303 -0.1264  0.0056
  510loPI   GL2 8150   7.039   0.921   9.467  0.1126  0.2060  0.3066
  510loPI   C1A 8151   6.670   0.629   9.199 -0.1846 -0.3639  0.0984
  510loPI   C2A 8152   6.634   0.583   8.746 -0.2451 -0.0133 -0.1143
  510loPI   C3A 8153   6.719   0.732   8.432 -0.0514 -0.2715  0.0252
  510loPI   C4A 8154   6.983   1.124   8.362  0.1760  0.2980 -0.0571
  510loPI   C5A 8155   7.227   1.154   7.992 -0.0207  0.1043  0.1687
  510loPI   C6A 8156   7.396   0.936   7.656  0.3233  0.1909 -0.0359
  510loPI   C1B 8157   6.968   0.988   9.067  0.0770 -0.1957  0.1954
  510loPI   C2B 8158   7.136   0.881   8.748 -0.4057  0.0320  0.2061
  510loPI   C3B 8159   7.205   0.711   8.346 -0.2194 -0.1751  0.2379
  510loPI   C4B 8160   7.230   0.669   7.989  0.0432  0.0011  0.0332
  511loPI    C1 8161  15.598  10.095   9.881  0.0775 -0.1439  0.0051
  511loPI    C2 8162  15.945  10.251  10.002  0.0953 -0.1144 -0.0835
  511loPI    C3 8163  15.603  10.448  10.069  0.0918 -0.1607  0.0362
  511loPI   PO4 8164  15.569  10.048   9.579  0.0825  0.0767 -0.0555
  511loPI   GL1 8165  15.535  10.211   9.174  0.0205 -0.2991 -0.2745
  511loPI   GL2 8166  15.744  10.251   8.968  0.0359 -0.2224  0.0880
  511loPI   C1A 8167  15.322  10.115   8.767  0.1330 -0.0375  0.1623
  511loPI   C2A 8168  15.254   9.932   8.375 -0.1305  0.3419  0.1467
  511loPI   C3A 8169  15.359   9.681   8.006  0.1033 -0.1938 -0.1224
  511loPI   C4A 8170  15.046   9.748   7.676 -0.0407 -0.0137 -0.1560
  511loPI   C5A 8171  15.035   9.323   7.312  0.0329  0.2092  0.1308
  511loPI   C6A 8172  15.123   9.208   6.969 -0.2463 -0.1956  0.2348
  511loPI   C1B 8173  15.729  10.308   8.583 -0.2710 -0.1413  0.1603
  511loPI   C2B 8174  15.609  10.261   8.247 -0.3200 -0.1832 -0.1460
  511loPI   C3B 8175  15.572  10.550   7.871  0.4172  0.2344  0.0345
  511loPI   C4B 8176  15.537  10.599   7.436  0.1294  0.0710 -0.0096
  512loPI    C1 8177   2.724   3.545   9.915  0.1360  0.0056  0.1167
  512loPI    C2 8178   2.472   3.562  10.225  0.0090  0.0795  0.0108
  512loPI    C3 8179   2.527   3.217  10.031 -0.0787  0.0835 -0.0214
  512loPI   PO4 8180   2.707   3.722   9.758 -0.1489  0.2619 -0.0515
  512loPI   GL1 8181   2.459   3.960   9.516 -0.0021  0.1566  0.0677
  512loPI   GL2 8182   2.621   4.175   9.418  0.0343 -0.3472  0.1144
  512loPI   C1A 8183   2.145   3.783   9.224 -0.0734  0.4243 -0.0386
  512loPI   C2A 8184   1.957   3.665   8.816  0.1013  0.1379 -0.0463
  512loPI   C3A 8185   1.860   3.675   8.337 -0.0740  0.1926  0.0400
  512loPI   C4A 8186   1.742   3.525   8.062 -0.1320 -0.0441  0.1480
  512loPI   C5A 8187   1.565   3.709   7.641 -0.1495 -0.2598  0.0418
  512loPI   C6A 8188   1.357   3.854   7.482  0.2763  0.1682  0.0879
  512loPI   C1B 8189   2.541   3.969   9.023 -0.0119 -0.1779  0.0776
  512loPI   C2B 8190   2.767   4.086   8.605  0.2218  0.0057 -0.2724
  512loPI   C3B 8191   3.020   4.360   8.431 -0.1779  0.3562  0.2284
  512loPI   C4B 8192   3.365   4.607   8.294 -0.4476 -0.0265 -0.1905
  513loPI    C1 8193   9.773  13.008   9.409 -0.2946  0.2377  0.0062
  513loPI    C2 8194   9.667  12.804   9.736  0.1710 -0.2226 -0.1159
  513loPI    C3 8195   9.982  13.050   9.748  0.1361 -0.1737 -0.1955
  513loPI   PO4 8196   9.521  12.983   9.220  0.2020  0.1147 -0.4617
  513loPI   GL1 8197   9.283  12.712   8.965 -0.1584 -0.4137  0.2386
  513loPI   GL2 8198   9.260  13.068   8.818  0.4663 -0.0294  0.2068
  513loPI   C1A 8199   9.556  12.679   8.587  0.3481 -0.0366 -0.1004
  513loPI   C2A 8200   9.353  12.656   8.213  0.0279  0.0391  0.0568
  513loPI   C3A 8201   9.301  12.678   7.728  0.0358  0.1046  0.1243
  513loPI   C4A 8202   8.952  12.655   7.425 -0.0190  0.0707 -0.1976
  513loPI   C5A 8203   8.918  12.905   7.136 -0.1703 -0.1977 -0.0357
  513loPI   C6A 8204   8.640  13.065   6.862  0.0331 -0.0502  0.2565
  513loPI   C1B 8205   9.028  12.845   8.576 -0.0717 -0.1919 -0.2853
  513loPI   C2B 8206   8.915  12.510   8.324 -0.0974  0.1627 -0.4258
  513loPI   C3B 8207   8.886  12.460   7.878 -0.2164  0.1700 -0.2283
  513loPI   C4B 8208   9.146  12.168   7.637  0.1881  0.2908  0.3261
  514loPI    C1 8209   2.348  14.408   9.703 -0.1837 -0.1616  0.0175
  514loPI    C2 8210   2.092  14.631   9.915 -0.0595 -0.0984  0.1027
  514loPI    C3 8211   2.256  14.304  10.078  0.0605 -0.0322  0.1159
  514loPI   PO4 8212   2.229  14.319   9.440 -0.1949  0.2171 -0.1835
  514loPI   GL1 8213   2.140  14.063   9.177  0.1679 -0.0412  0.1891
  514loPI   GL2 8214   1.868  14.235   9.048  0.1645  0.4112 -0.1237
  514loPI   C1A 8215   2.262  13.957   8.719 -0.0387  0.2248 -0.0201
  514loPI   C2A 8216   2.251  14.129   8.276  0.3679 -0.0136 -0.0938
  514loPI   C3A 8217   2.072  14.263   7.873 -0.2184 -0.4256  0.0662
  514loPI   C4A 8218   1.886  14.414   7.472  0.0018 -0.0246 -0.5201
  514loPI   C5A 8219   1.683  14.542   7.203  0.2398  0.2049  0.1403
  514loPI   C6A 8220   1.317  14.759   6.981  0.1952  0.0300 -0.0416
  514loPI   C1B 8221   1.952  14.387   8.646 -0.0682  0.0583 -0.2255
  514loPI   C2B 8222   1.794  14.389   8.329 -0.1312  0.3193 -0.5907
  514loPI   C3B 8223   1.500  14.528   8.111  0.1033  0.2968 -0.1420
  514loPI   C4B 8224   1.470  14.751   7.758  0.1171 -0.0709  0.0991
  515loPI    C1 8225  17.856  18.652   9.514  0.1469 -0.1448  0.0743
  515loPI    C2 8226  18.014  18.607   9.879  0.1107  0.1102  0.1235
  515loPI    C3 8227  17.623  18.543   9.821  0.0948  0.1782  0.1535
  515loPI   PO4 8228  18.069  18.552   9.390 -0.0582  0.4841  0.4162
  515loPI   GL1 8229  18.066  18.417   9.031  0.3628  0.0222  0.3128
  515loPI   GL2 8230  18.131  18.115   9.086  0.0502 -0.0333 -0.2364
  515loPI   C1A 8231  18.239  18.519   8.688  0.0657  0.2751  0.0460
  515loPI   C2A 8232  18.549  18.673   8.340  0.3050  0.0350 -0.0737
  515loPI   C3A 8233  18.777  18.598   7.992 -0.1043 -0.0810  0.2822
  515loPI   C4A 8234  18.944  18.648   7.582 -0.3096  0.0567 -0.0799
  515loPI   C5A 8235  18.951  18.962   7.348 -0.1320 -0.0462 -0.1365
  515loPI   C6A 8236  19.415  19.066   6.989 -0.0068 -0.1986 -0.1353
  515loPI   C1B 8237  18.046  17.895   8.662  0.0755 -0.1209  0.1814
  515loPI   C2B 8238  17.990  17.939   8.161 -0.1030 -0.1232 -0.3212
  515loPI   C3B 8239  18.329  17.862   7.829  0.2089  0.1056 -0.0141
  515loPI   C4B 8240  18.661  17.671   7.616  0.0795 -0.2880  0.2168
  516loPI    C1 8241   0.384  17.308   9.632  0.0190 -0.1621 -0.1399
  516loPI    C2 8242   0.497  17.336  10.015  0.1490  0.0385 -0.1914
  516loPI    C3 8243   0.180  17.114   9.916 -0.0173  0.1595  0.0595
  516loPI   PO4 8244   0.350  17.536   9.563 -0.2223 -0.1541 -0.1380
  516loPI   GL1 8245   0.482  17.973   9.382 -0.0302 -0.3007 -0.1701
  516loPI   GL2 8246   0.475  18.318   9.516 -0.1026  0.0243 -0.3827
  516loPI   C1A 8247   0.227  17.873   8.935  0.2459 -0.3641 -0.0095
  516loPI   C2A 8248   0.127  17.977   8.447  0.1487  0.0712  0.2042
  516loPI   C3A 8249   0.402  18.094   8.075  0.0773 -0.1591 -0.0506
  516loPI   C4A 8250   0.716  18.168   7.784 -0.0750 -0.1991  0.2415
  516loPI   C5A 8251   1.141  18.275   7.402  0.0834 -0.1550 -0.0715
  516loPI   C6A 8252   1.306  18.541   7.089 -0.1022  0.0699 -0.1137
  516loPI   C1B 8253   0.658  18.297   9.102  0.2134 -0.1316 -0.1663
  516loPI   C2B 8254   0.696  17.981   8.763  0.1398 -0.0298 -0.1758
  516loPI   C3B 8255   0.845  17.910   8.225 -0.0584 -0.2029 -0.0428
  516loPI   C4B 8256   1.087  17.819   7.839  0.0617 -0.2215 -0.4836
  517loPI    C1 8257  18.603   9.268   9.546 -0.1549 -0.0218  0.3458
  517loPI    C2 8258  18.419   8.929   9.442 -0.0471 -0.0123  0.1189
  517loPI    C3 8259  18.815   8.931   9.503  0.0046  0.1383 -0.2019
  517loPI   PO4 8260  18.374   9.414   9.419 -0.1134 -0.1152  0.0017
  517loPI   GL1 8261  18.468   9.750   9.169  0.1537 -0.2265  0.1729
  517loPI   GL2 8262  18.472  10.035   9.137 -0.0315 -0.0422  0.1195
  517loPI   C1A 8263  18.533   9.572   8.797  0.0090  0.0992 -0.0528
  517loPI   C2A 8264  18.712   9.346   8.398  0.1356 -0.1091 -0.1171
  517loPI   C3A 8265  18.610   9.177   8.056  0.2668  0.1934  0.1230
  517loPI   C4A 8266  18.554   8.946   7.616  0.0697 -0.1191 -0.2212
  517loPI   C5A 8267  18.492   8.765   7.249  0.2571 -0.4480 -0.3135
  517loPI   C6A 8268  18.504   9.097   6.943  0.1554  0.1323 -0.3344
  517loPI   C1B 8269  18.335  10.055   8.784  0.2540  0.3127  0.0208
  517loPI   C2B 8270  18.197  10.407   8.573 -0.2190 -0.1568 -0.2013
  517loPI   C3B 8271  18.367  10.588   8.126 -0.0992 -0.1305  0.0081
  517loPI   C4B 8272  18.460  10.948   7.806  0.3389  0.0499 -0.0333
  518loPI    C1 8273  11.330  10.576   9.856 -0.1492 -0.0295 -0.2145
  518loPI    C2 8274  11.003  10.689  10.057 -0.0837 -0.1070 -0.0628
  518loPI    C3 8275  11.357  10.673  10.243  0.0641  0.2703 -0.3010
  518loPI   PO4 8276  11.281  10.564   9.602 -0.0106  0.0477  0.1151
  518loPI   GL1 8277  11.069  10.426   9.200  0.3358  0.1481 -0.1643
  518loPI   GL2 8278  11.359  10.214   9.223 -0.0316  0.0024  0.0164
  518loPI   C1A 8279  10.693  10.293   8.947  0.0058 -0.2748 -0.1721
  518loPI   C2A 8280  10.488  10.691   8.668 -0.0964  0.0667  0.1017
  518loPI   C3A 8281  10.197  10.905   8.417 -0.0790  0.0350  0.1836
  518loPI   C4A 8282  10.231  11.121   7.964  0.0294  0.0449  0.1707
  518loPI   C5A 8283  10.547  11.324   7.673 -0.0037  0.0956  0.0429
  518loPI   C6A 8284  10.813  11.474   7.286 -0.0828  0.1073  0.0995
  518loPI   C1B 8285  11.467  10.318   8.873  0.1441  0.1984  0.0882
  518loPI   C2B 8286  11.454  10.671   8.533  0.3358  0.1116 -0.0484
  518loPI   C3B 8287  11.029  10.817   8.337 -0.0726  0.0912 -0.1347
  518loPI   C4B 8288  10.606  10.867   8.145  0.0715 -0.0541 -0.0558
  519loPI    C1 8289  17.996   4.006  10.430 -0.1196  0.0917 -0.1779
  519loPI    C2 8290  17.942   4.316  10.677 -0.1682  0.0419 -0.1255
  519loPI    C3 8291  17.929   3.943  10.819  0.0268  0.0194 -0.1639
  519loPI   PO4 8292  18.197   4.076  10.238  0.1281 -0.1076  0.0004
  519loPI   GL1 8293  18.225   4.281   9.894 -0.2682  0.2258  0.2651
  519loPI   GL2 8294  18.150   4.474   9.817 -0.0443  0.1052  0.0310
  519loPI   C1A 8295  18.479   4.097   9.532  0.0280 -0.0869 -0.0487
  519loPI   C2A 8296  18.636   3.970   9.113 -0.3480 -0.1204  0.3021
  519loPI   C3A 8297  18.873   3.861   8.670 -0.3655 -0.1835  0.0371
  519loPI   C4A 8298  19.085   3.699   8.279  0.3899 -0.0816 -0.0173
  519loPI   C5A 8299  19.058   3.646   7.833  0.2458  0.2850 -0.1839
  519loPI   C6A 8300  19.253   3.791   7.468  0.2913 -0.1168  0.2337
  519loPI   C1B 8301  18.292   4.557   9.457 -0.0798  0.1837 -0.0602
  519loPI   C2B 8302  18.379   4.507   9.017  0.0793  0.4229  0.0862
  519loPI   C3B 8303  18.641   4.463   8.683 -0.1383 -0.0838  0.2700
  519loPI   C4B 8304  18.759   4.301   8.383  0.0015 -0.0496 -0.0854
  520loPI    C1 8305  17.706  17.464   9.627 -0.0694 -0.2302  0.0713
  520loPI    C2 8306  17.911  17.697   9.879 -0.1236 -0.0760 -0.0256
  520loPI    C3 8307  17.827  17.319   9.980 -0.3689  0.0605  0.2993
  520loPI   PO4 8308  17.881  17.713   9.403  0.2214 -0.0047  0.1709
  520loPI   GL1 8309  18.235  17.589   9.107  0.0732 -0.1095 -0.1932
  520loPI   GL2 8310  17.915  17.550   8.937 -0.4850 -0.1120  0.0573
  520loPI   C1A 8311  18.525  17.648   8.784 -0.0517  0.0312  0.1834
  520loPI   C2A 8312  18.828  17.795   8.576 -0.1961  0.0211  0.1786
  520loPI   C3A 8313  19.209  17.756   8.268  0.0106  0.1138  0.0225
  520loPI   C4A 8314  19.484  17.952   8.004  0.1043  0.0493 -0.1428
  520loPI   C5A 8315  19.489  18.349   7.736  0.3235  0.1422 -0.3926
  520loPI   C6A 8316  19.253  18.651   7.958  0.0325 -0.0092 -0.0898
  520loPI   C1B 8317  17.577  17.538   8.662  0.0532 -0.2496 -0.3784
  520loPI   C2B 8318  17.520  17.651   8.239 -0.5531 -0.2660 -0.3909
  520loPI   C3B 8319  17.607  17.761   7.860  0.1095 -0.0938 -0.0042
  520loPI   C4B 8320  17.892  17.535   7.595 -0.0153  0.0805 -0.0955
  521loPI    C1 8321   8.155   1.014   9.934  0.2400  0.2508  0.2217
  521loPI    C2 8322   8.148   0.823  10.285 -0.0388  0.0619  0.1166
  521loPI    C3 8323   8.483   1.005  10.164  0.0193  0.2510  0.5431
  521loPI   PO4 8324   8.032   0.845   9.773 -0.4246 -0.3056 -0.4173
  521loPI   GL1 8325   7.667   0.559   9.578  0.0353  0.4431 -0.0414
  521loPI   GL2 8326   7.515   0.836   9.598  0.0513 -0.1467  0.2551
  521loPI   C1A 8327   7.872   0.314   9.168 -0.0783 -0.3447 -0.0527
  521loPI   C2A 8328   7.709   0.098   8.855  0.1623 -0.2010 -0.0961
  521loPI   C3A 8329   7.835  -0.128   8.608 -0.0207 -0.3565 -0.0179
  521loPI   C4A 8330   7.841  -0.460   8.388 -0.1913 -0.1000 -0.0045
  521loPI   C5A 8331   7.751  -0.739   7.995  0.0321  0.1685  0.0382
  521loPI   C6A 8332   7.964  -0.777   7.630 -0.0092 -0.1181  0.1204
  521loPI   C1B 8333   7.485   0.760   9.218  0.0240  0.1398 -0.1365
  521loPI   C2B 8334   7.672   0.810   8.830  0.0810 -0.2030  0.2417
  521loPI   C3B 8335   7.933   0.898   8.589 -0.0384  0.2968 -0.2596
  521loPI   C4B 8336   8.128   1.175   8.210  0.0984  0.1324  0.3459
  522loPI    C1 8337  18.551  13.705   9.504 -0.0208 -0.2639 -0.1193
  522loPI    C2 8338  18.356  13.686   9.853  0.1133 -0.2848 -0.0450
  522loPI    C3 8339  18.315  14.007   9.618  0.1377 -0.2053  0.0587
  522loPI   PO4 8340  18.458  13.400   9.394  0.1600 -0.0358 -0.3464
  522loPI   GL1 8341  18.242  13.247   9.111  0.1305 -0.2621 -0.3685
  522loPI   GL2 8342  18.471  13.088   8.940 -0.0311 -0.4467 -0.0596
  522loPI   C1A 8343  18.212  13.472   8.687  0.1175  0.0843  0.2969
  522loPI   C2A 8344  18.151  13.447   8.241 -0.1788 -0.1934 -0.0761
  522loPI   C3A 8345  18.099  13.408   7.775  0.0269  0.3358  0.0600
  522loPI   C4A 8346  17.793  13.518   7.404 -0.2986 -0.0477 -0.2089
  522loPI   C5A 8347  17.461  13.674   7.215  0.1833  0.4403 -0.1338
  522loPI   C6A 8348  17.316  13.449   6.835  0.0540  0.2631 -0.3437
  522loPI   C1B 8349  18.807  12.989   8.628 -0.1891 -0.1905  0.0706
  522loPI   C2B 8350  18.918  12.757   8.189  0.2607 -0.1600  0.0153
  522loPI   C3B 8351  18.843  12.655   7.791  0.2998 -0.0646  0.0472
  522loPI   C4B 8352  18.953  12.690   7.434 -0.2525 -0.4987 -0.0097
  523loPI    C1 8353   3.150  13.931   9.894 -0.0988 -0.0523 -0.0911
  523loPI    C2 8354   3.152  13.544   9.994  0.1351 -0.0395 -0.0416
  523loPI    C3 8355   2.901  13.797  10.176  0.0781 -0.1427  0.0238
  523loPI   PO4 8356   3.188  13.992   9.662 -0.1774 -0.0498 -0.0502
  523loPI   GL1 8357   3.107  13.810   9.199 -0.3621 -0.1860  0.0136
  523loPI   GL2 8358   3.135  14.000   9.031  0.1987  0.1170  0.1039
  523loPI   C1A 8359   3.466  13.618   8.881 -0.1441  0.0964 -0.0861
  523loPI   C2A 8360   3.596  13.541   8.537  0.1223  0.0946 -0.3165
  523loPI   C3A 8361   3.616  13.292   8.229  0.2939 -0.2003  0.1979
  523loPI   C4A 8362   3.376  12.955   7.974 -0.1166  0.0256 -0.0494
  523loPI   C5A 8363   3.359  12.377   8.002 -0.0335  0.1032 -0.0165
  523loPI   C6A 8364   3.474  12.063   8.309  0.2580  0.0626 -0.0366
  523loPI   C1B 8365   3.267  14.120   8.582  0.0936  0.2529 -0.0756
  523loPI   C2B 8366   3.197  14.374   8.081 -0.0360 -0.1100 -0.0968
  523loPI   C3B 8367   3.407  14.518   7.691  0.4432 -0.2855  0.0664
  523loPI   C4B 8368   3.691  14.448   7.365  0.0921  0.4699 -0.0364
  524loPI    C1 8369   9.438   1.647   9.954  0.0018 -0.1186 -0.0344
  524loPI    C2 8370   9.755   1.820  10.126 -0.0120  0.1271 -0.2512
  524loPI    C3 8371   9.395   1.995  10.146 -0.0867 -0.0297 -0.2126
  524loPI   PO4 8372   9.468   1.606   9.768  0.1079  0.1156  0.3517
  524loPI   GL1 8373   9.607   1.550   9.491  0.2078  0.0183  0.1790
  524loPI   GL2 8374   9.699   1.186   9.377  0.1606  0.2119 -0.2107
  524loPI   C1A 8375   9.767   1.810   9.084  0.3253 -0.0519  0.0253
  524loPI   C2A 8376   9.511   1.907   8.736  0.0643  0.0704 -0.2301
  524loPI   C3A 8377   9.491   1.820   8.252  0.1803  0.1014  0.3417
  524loPI   C4A 8378   9.365   1.894   7.890  0.1615  0.0932  0.1095
  524loPI   C5A 8379   9.464   1.780   7.504 -0.3117  0.0366  0.0493
  524loPI   C6A 8380   9.298   1.527   7.252  0.0589 -0.0488 -0.3697
  524loPI   C1B 8381   9.770   1.293   8.901 -0.0913 -0.4625  0.1845
  524loPI   C2B 8382   9.696   1.361   8.439  0.3319 -0.1792 -0.0195
  524loPI   C3B 8383   9.583   1.360   7.952 -0.3133  0.0848  0.2010
  524loPI   C4B 8384   9.475   1.247   7.629 -0.0247  0.1387 -0.0217
  525loPI    C1 8385   8.868  15.307   9.845  0.0990 -0.1460 -0.2161
  525loPI    C2 8386   8.654  15.626   9.957 -0.0654 -0.2454 -0.2443
  525loPI    C3 8387   8.828  15.394  10.233 -0.0552 -0.2063 -0.2177
  525loPI   PO4 8388   8.666  15.253   9.601  0.0081 -0.0187  0.1242
  525loPI   GL1 8389   8.539  15.393   9.093 -0.2080  0.2734 -0.1491
  525loPI   GL2 8390   8.571  15.711   9.148 -0.1947  0.2473 -0.1639
  525loPI   C1A 8391   8.548  15.569   8.651 -0.1938 -0.0943  0.1153
  525loPI   C2A 8392   8.340  15.663   8.298 -0.1237  0.0082 -0.2023
  525loPI   C3A 8393   8.203  15.680   7.886 -0.0666 -0.3126  0.2212
  525loPI   C4A 8394   8.183  15.956   7.527 -0.0060 -0.0283 -0.0573
  525loPI   C5A 8395   7.935  16.153   7.251  0.1933 -0.1749  0.0918
  525loPI   C6A 8396   7.843  16.480   7.050 -0.4405 -0.0562  0.0855
  525loPI   C1B 8397   8.144  15.639   8.942  0.1127 -0.0244 -0.1931
  525loPI   C2B 8398   7.883  15.425   8.668 -0.3503  0.2232  0.2857
  525loPI   C3B 8399   7.756  15.527   8.171 -0.3248 -0.0366  0.0148
  525loPI   C4B 8400   7.656  15.339   7.850  0.0965  0.0724 -0.0856
  526loPI    C1 8401   2.439  16.171   9.718  0.0831  0.0286  0.0885
  526loPI    C2 8402   2.569  15.794   9.689  0.3872  0.1287  0.1253
  526loPI    C3 8403   2.481  15.949  10.047 -0.2995 -0.0880  0.0641
  526loPI   PO4 8404   2.540  16.281   9.508  0.1177 -0.2705 -0.3773
  526loPI   GL1 8405   2.104  16.460   9.165 -0.1092  0.1386  0.0033
  526loPI   GL2 8406   1.827  16.331   9.143  0.0815 -0.1862 -0.0752
  526loPI   C1A 8407   2.329  16.647   8.865 -0.2052 -0.2511 -0.0870
  526loPI   C2A 8408   2.648  16.552   8.644 -0.0094 -0.1808 -0.1620
  526loPI   C3A 8409   2.929  16.121   8.576 -0.2711 -0.0215  0.0255
  526loPI   C4A 8410   3.208  15.919   8.605  0.0793 -0.1038  0.1883
  526loPI   C5A 8411   3.476  15.606   8.543  0.2953  0.1071  0.0582
  526loPI   C6A 8412   3.555  15.174   8.393  0.3267 -0.2214  0.3452
  526loPI   C1B 8413   1.845  16.359   8.713 -0.2334  0.1221 -0.0613
  526loPI   C2B 8414   1.744  16.292   8.358  0.2561  0.0439  0.2053
  526loPI   C3B 8415   1.602  16.000   7.963  0.0771 -0.0439 -0.1788
  526loPI   C4B 8416   1.464  16.013   7.564  0.2948  0.0222  0.0088
  527loPI    C1 8417  10.584  13.412   9.879 -0.0593 -0.1923 -0.0662
  527loPI    C2 8418  10.729  13.447  10.250 -0.0095 -0.0016 -0.1028
  527loPI    C3 8419  10.462  13.162  10.166 -0.2166  0.1163  0.1412
  527loPI   PO4 8420  10.757  13.438   9.694 -0.1133 -0.2981 -0.0228
  527loPI   GL1 8421  10.721  13.293   9.238  0.0904  0.0969 -0.1692
  527loPI   GL2 8422  10.548  12.970   9.145  0.0593  0.0055  0.2827
  527loPI   C1A 8423  10.999  13.111   8.929 -0.0702  0.1781  0.1705
  527loPI   C2A 8424  10.957  12.981   8.515 -0.0883  0.1960  0.3287
  527loPI   C3A 8425  11.064  12.854   8.138 -0.3681 -0.1073  0.0336
  527loPI   C4A 8426  11.299  12.866   7.731 -0.1464 -0.0592  0.3324
  527loPI   C5A 8427  11.480  12.720   7.332  0.1703  0.3044 -0.1414
  527loPI   C6A 8428  11.419  12.598   6.888 -0.1270 -0.1095 -0.2190
  527loPI   C1B 8429  10.530  13.182   8.718  0.2332 -0.1294 -0.1018
  527loPI   C2B 8430  10.359  13.402   8.560  0.0469  0.2428  0.4080
  527loPI   C3B 8431  10.335  13.673   8.297 -0.3327 -0.2933  0.0428
  527loPI   C4B 8432  10.492  14.020   8.028  0.0175  0.1904  0.0039
  528loPI    C1 8433  13.813  18.404   9.681  0.0847 -0.3393  0.0227
  528loPI    C2 8434  13.970  18.203   9.989  0.0461 -0.1181  0.1886
  528loPI    C3 8435  13.650  18.437  10.045  0.0469 -0.0666 -0.0171
  528loPI   PO4 8436  14.081  18.533   9.585 -0.0947  0.0675 -0.0197
  528loPI   GL1 8437  14.504  18.566   9.378  0.1028  0.0600 -0.3276
  528loPI   GL2 8438  14.760  18.743   9.387  0.0172 -0.1564  0.0302
  528loPI   C1A 8439  14.724  18.539   8.970 -0.1367 -0.1483 -0.0802
  528loPI   C2A 8440  14.838  18.563   8.586 -0.1360  0.1233  0.0785
  528loPI   C3A 8441  14.740  18.538   8.100 -0.0465  0.3464 -0.0443
  528loPI   C4A 8442  14.470  18.402   7.749  0.0897 -0.1660  0.0149
  528loPI   C5A 8443  14.328  18.687   7.314  0.1612  0.2261 -0.1625
  528loPI   C6A 8444  13.981  18.942   7.174  0.0288  0.0324  0.0537
  528loPI   C1B 8445  14.613  19.049   8.995 -0.1407 -0.0347  0.1077
  528loPI   C2B 8446  14.526  19.184   8.579  0.0474  0.1178 -0.1152
  528loPI   C3B 8447  14.767  19.413   8.263 -0.3554  0.3294 -0.1101
  528loPI   C4B 8448  15.019  19.830   8.111  0.1817  0.0887  0.0182
  529loPI    C1 8449  10.648  10.275   9.816 -0.0924 -0.2274 -0.1684
  529loPI    C2 8450  10.630  10.341  10.210 -0.1752 -0.1843 -0.1792
  529loPI    C3 8451  10.521  10.628   9.954  0.1166 -0.1232 -0.2386
  529loPI   PO4 8452  10.502  10.046   9.773  0.2407 -0.0729  0.2479
  529loPI   GL1 8453  10.220   9.941   9.354  0.0590 -0.0349  0.2504
  529loPI   GL2 8454  10.570   9.892   9.299 -0.1139  0.0082 -0.1045
  529loPI   C1A 8455  10.153  10.236   8.945  0.0723  0.1106  0.0772
  529loPI   C2A 8456  10.167  10.343   8.559 -0.1433  0.2250  0.3024
  529loPI   C3A 8457   9.938  10.423   8.200 -0.3134 -0.2698  0.0317
  529loPI   C4A 8458  10.102  10.618   7.891 -0.0206  0.2725 -0.1919
  529loPI   C5A 8459  10.294  10.886   7.524  0.0430 -0.0368 -0.0136
  529loPI   C6A 8460  10.413  11.132   7.205  0.1866  0.2958 -0.2180
  529loPI   C1B 8461  10.566   9.761   8.972 -0.2786  0.0473  0.1678
  529loPI   C2B 8462  10.544   9.922   8.547  0.2501  0.1386 -0.3450
  529loPI   C3B 8463  10.212   9.956   8.199  0.3061 -0.0163 -0.0360
  529loPI   C4B 8464   9.771   9.956   8.076 -0.1948 -0.1199  0.3322
  530loPI    C1 8465   4.717  12.094   9.885 -0.0678 -0.0796 -0.0763
  530loPI    C2 8466   4.394  12.217  10.086 -0.0262 -0.0367 -0.0357
  530loPI    C3 8467   4.511  11.835  10.110  0.0030 -0.0224  0.0554
  530loPI   PO4 8468   4.714  12.099   9.712 -0.3122 -0.0254 -0.0894
  530loPI   GL1 8469   4.650  11.911   9.275 -0.0316 -0.0206 -0.3451
  530loPI   GL2 8470   4.963  11.835   9.377  0.2337 -0.1799 -0.1275
  530loPI   C1A 8471   4.440  11.936   8.935 -0.1603  0.0308 -0.2149
  530loPI   C2A 8472   4.410  12.094   8.536  0.2850 -0.2881 -0.1356
  530loPI   C3A 8473   4.384  12.228   8.166  0.0502 -0.1449 -0.2907
  530loPI   C4A 8474   4.609  12.434   7.872  0.1034 -0.0453  0.1757
  530loPI   C5A 8475   4.664  12.517   7.452 -0.4773  0.3356  0.3609
  530loPI   C6A 8476   4.509  12.844   7.268  0.3379  0.0705  0.0438
  530loPI   C1B 8477   5.040  11.699   8.931 -0.0302 -0.1528  0.0007
  530loPI   C2B 8478   5.005  11.548   8.605 -0.0420  0.2442  0.1494
  530loPI   C3B 8479   5.026  11.668   8.248 -0.0622 -0.0738 -0.1072
  530loPI   C4B 8480   5.071  11.607   7.747  0.0309  0.0836  0.2124
  531loPI    C1 8481  13.568   3.917   9.702  0.0504  0.1834 -0.1249
  531loPI    C2 8482  13.831   3.939  10.003 -0.1093 -0.0991  0.0398
  531loPI    C3 8483  13.442   4.004  10.072 -0.1371 -0.0912 -0.1207
  531loPI   PO4 8484  13.742   3.804   9.558 -0.0619  0.1343 -0.3151
  531loPI   GL1 8485  13.874   3.560   9.134 -0.0818  0.1403  0.0930
  531loPI   GL2 8486  13.524   3.481   9.014  0.2340 -0.0254  0.0718
  531loPI   C1A 8487  14.230   3.510   8.727 -0.2917 -0.3897 -0.1145
  531loPI   C2A 8488  14.506   3.490   8.401 -0.1133 -0.0882 -0.2754
  531loPI   C3A 8489  14.722   3.548   8.010 -0.1570  0.1544  0.1393
  531loPI   C4A 8490  14.574   3.671   7.625 -0.0556  0.0399  0.0943
  531loPI   C5A 8491  14.292   3.739   7.284  0.1857  0.0403 -0.0884
  531loPI   C6A 8492  14.019   3.483   7.246  0.0557  0.1115  0.2187
  531loPI   C1B 8493  13.394   3.363   8.681 -0.3009 -0.4942 -0.0888
  531loPI   C2B 8494  13.122   3.451   8.276  0.2457 -0.2180  0.1364
  531loPI   C3B 8495  13.072   3.401   7.744 -0.1318  0.2698 -0.0806
  531loPI   C4B 8496  13.185   3.316   7.333 -0.2518  0.2096  0.2231
  532loPI    C1 8497   0.963  14.972   9.343  0.0029  0.1725  0.0290
  532loPI    C2 8498   0.660  15.000   9.603  0.1123  0.2011  0.1544
  532loPI    C3 8499   0.933  14.710   9.644 -0.0103  0.0494 -0.0787
  532loPI   PO4 8500   0.898  14.964   9.161 -0.2970 -0.0637  0.3073
  532loPI   GL1 8501   1.088  15.257   8.725  0.0775 -0.2456  0.1680
  532loPI   GL2 8502   0.976  15.563   8.851  0.1554  0.1685  0.1373
  532loPI   C1A 8503   0.976  15.329   8.302 -0.0388  0.3137 -0.1284
  532loPI   C2A 8504   1.089  15.117   7.876 -0.2895 -0.0794  0.2428
  532loPI   C3A 8505   1.159  14.943   7.440  0.2816  0.2641  0.3535
  532loPI   C4A 8506   0.881  14.995   7.132 -0.1460  0.0961  0.2115
  532loPI   C5A 8507   0.843  15.287   6.797 -0.2605  0.1601  0.0780
  532loPI   C6A 8508   1.055  15.494   6.595  0.3139 -0.2702 -0.0070
  532loPI   C1B 8509   0.685  15.789   8.601  0.0127  0.1140 -0.0847
  532loPI   C2B 8510   0.253  16.003   8.542 -0.1267  0.1121 -0.1925
  532loPI   C3B 8511   0.073  16.241   8.186  0.1211 -0.0148 -0.2200
  532loPI   C4B 8512  -0.065  16.511   7.794  0.1235  0.1178  0.0515
  533loPI    C1 8513   0.189  14.906   9.677  0.2514 -0.0466 -0.2271
  533loPI    C2 8514   0.218  15.189   9.958 -0.0046 -0.2139 -0.0269
  533loPI    C3 8515   0.389  14.832  10.016  0.0804 -0.1949 -0.1567
  533loPI   PO4 8516  -0.092  15.092   9.511 -0.1375 -0.2339 -0.3616
  533loPI   GL1 8517  -0.167  15.232   9.112  0.1558 -0.2243 -0.1986
  533loPI   GL2 8518  -0.331  15.500   9.163 -0.1492  0.0809  0.1714
  533loPI   C1A 8519  -0.367  15.201   8.694 -0.0013 -0.0074  0.2255
  533loPI   C2A 8520  -0.278  15.412   8.219  0.1299 -0.0733  0.1605
  533loPI   C3A 8521  -0.215  15.531   7.849  0.2019 -0.1064  0.2271
  533loPI   C4A 8522  -0.152  15.555   7.345 -0.3480  0.0285 -0.0031
  533loPI   C5A 8523  -0.322  15.368   7.108  0.0965  0.2846 -0.2264
  533loPI   C6A 8524  -0.364  15.025   7.174  0.0470 -0.1062  0.2282
  533loPI   C1B 8525  -0.140  15.673   8.779 -0.1737  0.2517  0.1599
  533loPI   C2B 8526  -0.283  15.903   8.449 -0.1303  0.0677 -0.0252
  533loPI   C3B 8527  -0.335  16.013   8.004  0.1625 -0.2582  0.1322
  533loPI   C4B 8528  -0.441  16.238   7.640  0.0303  0.1642 -0.5816
  534loPI    C1 8529   3.075   4.878   9.955 -0.0253  0.1129  0.1536
  534loPI    C2 8530   2.797   4.749  10.212 -0.0151 -0.0367  0.0903
  534loPI    C3 8531   2.840   5.141  10.145 -0.1313 -0.0063  0.1888
  534loPI   PO4 8532   2.993   4.651   9.735 -0.1453 -0.1387 -0.1346
  534loPI   GL1 8533   3.071   4.516   9.386 -0.1110  0.0963 -0.1705
  534loPI   GL2 8534   3.397   4.754   9.280 -0.0547 -0.1189 -0.0192
  534loPI   C1A 8535   2.879   4.369   8.983 -0.0039 -0.0799 -0.2597
  534loPI   C2A 8536   2.635   4.594   8.697 -0.0428  0.0555 -0.1323
  534loPI   C3A 8537   2.507   4.503   8.344  0.2486 -0.2612  0.0006
  534loPI   C4A 8538   2.533   4.461   7.938 -0.1220 -0.1738  0.3204
  534loPI   C5A 8539   2.317   4.747   7.680 -0.3071 -0.0042  0.0961
  534loPI   C6A 8540   1.906   5.016   7.637  0.1911 -0.2744  0.0897
  534loPI   C1B 8541   3.521   4.672   8.820  0.3372 -0.1850 -0.0001
  534loPI   C2B 8542   3.686   4.364   8.574  0.1641 -0.1799 -0.2037
  534loPI   C3B 8543   3.752   4.332   8.208  0.2461 -0.0578  0.0144
  534loPI   C4B 8544   3.927   4.358   7.795  0.0280  0.1360 -0.1361
  535loPI    C1 8545   8.342  11.789  10.161  0.1302 -0.3234  0.0830
  535loPI    C2 8546   8.684  11.833  10.365  0.1016 -0.3352  0.1337
  535loPI    C3 8547   8.367  11.662  10.540 -0.0838  0.1137  0.2515
  535loPI   PO4 8548   8.509  11.922   9.879  0.2516  0.1388  0.0852
  535loPI   GL1 8549   8.441  11.740   9.495  0.1032 -0.1549 -0.1146
  535loPI   GL2 8550   8.714  11.722   9.456 -0.1644 -0.2277  0.1254
  535loPI   C1A 8551   8.377  11.801   9.034  0.1119  0.0596  0.0142
  535loPI   C2A 8552   8.377  11.855   8.547 -0.5733 -0.2487  0.1510
  535loPI   C3A 8553   8.208  11.891   8.157 -0.0339 -0.0736 -0.5200
  535loPI   C4A 8554   8.044  11.957   7.747  0.1854  0.0442  0.0580
  535loPI   C5A 8555   7.661  11.962   7.468 -0.0337  0.0189 -0.0386
  535loPI   C6A 8556   7.334  12.071   7.248 -0.1586 -0.2940  0.1402
  535loPI   C1B 8557   8.754  11.468   9.161  0.2997 -0.0082 -0.3033
  535loPI   C2B 8558   8.851  11.520   8.732 -0.0142  0.0083  0.0488
  535loPI   C3B 8559   8.853  11.582   8.239  0.1229  0.2550  0.2445
  535loPI   C4B 8560   8.996  11.829   7.983 -0.0753 -0.0805  0.4628
  536loPI    C1 8561  13.726   3.470   9.917  0.1502  0.2129  0.1220
  536loPI    C2 8562  13.341   3.470  10.026  0.1864  0.0822  0.2530
  536loPI    C3 8563  13.625   3.549  10.296  0.2519  0.1789  0.1566
  536loPI   PO4 8564  13.684   3.277   9.703 -0.3155 -0.1780  0.0605
  536loPI   GL1 8565  13.677   3.075   9.257  0.4543  0.2809  0.1900
  536loPI   GL2 8566  13.518   2.932   8.952 -0.1596 -0.2830 -0.3495
  536loPI   C1A 8567  14.003   3.114   8.811 -0.2117 -0.0271  0.1309
  536loPI   C2A 8568  14.226   3.081   8.417 -0.0895 -0.0410 -0.1206
  536loPI   C3A 8569  14.061   3.016   8.156 -0.0590 -0.0522 -0.0918
  536loPI   C4A 8570  13.890   2.769   7.777  0.0098 -0.0901 -0.2685
  536loPI   C5A 8571  13.633   2.486   7.594 -0.2130  0.0761 -0.1879
  536loPI   C6A 8572  13.150   2.491   7.740 -0.2758 -0.2746 -0.3023
  536loPI   C1B 8573  13.643   3.038   8.443  0.3384  0.3932 -0.0002
  536loPI   C2B 8574  13.591   3.258   8.157 -0.1501 -0.0490  0.0252
  536loPI   C3B 8575  13.508   3.700   8.245 -0.1331 -0.0257 -0.3883
  536loPI   C4B 8576  13.268   3.871   7.955  0.1214 -0.0014  0.2643
  537loPI    C1 8577   1.618  12.031   9.759  0.1693  0.0627 -0.2131
  537loPI    C2 8578   1.855  12.050  10.080 -0.0545  0.2751 -0.0564
  537loPI    C3 8579   1.532  11.814  10.084  0.0623  0.1107 -0.2087
  537loPI   PO4 8580   1.735  12.013   9.494 -0.1097  0.1447 -0.2801
  537loPI   GL1 8581   1.713  11.648   9.319 -0.0996  0.1877  0.0909
  537loPI   GL2 8582   2.034  11.603   9.340  0.2450  0.2797 -0.1426
  537loPI   C1A 8583   1.720  11.704   8.948  0.1326  0.2057 -0.0994
  537loPI   C2A 8584   1.736  11.394   8.608 -0.1889  0.3203 -0.1114
  537loPI   C3A 8585   1.832  11.410   8.150 -0.0621  0.1999  0.0018
  537loPI   C4A 8586   2.105  11.478   7.851 -0.0242  0.1337 -0.0170
  537loPI   C5A 8587   2.321  11.221   7.546  0.1012  0.0070 -0.0644
  537loPI   C6A 8588   2.372  10.944   7.203 -0.3988 -0.0418 -0.0579
  537loPI   C1B 8589   2.358  11.454   9.107 -0.1734  0.2751  0.0731
  537loPI   C2B 8590   2.180  11.585   8.780  0.4481 -0.0883 -0.0843
  537loPI   C3B 8591   2.041  11.800   8.507 -0.0705  0.0494  0.0117
  537loPI   C4B 8592   2.188  11.935   8.090 -0.0599  0.1497  0.0763
  538loPI    C1 8593   1.912  15.533   9.970 -0.0867 -0.2082 -0.1290
  538loPI    C2 8594   1.643  15.636  10.247 -0.0651  0.0695 -0.2085
  538loPI    C3 8595   1.909  15.347  10.324 -0.2257 -0.0347 -0.0376
  538loPI   PO4 8596   2.046  15.755   9.817  0.2523  0.2195  0.1192
  538loPI   GL1 8597   2.187  15.864   9.340 -0.1382  0.2429  0.0861
  538loPI   GL2 8598   2.471  15.604   9.217  0.0596 -0.1900  0.2424
  538loPI   C1A 8599   2.227  16.058   8.927 -0.2305 -0.0881 -0.0798
  538loPI   C2A 8600   2.401  16.099   8.527 -0.2341 -0.0157 -0.1983
  538loPI   C3A 8601   2.611  16.273   8.195  0.0259 -0.1652  0.2191
  538loPI   C4A 8602   3.076  16.348   8.048  0.0708 -0.1945  0.1909
  538loPI   C5A 8603   3.216  16.586   7.677  0.1179 -0.1240  0.1740
  538loPI   C6A 8604   3.650  16.825   7.717  0.1907 -0.0160  0.3960
  538loPI   C1B 8605   2.678  15.777   8.852 -0.4240  0.3154  0.1032
  538loPI   C2B 8606   2.713  15.703   8.407 -0.0371 -0.0037 -0.1865
  538loPI   C3B 8607   2.898  15.890   7.911  0.0239 -0.0835  0.0221
  538loPI   C4B 8608   3.240  16.018   7.643  0.2173  0.2056  0.0511
  539loPI    C1 8609   2.010   7.166  10.062  0.0883  0.1388  0.2904
  539loPI    C2 8610   1.723   6.969  10.258  0.0417 -0.0177  0.0689
  539loPI    C3 8611   1.630   7.192   9.939  0.1719 -0.1128 -0.0370
  539loPI   PO4 8612   2.214   6.965   9.997 -0.1649  0.0932 -0.0519
  539loPI   GL1 8613   2.338   6.868   9.501  0.1150  0.1159 -0.2436
  539loPI   GL2 8614   2.100   6.824   9.516 -0.2616  0.4199  0.0564
  539loPI   C1A 8615   2.430   6.952   9.098  0.0213  0.1623 -0.0571
  539loPI   C2A 8616   2.281   6.871   8.724  0.3053 -0.1731  0.2916
  539loPI   C3A 8617   2.253   6.804   8.183  0.1363 -0.0921 -0.0019
  539loPI   C4A 8618   2.099   6.909   7.726 -0.0998 -0.3740  0.0014
  539loPI   C5A 8619   2.157   7.119   7.388  0.0416 -0.5737  0.0670
  539loPI   C6A 8620   2.366   7.209   7.137 -0.1663  0.1179 -0.1778
  539loPI   C1B 8621   1.972   6.642   9.152  0.3606  0.0815  0.0147
  539loPI   C2B 8622   1.810   6.565   8.736 -0.0467  0.1099  0.0883
  539loPI   C3B 8623   1.847   6.504   8.234  0.0957 -0.1491  0.5500
  539loPI   C4B 8624   1.584   6.603   7.847  0.0713 -0.0876  0.0495
  540loPI    C1 8625  19.031   9.275   9.932  0.0869 -0.0897  0.1275
  540loPI    C2 8626  18.671   9.430  10.013  0.0756 -0.0825  0.0630
  540loPI    C3 8627  18.844   9.180  10.273  0.0466 -0.0459  0.1175
  540loPI   PO4 8628  19.068   9.434   9.731 -0.1287 -0.0317 -0.0272
  540loPI   GL1 8629  19.186   9.643   9.309 -0.0568  0.0782 -0.1090
  540loPI   GL2 8630  19.316   9.325   9.327 -0.0600 -0.2954  0.1267
  540loPI   C1A 8631  19.075   9.383   8.881 -0.1744  0.0111  0.0081
  540loPI   C2A 8632  19.198   9.287   8.548 -0.0575 -0.0933 -0.0595
  540loPI   C3A 8633  19.122   9.296   8.045 -0.2615 -0.0306 -0.2427
  540loPI   C4A 8634  19.073   9.537   7.674 -0.1529 -0.0975  0.4203
  540loPI   C5A 8635  18.975   9.495   7.231 -0.1227 -0.0477 -0.2929
  540loPI   C6A 8636  19.112   9.738   6.861  0.1134  0.2602  0.0605
  540loPI   C1B 8637  19.600   9.394   8.889  0.0081  0.1613 -0.1355
  540loPI   C2B 8638  19.766   9.184   8.530  0.0762 -0.1271 -0.0355
  540loPI   C3B 8639  19.701   9.067   8.117 -0.1264 -0.1987 -0.1436
  540loPI   C4B 8640  19.526   9.008   7.703 -0.2801  0.0136 -0.2948
  541loPI    C1 8641   3.628   7.184   9.686  0.0104 -0.0172 -0.1986
  541loPI    C2 8642   3.607   7.286  10.072  0.1323  0.1176 -0.2271
  541loPI    C3 8643   3.922   7.080   9.936  0.0516  0.0013 -0.2392
  541loPI   PO4 8644   3.641   7.304   9.564 -0.1819  0.1054 -0.1390
  541loPI   GL1 8645   3.293   7.289   9.290 -0.0461 -0.0111  0.1272
  541loPI   GL2 8646   3.400   7.580   9.217  0.0864  0.0197 -0.1744
  541loPI   C1A 8647   2.956   6.979   9.122  0.0622  0.2949  0.0540
  541loPI   C2A 8648   2.864   6.941   8.680  0.0414  0.1698 -0.4146
  541loPI   C3A 8649   2.969   7.151   8.366  0.0723  0.0487  0.1249
  541loPI   C4A 8650   3.144   7.166   7.955  0.4247 -0.0655 -0.1274
  541loPI   C5A 8651   3.193   7.243   7.493  0.2076 -0.4402  0.2265
  541loPI   C6A 8652   2.891   7.200   7.228 -0.3376 -0.4587  0.1869
  541loPI   C1B 8653   3.719   7.699   8.864 -0.2355  0.0497 -0.0990
  541loPI   C2B 8654   3.754   7.750   8.466  0.1440 -0.0039  0.0560
  541loPI   C3B 8655   3.800   7.541   8.033  0.2145  0.2873  0.1041
  541loPI   C4B 8656   3.640   7.299   7.764  0.1328  0.1065 -0.1228
  542loPI    C1 8657   9.550   5.172   9.802 -0.1998 -0.2256 -0.1676
  542loPI    C2 8658   9.687   4.855  10.004 -0.1990 -0.0010  0.1932
  542loPI    C3 8659   9.788   5.225  10.120 -0.1132  0.1330 -0.2870
  542loPI   PO4 8660   9.631   5.089   9.553  0.0650 -0.1911  0.1947
  542loPI   GL1 8661   9.533   4.885   9.247 -0.1138  0.4139 -0.1006
  542loPI   GL2 8662   9.739   4.671   9.045 -0.2018  0.0811  0.0441
  542loPI   C1A 8663   9.295   4.807   8.953 -0.1151 -0.0085  0.0565
  542loPI   C2A 8664   9.239   4.818   8.439  0.0606 -0.1273  0.3648
  542loPI   C3A 8665   9.042   4.751   8.127 -0.0854 -0.1071 -0.0916
  542loPI   C4A 8666   8.983   4.498   7.850  0.0327 -0.4219 -0.0621
  542loPI   C5A 8667   8.522   4.587   7.741 -0.0071 -0.1619  0.0087
  542loPI   C6A 8668   8.252   4.586   7.418 -0.2355  0.1045  0.0379
  542loPI   C1B 8669   9.674   4.583   8.533  0.2066 -0.1525 -0.1581
  542loPI   C2B 8670   9.463   4.389   8.128  0.0351 -0.1665  0.0161
  542loPI   C3B 8671   9.430   4.538   7.659  0.0844 -0.2447  0.0632
  542loPI   C4B 8672   9.510   4.456   7.182 -0.0572 -0.0111 -0.0143
  543loPI    C1 8673   3.869  17.351   9.827  0.0871  0.3153  0.0968
  543loPI    C2 8674   3.505  17.388   9.987 -0.1683  0.0905 -0.4092
  543loPI    C3 8675   3.801  17.630  10.105 -0.4974  0.3300 -0.0493
  543loPI   PO4 8676   3.896  17.375   9.612  0.0945 -0.1410  0.2837
  543loPI   GL1 8677   3.657  17.497   9.314  0.0257  0.1702 -0.1716
  543loPI   GL2 8678   3.710  17.769   9.252  0.1154 -0.0042  0.3094
  543loPI   C1A 8679   3.542  17.396   8.961 -0.3146  0.3267 -0.3806
  543loPI   C2A 8680   3.726  17.414   8.517  0.1342 -0.3864 -0.2724
  543loPI   C3A 8681   4.034  17.410   8.200 -0.0738  0.0643  0.0412
  543loPI   C4A 8682   4.066  17.578   7.867 -0.1519  0.0861 -0.4608
  543loPI   C5A 8683   4.119  17.967   7.808 -0.1940 -0.0694  0.0874
  543loPI   C6A 8684   4.201  18.329   7.544  0.0512 -0.1339 -0.2892
  543loPI   C1B 8685   3.572  17.885   8.772  0.0906 -0.2728  0.1054
  543loPI   C2B 8686   3.586  17.913   8.438  0.1404  0.0620 -0.0639
  543loPI   C3B 8687   3.642  17.799   8.037 -0.1093 -0.0212  0.1227
  543loPI   C4B 8688   3.605  17.817   7.654  0.0467 -0.2562  0.0153
  544loPI    C1 8689   7.997  16.021   9.806 -0.1703 -0.1904  0.1732
  544loPI    C2 8690   7.897  16.196  10.152 -0.0282  0.1745  0.0350
  544loPI    C3 8691   8.282  16.133  10.062 -0.0599  0.1657 -0.0970
  544loPI   PO4 8692   7.853  16.120   9.619  0.3436  0.1280  0.3368
  544loPI   GL1 8693   8.005  16.012   9.298 -0.2554 -0.1131 -0.0766
  544loPI   GL2 8694   8.168  16.240   9.279 -0.0301  0.1157 -0.0987
  544loPI   C1A 8695   7.696  15.999   8.894  0.0507  0.0523  0.0923
  544loPI   C2A 8696   7.760  15.968   8.353 -0.0164  0.1111 -0.1735
  544loPI   C3A 8697   7.749  15.984   7.900  0.1727  0.2373  0.0817
  544loPI   C4A 8698   7.560  15.994   7.510 -0.3771 -0.0152  0.1570
  544loPI   C5A 8699   7.174  15.823   7.249  0.1103 -0.0552  0.0719
  544loPI   C6A 8700   6.919  15.952   6.863 -0.0699  0.2797 -0.0077
  544loPI   C1B 8701   8.168  16.588   9.062  0.1419  0.2738 -0.1672
  544loPI   C2B 8702   8.223  16.687   8.651  0.0394  0.0587  0.0968
  544loPI   C3B 8703   8.222  16.671   8.267  0.0262  0.0023  0.0201
  544loPI   C4B 8704   7.955  16.870   7.957 -0.3810 -0.1110  0.5051
  545loPI    C1 8705   9.287  11.639  10.463 -0.0861  0.0202  0.0086
  545loPI    C2 8706   9.010  11.545  10.736  0.0047 -0.1052  0.0583
  545loPI    C3 8707   9.103  11.928  10.670 -0.1881 -0.0617  0.0334
  545loPI   PO4 8708   9.143  11.539  10.176  0.0901 -0.0590 -0.1257
  545loPI   GL1 8709   9.200  11.274   9.725  0.1275 -0.0089  0.1434
  545loPI   GL2 8710   8.940  11.127   9.653  0.3143 -0.1307 -0.0185
  545loPI   C1A 8711   9.290  11.451   9.358  0.4394 -0.1809  0.3502
  545loPI   C2A 8712   9.233  11.369   8.968 -0.3869 -0.3096  0.3384
  545loPI   C3A 8713   8.940  11.059   8.881  0.3124  0.0006 -0.0081
  545loPI   C4A 8714   8.841  11.073   8.473  0.2900  0.1077  0.1525
  545loPI   C5A 8715   8.979  10.939   8.108 -0.1669  0.3834 -0.2392
  545loPI   C6A 8716   9.015  10.960   7.715 -0.0177 -0.0921  0.1708
  545loPI   C1B 8717   8.671  11.049   9.363  0.0392 -0.1373 -0.0158
  545loPI   C2B 8718   8.503  10.728   9.171  0.1159 -0.0113  0.0674
  545loPI   C3B 8719   8.395  10.752   8.715 -0.0731 -0.2434  0.0039
  545loPI   C4B 8720   8.577  10.692   8.304 -0.1254 -0.2564 -0.1582
  546loPI    C1 8721   4.861  10.457   9.818  0.0922  0.3630 -0.2084
  546loPI    C2 8722   5.104  10.391   9.507  0.0632 -0.2170 -0.1191
  546loPI    C3 8723   5.217  10.284   9.875 -0.1687 -0.1318 -0.0213
  546loPI   PO4 8724   4.733  10.679   9.712 -0.0248  0.1405 -0.0951
  546loPI   GL1 8725   4.620  10.866   9.320  0.0577  0.2629  0.2515
  546loPI   GL2 8726   4.671  10.439   9.239 -0.3153 -0.2147  0.1227
  546loPI   C1A 8727   4.684  10.903   8.968  0.1180  0.4566 -0.0212
  546loPI   C2A 8728   4.615  11.104   8.503 -0.1361 -0.0990 -0.1327
  546loPI   C3A 8729   4.582  11.225   8.090 -0.0173  0.1341 -0.0846
  546loPI   C4A 8730   4.791  11.129   7.718 -0.2499  0.1135 -0.0489
  546loPI   C5A 8731   5.017  11.070   7.389  0.0894 -0.1469 -0.1316
  546loPI   C6A 8732   5.026  10.794   7.059 -0.0962 -0.0539 -0.1539
  546loPI   C1B 8733   4.956  10.100   9.073 -0.2427  0.0472  0.0640
  546loPI   C2B 8734   5.095   9.939   8.567 -0.0084  0.2140 -0.1384
  546loPI   C3B 8735   5.248   9.857   8.176  0.3178 -0.0378 -0.1782
  546loPI   C4B 8736   5.180   9.882   7.876 -0.1865  0.1547  0.0803
  547loPI    C1 8737  13.348  14.155   9.244  0.1572  0.0884  0.1435
  547loPI    C2 8738  13.193  14.298   9.584 -0.0517  0.0770  0.0546
  547loPI    C3 8739  13.340  13.926   9.572  0.1455  0.1490  0.1858
  547loPI   PO4 8740  13.112  14.176   9.079  0.1114 -0.0238 -0.4776
  547loPI   GL1 8741  13.149  14.145   8.650  0.3135  0.1181  0.0683
  547loPI   GL2 8742  13.280  14.481   8.530  0.1654  0.0170 -0.1179
  547loPI   C1A 8743  13.183  14.025   8.268  0.1213  0.4580  0.0640
  547loPI   C2A 8744  13.266  13.869   7.821  0.1985 -0.2376  0.3267
  547loPI   C3A 8745  13.076  13.972   7.435 -0.0877  0.1514  0.2884
  547loPI   C4A 8746  12.810  13.921   7.150  0.1094  0.1708  0.1426
  547loPI   C5A 8747  12.522  13.568   6.960 -0.2843 -0.0736 -0.0858
  547loPI   C6A 8748  12.268  13.310   6.833  0.0003  0.4323  0.0526
  547loPI   C1B 8749  13.043  14.488   8.213 -0.3890  0.0557 -0.2730
  547loPI   C2B 8750  13.044  14.389   7.765 -0.0642  0.0717  0.1317
  547loPI   C3B 8751  13.103  14.477   7.362 -0.1323  0.1435 -0.1529
  547loPI   C4B 8752  12.815  14.348   6.968 -0.1734  0.2710  0.0568
  548loPI    C1 8753   9.300  13.193   9.634  0.0903  0.1649  0.0389
  548loPI    C2 8754   9.534  13.369   9.905  0.3497 -0.0252 -0.0575
  548loPI    C3 8755   9.309  13.055  10.009  0.1369  0.1551  0.0342
  548loPI   PO4 8756   9.246  13.413   9.480 -0.2206 -0.2443 -0.3428
  548loPI   GL1 8757   9.406  13.426   9.151 -0.0141  0.1605 -0.1215
  548loPI   GL2 8758   9.661  13.485   9.075 -0.2493  0.1529  0.2980
  548loPI   C1A 8759   9.286  13.590   8.768  0.2600  0.2331  0.2779
  548loPI   C2A 8760   9.157  14.001   8.510  0.1220  0.0751  0.0657
  548loPI   C3A 8761   9.091  14.134   8.092 -0.1141 -0.4022 -0.3357
  548loPI   C4A 8762   9.111  14.155   7.676  0.2327 -0.2311 -0.1108
  548loPI   C5A 8763   9.270  13.803   7.427  0.2142 -0.0155 -0.2675
  548loPI   C6A 8764   9.537  13.809   7.093 -0.1468 -0.2498 -0.0998
  548loPI   C1B 8765   9.661  13.265   8.665 -0.0826  0.0596  0.1440
  548loPI   C2B 8766   9.608  13.085   8.176 -0.0179 -0.0384  0.1219
  548loPI   C3B 8767   9.557  13.098   7.715 -0.0015 -0.0989  0.0839
  548loPI   C4B 8768   9.374  13.155   7.315 -0.2310 -0.0159 -0.0240
  549loPI    C1 8769  11.199  12.309   9.922 -0.0462 -0.1323  0.2245
  549loPI    C2 8770  11.494  12.532  10.076 -0.0067 -0.0600  0.0457
  549loPI    C3 8771  11.177  12.438  10.300  0.1645 -0.1621  0.2484
  549loPI   PO4 8772  11.208  12.417   9.616  0.2260 -0.0576 -0.2437
  549loPI   GL1 8773  11.107  12.225   9.193 -0.0490  0.1012 -0.1267
  549loPI   GL2 8774  11.225  12.518   9.124 -0.1608  0.1042  0.4281
  549loPI   C1A 8775  10.996  12.246   8.719 -0.3084  0.1681  0.2091
  549loPI   C2A 8776  10.801  12.509   8.364 -0.1401 -0.1187  0.2582
  549loPI   C3A 8777  10.751  12.433   7.999  0.3155 -0.1300 -0.0582
  549loPI   C4A 8778  10.505  12.684   7.687 -0.0654 -0.2743 -0.4779
  549loPI   C5A 8779  10.344  13.161   7.665 -0.1034 -0.2380  0.3130
  549loPI   C6A 8780  10.286  13.625   7.762 -0.0295 -0.1805 -0.0734
  549loPI   C1B 8781  10.819  12.668   8.910 -0.2263 -0.0649  0.0276
  549loPI   C2B 8782  10.453  12.688   8.686 -0.6439 -0.0095  0.2334
  549loPI   C3B 8783  10.340  12.645   8.309  0.3555 -0.1406 -0.2535
  549loPI   C4B 8784  10.490  12.970   8.134 -0.1891  0.0636  0.1011
  550loPI    C1 8785   9.682   9.988  10.211 -0.3069  0.1451 -0.1135
  550loPI    C2 8786   9.425  10.110  10.492 -0.0189  0.1612  0.1481
  550loPI    C3 8787   9.583   9.743  10.511  0.0547  0.1871  0.0462
  550loPI   PO4 8788   9.676  10.134  10.035  0.0008  0.2191  0.1021
  550loPI   GL1 8789  10.006  10.185   9.726 -0.1147  0.2917  0.2169
  550loPI   GL2 8790  10.226  10.439   9.489 -0.0907 -0.3688  0.0841
  550loPI   C1A 8791   9.824  10.225   9.294 -0.1281 -0.1927 -0.1328
  550loPI   C2A 8792   9.533  10.332   8.862  0.2749 -0.0032  0.0816
  550loPI   C3A 8793   9.171  10.159   8.744  0.2213  0.0917 -0.2444
  550loPI   C4A 8794   8.872  10.292   8.402  0.0638  0.1767 -0.2011
  550loPI   C5A 8795   8.873  10.420   7.963 -0.1540  0.2879 -0.1078
  550loPI   C6A 8796   9.061  10.194   7.654  0.3147  0.2702 -0.0216
  550loPI   C1B 8797  10.464  10.665   9.173  0.2654  0.3411  0.0254
  550loPI   C2B 8798  10.449  11.115   9.031  0.0653  0.1945  0.0854
  550loPI   C3B 8799  10.490  11.305   8.671  0.0342 -0.1601 -0.0750
  550loPI   C4B 8800  10.309  11.583   8.296 -0.1306 -0.0256  0.1169
  551loPI    C1 8801   0.411  16.720   9.698 -0.1385  0.1945 -0.1847
  551loPI    C2 8802   0.027  16.627   9.764 -0.0506 -0.1966 -0.2014
  551loPI    C3 8803   0.307  16.341   9.769  0.2519  0.0934 -0.1282
  551loPI   PO4 8804   0.496  16.856   9.505  0.0445  0.0088 -0.2958
  551loPI   GL1 8805   0.399  17.064   9.012  0.0480 -0.2236  0.1930
  551loPI   GL2 8806   0.613  17.207   9.151 -0.0095 -0.0222 -0.0558
  551loPI   C1A 8807   0.409  16.931   8.653  0.0445 -0.2062  0.0340
  551loPI   C2A 8808   0.471  17.047   8.248 -0.1457 -0.0663  0.0814
  551loPI   C3A 8809   0.461  17.114   7.919 -0.1405 -0.1015  0.1424
  551loPI   C4A 8810   0.339  17.351   7.484  0.0036 -0.1178  0.1664
  551loPI   C5A 8811   0.462  17.582   7.131  0.1966  0.0709 -0.0066
  551loPI   C6A 8812   0.375  18.050   6.844 -0.0501  0.1290 -0.1441
  551loPI   C1B 8813   0.541  17.533   8.785  0.0776  0.0883 -0.0180
  551loPI   C2B 8814   0.380  17.570   8.356 -0.0629  0.0284  0.1999
  551loPI   C3B 8815   0.541  17.688   7.877  0.0052  0.1660 -0.0296
  551loPI   C4B 8816   0.308  17.917   7.535  0.0128  0.1915 -0.0588
  552loPI    C1 8817  12.893  14.576   9.296 -0.0072  0.2095  0.1495
  552loPI    C2 8818  12.522  14.463   9.197  0.0837  0.0801 -0.0491
  552loPI    C3 8819  12.677  14.356   9.550 -0.0734  0.1492  0.0416
  552loPI   PO4 8820  12.834  14.845   9.175 -0.0589 -0.2099  0.2820
  552loPI   GL1 8821  12.794  14.971   8.804  0.1234 -0.2491 -0.1821
  552loPI   GL2 8822  12.754  15.330   8.701  0.1140 -0.0427  0.1935
  552loPI   C1A 8823  12.690  14.842   8.339 -0.0586  0.1924  0.0184
  552loPI   C2A 8824  12.434  14.913   7.895  0.1387 -0.0842 -0.0074
  552loPI   C3A 8825  12.431  14.956   7.477  0.0178  0.1985  0.0016
  552loPI   C4A 8826  12.777  14.915   7.334 -0.3289  0.1291 -0.0931
  552loPI   C5A 8827  12.990  14.786   7.045 -0.1887  0.1546  0.0707
  552loPI   C6A 8828  13.345  14.974   6.768  0.1343  0.0581 -0.1185
  552loPI   C1B 8829  12.470  15.293   8.324  0.1001  0.1463 -0.2088
  552loPI   C2B 8830  12.185  15.391   8.014  0.1495  0.0028  0.0902
  552loPI   C3B 8831  12.097  15.297   7.574  0.0076 -0.1801  0.1116
  552loPI   C4B 8832  11.917  15.154   7.186 -0.0040  0.0111 -0.4339
  553loPI    C1 8833   8.587  17.067  10.030  0.1548  0.1686 -0.2438
  553loPI    C2 8834   8.444  17.072  10.403  0.0950  0.0366 -0.2642
  553loPI    C3 8835   8.547  17.414  10.223  0.2954  0.0853 -0.0618
  553loPI   PO4 8836   8.516  16.883   9.803 -0.0561  0.0353 -0.2897
  553loPI   GL1 8837   8.523  16.782   9.410  0.1920 -0.0633  0.4326
  553loPI   GL2 8838   8.268  17.092   9.403 -0.3237  0.2728 -0.0069
  553loPI   C1A 8839   8.711  16.708   8.948  0.3559  0.1950  0.1379
  553loPI   C2A 8840   8.649  16.518   8.461 -0.1106 -0.2209  0.0699
  553loPI   C3A 8841   8.659  16.473   8.065 -0.2959 -0.1926 -0.1083
  553loPI   C4A 8842   8.854  16.507   7.651 -0.0251 -0.0944  0.1249
  553loPI   C5A 8843   8.979  16.492   7.339  0.1474  0.1806 -0.0327
  553loPI   C6A 8844   8.833  16.297   7.043 -0.5527  0.0689 -0.0819
  553loPI   C1B 8845   8.408  17.095   8.934  0.1408 -0.1886  0.0818
  553loPI   C2B 8846   8.683  17.027   8.521 -0.0081 -0.0443 -0.0876
  553loPI   C3B 8847   8.550  17.044   8.142 -0.1179 -0.0819  0.2745
  553loPI   C4B 8848   8.431  16.799   7.812 -0.0513 -0.0953 -0.0150
  554loPI    C1 8849   6.602   5.012   9.747  0.0410  0.1023  0.1563
  554loPI    C2 8850   6.569   5.238   9.419  0.1409 -0.0364  0.0495
  554loPI    C3 8851   6.374   5.341   9.753 -0.1662 -0.0320 -0.1271
  554loPI   PO4 8852   6.471   4.772   9.669 -0.0627  0.1199  0.2564
  554loPI   GL1 8853   6.397   4.637   9.251  0.0375  0.1409 -0.1867
  554loPI   GL2 8854   6.256   4.891   9.128 -0.2110 -0.1384  0.4650
  554loPI   C1A 8855   6.246   4.466   8.909  0.1015 -0.0027  0.1563
  554loPI   C2A 8856   5.976   4.546   8.521 -0.0910 -0.1967 -0.0870
  554loPI   C3A 8857   5.757   4.622   8.178 -0.2424  0.2982  0.0351
  554loPI   C4A 8858   5.689   4.893   7.839  0.0380 -0.0493  0.1467
  554loPI   C5A 8859   5.449   4.961   7.519  0.0358  0.0847 -0.0630
  554loPI   C6A 8860   5.453   4.978   7.079  0.3673  0.0235 -0.5244
  554loPI   C1B 8861   6.321   4.905   8.641 -0.1572  0.2324 -0.0883
  554loPI   C2B 8862   6.380   5.160   8.296 -0.2480  0.2613 -0.1320
  554loPI   C3B 8863   6.738   5.033   8.079 -0.1127  0.1201 -0.1084
  554loPI   C4B 8864   6.968   5.139   7.831 -0.2038 -0.0263  0.2943
  555loPI    C1 8865  12.432   4.349   9.956  0.2685  0.0716  0.0736
  555loPI    C2 8866  12.128   4.147  10.119  0.0760  0.1201 -0.2181
  555loPI    C3 8867  12.437   3.949   9.962  0.1602  0.0689  0.0080
  555loPI   PO4 8868  12.367   4.512   9.811 -0.3528  0.1239 -0.1058
  555loPI   GL1 8869  12.483   4.500   9.397  0.1535 -0.0598  0.2342
  555loPI   GL2 8870  12.347   4.795   9.303 -0.1269 -0.1717 -0.1003
  555loPI   C1A 8871  12.567   4.196   8.997 -0.1006 -0.0554  0.0748
  555loPI   C2A 8872  12.772   4.071   8.745  0.0327 -0.0562  0.0719
  555loPI   C3A 8873  12.729   3.873   8.314 -0.1850 -0.0411  0.0319
  555loPI   C4A 8874  12.637   3.741   7.898  0.3938  0.0735 -0.0271
  555loPI   C5A 8875  12.680   3.564   7.507 -0.1842  0.1408  0.0113
  555loPI   C6A 8876  12.421   3.317   7.267  0.1899 -0.1257  0.1112
  555loPI   C1B 8877  12.212   4.602   8.922  0.0241 -0.2714 -0.1393
  555loPI   C2B 8878  12.218   4.362   8.432  0.2609 -0.0457 -0.1949
  555loPI   C3B 8879  12.261   3.885   8.246 -0.0621 -0.1256  0.1409
  555loPI   C4B 8880  12.095   3.529   7.945 -0.5445  0.0004 -0.1187
  556loPI    C1 8881  15.895  11.681   9.662 -0.0048 -0.3119  0.0195
  556loPI    C2 8882  15.914  11.352   9.890  0.1992 -0.2809  0.0490
  556loPI    C3 8883  16.249  11.514   9.743  0.0931 -0.1334 -0.0344
  556loPI   PO4 8884  15.670  11.653   9.513  0.0522  0.1126 -0.0833
  556loPI   GL1 8885  15.657  11.603   9.170  0.2048 -0.3002  0.4182
  556loPI   GL2 8886  15.394  11.287   8.998 -0.3022  0.2814 -0.0329
  556loPI   C1A 8887  15.430  11.737   8.811 -0.1191  0.0544 -0.1474
  556loPI   C2A 8888  15.484  11.664   8.412  0.1611 -0.1671  0.1253
  556loPI   C3A 8889  15.898  11.591   8.065 -0.1629 -0.0005  0.0797
  556loPI   C4A 8890  16.223  11.264   7.836  0.2663  0.1771 -0.3527
  556loPI   C5A 8891  16.411  10.971   7.638 -0.1797 -0.0545 -0.0270
  556loPI   C6A 8892  16.467  10.796   7.328 -0.0031  0.2933 -0.0852
  556loPI   C1B 8893  15.544  11.187   8.627 -0.3796 -0.1232  0.0744
  556loPI   C2B 8894  15.771  11.182   8.316  0.0239  0.2732 -0.2071
  556loPI   C3B 8895  15.907  10.942   7.997 -0.3824 -0.0983  0.1025
  556loPI   C4B 8896  15.981  10.723   7.628  0.0456 -0.0734 -0.0877
  557loPI    C1 8897  11.419  15.901   9.630  0.0181 -0.0056 -0.3049
  557loPI    C2 8898  11.406  15.526   9.770 -0.2039  0.0290 -0.2281
  557loPI    C3 8899  11.690  15.778   9.897 -0.1634 -0.0594 -0.1428
  557loPI   PO4 8900  11.355  15.818   9.306 -0.1901 -0.0576  0.0556
  557loPI   GL1 8901  11.444  15.619   8.908 -0.0995  0.2189  0.0967
  557loPI   GL2 8902  11.196  15.839   8.806  0.0091 -0.2136 -0.0285
  557loPI   C1A 8903  11.388  15.565   8.395  0.2555  0.0906 -0.3731
  557loPI   C2A 8904  11.154  15.257   8.089  0.2629 -0.3924  0.0573
  557loPI   C3A 8905  11.021  15.266   7.639  0.2508 -0.0572 -0.0045
  557loPI   C4A 8906  10.763  15.388   7.226 -0.0107 -0.0064  0.0750
  557loPI   C5A 8907  10.748  15.215   6.859  0.0438 -0.2864 -0.0768
  557loPI   C6A 8908  10.802  14.834   6.573  0.2402 -0.0756 -0.0432
  557loPI   C1B 8909  11.112  15.969   8.504 -0.1689 -0.1186  0.3936
  557loPI   C2B 8910  11.036  15.780   8.091 -0.1117 -0.2613 -0.2371
  557loPI   C3B 8911  11.443  15.622   7.858  0.0269 -0.0624  0.1221
  557loPI   C4B 8912  11.845  15.669   7.694 -0.0754 -0.2242 -0.2611
  558loPI    C1 8913   3.676   0.018   9.681  0.3414  0.1297 -0.1468
  558loPI    C2 8914   3.683   0.053  10.079  0.2243  0.0789 -0.1402
  558loPI    C3 8915   3.659  -0.309   9.910 -0.3502  0.1267 -0.1820
  558loPI   PO4 8916   3.422   0.158   9.606  0.1265  0.1909 -0.3891
  558loPI   GL1 8917   3.371   0.371   9.293  0.0650 -0.1178 -0.1307
  558loPI   GL2 8918   3.404   0.604   9.181 -0.1125 -0.0845 -0.0157
  558loPI   C1A 8919   3.279   0.234   8.834  0.0863 -0.0936  0.0005
  558loPI   C2A 8920   3.154  -0.075   8.659 -0.1573  0.3168  0.0175
  558loPI   C3A 8921   3.228  -0.324   8.292 -0.1969 -0.1902  0.0570
  558loPI   C4A 8922   3.167  -0.317   7.862  0.2068  0.2983 -0.0077
  558loPI   C5A 8923   3.012  -0.125   7.563  0.1087 -0.1311  0.2268
  558loPI   C6A 8924   2.644  -0.276   7.396 -0.2260  0.0473 -0.0856
  558loPI   C1B 8925   3.501   1.002   9.013 -0.3769  0.1784  0.1031
  558loPI   C2B 8926   3.303   1.170   8.731  0.2211  0.2473  0.0918
  558loPI   C3B 8927   3.104   1.306   8.391 -0.2323  0.0081 -0.2790
  558loPI   C4B 8928   3.035   1.388   7.959 -0.0245  0.2274 -0.0738
  559loPI    C1 8929   6.825  12.564   9.245 -0.1586 -0.0046 -0.1608
  559loPI    C2 8930   6.670  12.586   9.614  0.0699 -0.0144 -0.0623
  559loPI    C3 8931   6.673  12.237   9.418  0.0994 -0.0458 -0.0060
  559loPI   PO4 8932   7.052  12.742   9.276 -0.0480 -0.0994  0.2064
  559loPI   GL1 8933   7.365  12.764   8.873  0.0626 -0.1549 -0.2611
  559loPI   GL2 8934   7.076  13.014   8.831 -0.0343 -0.1741 -0.3366
  559loPI   C1A 8935   7.396  12.637   8.421  0.3190 -0.1107 -0.1929
  559loPI   C2A 8936   7.333  12.863   8.079  0.3328  0.1335 -0.1780
  559loPI   C3A 8937   7.134  12.914   7.668 -0.0098 -0.1208 -0.0318
  559loPI   C4A 8938   7.258  12.840   7.293 -0.1491  0.0513  0.0291
  559loPI   C5A 8939   7.283  12.525   7.026  0.0548 -0.2014 -0.0290
  559loPI   C6A 8940   7.414  12.285   6.752  0.1794  0.0800 -0.0732
  559loPI   C1B 8941   6.993  13.028   8.439 -0.2880 -0.1774 -0.3761
  559loPI   C2B 8942   6.826  13.012   8.067  0.1604  0.1071  0.0767
  559loPI   C3B 8943   6.652  13.106   7.721 -0.0054  0.2171  0.0335
  559loPI   C4B 8944   6.760  13.072   7.307 -0.3316 -0.3268 -0.2575
  560loPI    C1 8945   3.824   1.951   9.846  0.0016 -0.0655 -0.0729
  560loPI    C2 8946   3.888   1.754  10.189 -0.4607  0.0009  0.0584
  560loPI    C3 8947   4.006   2.135  10.152 -0.1596 -0.0919  0.0405
  560loPI   PO4 8948   3.548   1.883   9.771  0.1867  0.2304  0.1966
  560loPI   GL1 8949   3.177   1.673   9.652 -0.0877 -0.1359 -0.0635
  560loPI   GL2 8950   3.380   1.470   9.490 -0.0026  0.1464 -0.0431
  560loPI   C1A 8951   3.062   1.662   9.168  0.1270 -0.1701  0.0929
  560loPI   C2A 8952   3.203   1.664   8.742  0.0520  0.1169  0.1701
  560loPI   C3A 8953   3.430   1.657   8.339  0.4358 -0.0433 -0.2000
  560loPI   C4A 8954   3.602   1.637   7.987 -0.0008  0.0793  0.1730
  560loPI   C5A 8955   4.066   1.797   7.810 -0.1382  0.0892  0.0619
  560loPI   C6A 8956   4.424   1.638   7.461 -0.2628  0.0942  0.1295
  560loPI   C1B 8957   3.556   1.501   9.070  0.0095 -0.0736  0.0100
  560loPI   C2B 8958   3.632   1.860   8.787  0.0543 -0.1373 -0.1037
  560loPI   C3B 8959   3.781   2.012   8.393 -0.1132 -0.1712 -0.0374
  560loPI   C4B 8960   3.950   2.207   8.027 -0.1152  0.1166 -0.2697
  561loPI    C1 8961   1.324  10.075   9.778 -0.3259 -0.0230 -0.1621
  561loPI    C2 8962   1.464  10.427   9.906 -0.1231 -0.2121  0.1502
  561loPI    C3 8963   1.390  10.134  10.168 -0.3821 -0.3725 -0.0964
  561loPI   PO4 8964   1.317  10.118   9.537 -0.1635 -0.0931  0.0043
  561loPI   GL1 8965   1.516  10.201   9.183 -0.2064  0.0736 -0.1523
  561loPI   GL2 8966   1.752  10.393   9.116 -0.0731 -0.1652  0.1956
  561loPI   C1A 8967   1.738   9.853   8.909  0.4556 -0.1348  0.0532
  561loPI   C2A 8968   1.873   9.830   8.566  0.2673 -0.0484 -0.0582
  561loPI   C3A 8969   1.865   9.699   8.196  0.1964 -0.0297 -0.3755
  561loPI   C4A 8970   1.804   9.932   7.830 -0.1929  0.0970 -0.1310
  561loPI   C5A 8971   1.369  10.099   7.751  0.1968 -0.0293  0.1087
  561loPI   C6A 8972   0.897  10.000   7.695 -0.0316 -0.2372  0.0455
  561loPI   C1B 8973   1.935  10.324   8.673 -0.0111  0.1456  0.2025
  561loPI   C2B 8974   2.183  10.583   8.474 -0.2229 -0.0068  0.0582
  561loPI   C3B 8975   2.565  10.767   8.592  0.1227  0.1148  0.0161
  561loPI   C4B 8976   2.792  11.065   8.330  0.1111  0.1686  0.3773
  562loPI    C1 8977   7.564  19.276   9.846  0.3207 -0.0227  0.1122
  562loPI    C2 8978   7.655  19.663   9.890 -0.3597  0.1487  0.1110
  562loPI    C3 8979   7.507  19.457  10.199 -0.2084 -0.0536  0.0500
  562loPI   PO4 8980   7.768  19.221   9.720  0.0998 -0.1918  0.1334
  562loPI   GL1 8981   8.027  19.047   9.375 -0.1590 -0.2171 -0.1414
  562loPI   GL2 8982   7.928  18.785   9.434  0.0674 -0.5881 -0.0155
  562loPI   C1A 8983   8.137  19.419   8.992 -0.0093 -0.0361 -0.1928
  562loPI   C2A 8984   8.271  19.389   8.477 -0.2067  0.1849 -0.1635
  562loPI   C3A 8985   8.520  19.487   8.173 -0.3668  0.2277  0.2117
  562loPI   C4A 8986   8.762  19.194   7.792 -0.0336 -0.2455 -0.2517
  562loPI   C5A 8987   8.758  18.830   7.511  0.2449  0.0650 -0.3065
  562loPI   C6A 8988   8.628  18.738   7.181 -0.2473 -0.4852 -0.0362
  562loPI   C1B 8989   7.930  18.757   8.971  0.0869 -0.2067  0.0377
  562loPI   C2B 8990   7.793  18.582   8.572  0.1439 -0.1525  0.0166
  562loPI   C3B 8991   7.663  18.391   8.230  0.0302  0.0153 -0.0341
  562loPI   C4B 8992   7.544  18.199   7.910 -0.0369 -0.0069  0.1386
  563loPI    C1 8993  12.264  12.615   9.615  0.0489 -0.0625  0.1088
  563loPI    C2 8994  11.984  12.433   9.836 -0.1050  0.1489  0.0905
  563loPI    C3 8995  12.328  12.548  10.004  0.0371 -0.2454  0.0805
  563loPI   PO4 8996  12.154  12.526   9.308 -0.3346  0.2532 -0.0085
  563loPI   GL1 8997  11.869  12.631   8.957 -0.0623 -0.2372  0.1756
  563loPI   GL2 8998  11.930  12.995   8.885 -0.1893  0.0140  0.2158
  563loPI   C1A 8999  11.648  12.350   8.787 -0.1903  0.0889 -0.1894
  563loPI   C2A 9000  11.371  12.299   8.385  0.0844  0.2587 -0.0900
  563loPI   C3A 9001  11.254  12.398   8.116 -0.3907  0.0036 -0.2320
  563loPI   C4A 9002  11.573  12.354   7.786 -0.0429  0.3374  0.3967
  563loPI   C5A 9003  11.877  12.333   7.478 -0.1511 -0.3323 -0.1854
  563loPI   C6A 9004  12.244  12.236   7.123  0.1702 -0.1177 -0.2253
  563loPI   C1B 9005  11.913  13.110   8.452 -0.0860  0.1845  0.1281
  563loPI   C2B 9006  11.646  13.031   8.094  0.1447  0.2542 -0.0457
  563loPI   C3B 9007  11.712  13.059   7.637 -0.0268 -0.0420 -0.0961
  563loPI   C4B 9008  11.870  13.134   7.263 -0.2956  0.0348  0.0032
  564loPI    C1 9009  14.963  18.091   9.856  0.1004 -0.0909  0.0303
  564loPI    C2 9010  15.252  17.817   9.824 -0.0478 -0.2378 -0.0701
  564loPI    C3 9011  15.279  18.105  10.101  0.2292 -0.2054 -0.1272
  564loPI   PO4 9012  14.810  18.169   9.511  0.1775 -0.1865 -0.0241
  564loPI   GL1 9013  14.578  18.083   9.055 -0.1118  0.1365  0.2167
  564loPI   GL2 9014  14.881  17.913   8.840  0.4836 -0.1776 -0.1439
  564loPI   C1A 9015  14.590  18.167   8.535  0.0291 -0.0786 -0.3344
  564loPI   C2A 9016  14.416  18.095   8.184  0.5183 -0.0046 -0.2676
  564loPI   C3A 9017  14.135  18.025   7.798  0.3600  0.1456  0.0426
  564loPI   C4A 9018  13.630  18.088   7.794  0.0085  0.0728  0.1216
  564loPI   C5A 9019  13.353  18.460   7.769  0.5636 -0.0540  0.0054
  564loPI   C6A 9020  12.935  18.538   7.614 -0.1181  0.0005  0.0481
  564loPI   C1B 9021  15.101  18.084   8.515  0.1070  0.2731  0.2895
  564loPI   C2B 9022  14.956  18.107   8.189  0.2769  0.0268 -0.2381
  564loPI   C3B 9023  14.743  17.991   7.811  0.1385  0.1304  0.3048
  564loPI   C4B 9024  14.469  18.050   7.403 -0.1352  0.0927 -0.2982
  565loPI    C1 9025  10.161  10.993  10.327  0.1547 -0.0154 -0.5298
  565loPI    C2 9026  10.255  10.615  10.419  0.1137  0.0855 -0.0421
  565loPI    C3 9027  10.544  10.889  10.377  0.1163  0.1038  0.0937
  565loPI   PO4 9028   9.927  11.019  10.112 -0.1580  0.2889 -0.2012
  565loPI   GL1 9029   9.714  11.187   9.752 -0.2172  0.0793  0.0595
  565loPI   GL2 9030   9.640  11.088   9.538 -0.0649 -0.1668 -0.1367
  565loPI   C1A 9031  10.110  11.293   9.426 -0.2551  0.2946 -0.2885
  565loPI   C2A 9032  10.122  11.554   8.996  0.1644  0.0309  0.0248
  565loPI   C3A 9033  10.453  11.791   8.838  0.2946 -0.0184  0.1152
  565loPI   C4A 9034  10.734  11.820   8.537  0.1360  0.1659  0.0835
  565loPI   C5A 9035  10.896  11.978   8.213  0.0703 -0.1691  0.0636
  565loPI   C6A 9036  11.041  12.012   7.809  0.1213 -0.0321 -0.1110
  565loPI   C1B 9037  10.009  10.873   9.286 -0.0762 -0.3113  0.2110
  565loPI   C2B 9038   9.932  10.714   8.917 -0.0013  0.0601 -0.0197
  565loPI   C3B 9039   9.725  10.701   8.545 -0.1058 -0.5072  0.1493
  565loPI   C4B 9040   9.735  10.928   8.162 -0.2504 -0.0011 -0.0811
  566loPI    C1 9041  18.259   7.658   9.890  0.0814  0.2429  0.0752
  566loPI    C2 9042  18.368   7.534  10.255  0.0006  0.0407  0.0320
  566loPI    C3 9043  17.985   7.511  10.141  0.0375  0.0334 -0.0924
  566loPI   PO4 9044  18.445   7.556   9.688 -0.0528  0.2856  0.0171
  566loPI   GL1 9045  18.612   7.707   9.385 -0.3037  0.1944  0.1006
  566loPI   GL2 9046  18.713   8.011   9.447  0.1332  0.1531  0.2975
  566loPI   C1A 9047  18.531   7.983   8.941 -0.1091 -0.1622 -0.3414
  566loPI   C2A 9048  18.567   8.308   8.691  0.1076 -0.1139 -0.0728
  566loPI   C3A 9049  18.649   8.370   8.264 -0.1344  0.0960  0.0342
  566loPI   C4A 9050  18.467   8.400   7.885  0.1411  0.0854 -0.1643
  566loPI   C5A 9051  18.375   8.223   7.476 -0.2198  0.2788  0.1588
  566loPI   C6A 9052  18.510   8.286   7.036 -0.1233 -0.1964  0.1067
  566loPI   C1B 9053  19.070   8.061   9.142 -0.1253  0.0914  0.0272
  566loPI   C2B 9054  19.035   8.087   8.694  0.2797  0.1612 -0.2078
  566loPI   C3B 9055  18.881   7.880   8.405  0.1711 -0.3406  0.2347
  566loPI   C4B 9056  18.617   7.627   8.141  0.0527 -0.2720  0.1674
  567loPI    C1 9057  11.781   6.644  10.035 -0.2785  0.0733 -0.0525
  567loPI    C2 9058  12.063   6.919  10.104 -0.1849 -0.0930  0.2487
  567loPI    C3 9059  11.709   6.945  10.288 -0.2406 -0.0772  0.1403
  567loPI   PO4 9060  11.766   6.604   9.747  0.0572 -0.2592  0.1035
  567loPI   GL1 9061  11.710   6.960   9.386 -0.1459  0.0601  0.2046
  567loPI   GL2 9062  11.812   7.306   9.336 -0.3016 -0.0251  0.2379
  567loPI   C1A 9063  11.982   6.903   9.034 -0.1225  0.0688  0.0511
  567loPI   C2A 9064  12.144   6.869   8.653  0.2064  0.0580  0.2791
  567loPI   C3A 9065  12.168   7.021   8.188  0.3210  0.1622  0.1595
  567loPI   C4A 9066  12.054   7.326   7.998  0.1377  0.1120  0.0595
  567loPI   C5A 9067  11.941   7.734   7.851  0.2125 -0.2216  0.0451
  567loPI   C6A 9068  11.844   8.050   7.516 -0.0381 -0.2586  0.4578
  567loPI   C1B 9069  12.072   7.410   8.998  0.2301  0.2040  0.1244
  567loPI   C2B 9070  12.068   7.420   8.606 -0.2700  0.1189 -0.0363
  567loPI   C3B 9071  11.784   7.635   8.418  0.0109  0.2142  0.1467
  567loPI   C4B 9072  11.540   7.567   8.198 -0.1006 -0.1032  0.0884
  568loPI    C1 9073  16.475   5.431   9.900 -0.4118 -0.1384  0.0082
  568loPI    C2 9074  16.498   5.093  10.113  0.1165 -0.0009  0.1846
  568loPI    C3 9075  16.452   5.444  10.299  0.0561  0.0715  0.0351
  568loPI   PO4 9076  16.346   5.284   9.611  0.0285  0.2018  0.2212
  568loPI   GL1 9077  16.410   4.942   9.242 -0.1398  0.1305 -0.1941
  568loPI   GL2 9078  16.231   5.068   9.017  0.1233  0.1763  0.1548
  568loPI   C1A 9079  16.683   4.903   8.808  0.1615 -0.2932  0.0990
  568loPI   C2A 9080  16.663   4.988   8.410 -0.2139  0.0151  0.2933
  568loPI   C3A 9081  16.652   4.849   7.986 -0.4782 -0.5300  0.0665
  568loPI   C4A 9082  16.855   4.510   7.631 -0.1583  0.0058 -0.1208
  568loPI   C5A 9083  16.576   4.202   7.520  0.1814 -0.0638  0.2026
  568loPI   C6A 9084  16.340   3.799   7.577  0.2746 -0.0072 -0.1203
  568loPI   C1B 9085  16.216   5.190   8.586 -0.4902  0.2820  0.3191
  568loPI   C2B 9086  16.151   4.860   8.217  0.2494 -0.0326  0.2963
  568loPI   C3B 9087  15.987   4.390   8.081 -0.0789  0.0063 -0.0037
  568loPI   C4B 9088  15.620   4.319   7.829 -0.0410  0.1285 -0.2036
  569loPI    C1 9089   2.114   9.987   9.613  0.1426  0.0425  0.2810
  569loPI    C2 9090   2.133  10.353   9.452 -0.0683  0.0326  0.2313
  569loPI    C3 9091   1.787  10.218   9.602 -0.0036 -0.1659  0.2040
  569loPI   PO4 9092   2.259   9.810   9.360  0.3196 -0.1581  0.0479
  569loPI   GL1 9093   2.346   9.536   9.082 -0.0785  0.0723  0.0376
  569loPI   GL2 9094   2.705   9.437   9.034 -0.0698  0.1323 -0.3172
  569loPI   C1A 9095   2.292   9.492   8.656 -0.1467 -0.0884 -0.2081
  569loPI   C2A 9096   2.350   9.292   8.320  0.2984 -0.0992  0.0008
  569loPI   C3A 9097   2.445   9.231   7.853  0.2192  0.0031  0.0718
  569loPI   C4A 9098   2.732   9.216   7.458  0.1845  0.1445  0.3970
  569loPI   C5A 9099   2.889   9.467   7.120  0.1450 -0.2924 -0.3413
  569loPI   C6A 9100   2.771   9.921   6.974  0.4958  0.3027 -0.1088
  569loPI   C1B 9101   2.729   9.240   8.747 -0.1019 -0.2226 -0.0471
  569loPI   C2B 9102   2.733   8.978   8.302  0.5152  0.2616  0.0507
  569loPI   C3B 9103   2.892   8.908   7.931 -0.2857  0.0554 -0.1566
  569loPI   C4B 9104   3.083   8.851   7.549 -0.1468  0.0111  0.2858
  570loPI    C1 9105  13.257   6.019  10.245  0.0145  0.2314  0.3795
  570loPI    C2 9106  12.933   6.244  10.307 -0.0191  0.2533  0.1314
  570loPI    C3 9107  13.012   5.937  10.550 -0.2991  0.1659  0.1154
  570loPI   PO4 9108  13.252   6.102   9.939 -0.2807  0.1797 -0.3178
  570loPI   GL1 9109  13.045   5.894   9.556 -0.0989 -0.2364 -0.0241
  570loPI   GL2 9110  13.125   5.622   9.454  0.1903 -0.0550  0.1747
  570loPI   C1A 9111  12.804   6.046   9.274 -0.0594  0.3445  0.0904
  570loPI   C2A 9112  12.559   6.146   8.920 -0.2028  0.1722 -0.0615
  570loPI   C3A 9113  12.507   5.895   8.508 -0.2656  0.0361 -0.0807
  570loPI   C4A 9114  12.673   6.054   8.109 -0.0309 -0.0515 -0.3933
  570loPI   C5A 9115  12.910   6.257   7.961  0.1043  0.1814  0.2683
  570loPI   C6A 9116  13.318   6.363   7.962  0.0448 -0.0321 -0.3030
  570loPI   C1B 9117  13.140   5.421   9.010  0.0232  0.0658 -0.0502
  570loPI   C2B 9118  13.409   5.531   8.677  0.0562  0.1402 -0.0265
  570loPI   C3B 9119  13.446   5.886   8.328 -0.2737  0.0978  0.1408
  570loPI   C4B 9120  13.648   5.893   8.037 -0.2454  0.0141  0.0878
  571loPI    C1 9121   3.707   4.010   9.863  0.2514 -0.1637  0.0353
  571loPI    C2 9122   3.825   4.334  10.066  0.0385 -0.1528  0.1444
  571loPI    C3 9123   4.092   4.054   9.963  0.2269  0.0641  0.0348
  571loPI   PO4 9124   3.527   4.116   9.627 -0.4037 -0.0726 -0.1266
  571loPI   GL1 9125   3.629   4.313   9.275 -0.1003  0.1505  0.1157
  571loPI   GL2 9126   3.381   4.185   9.125 -0.0015 -0.0300 -0.1751
  571loPI   C1A 9127   3.999   4.249   8.978 -0.1039  0.1248  0.0119
  571loPI   C2A 9128   4.155   4.437   8.522 -0.2406  0.2456 -0.0766
  571loPI   C3A 9129   4.254   4.189   8.259  0.2270  0.1599  0.1223
  571loPI   C4A 9130   4.328   3.941   7.812 -0.0755  0.1152 -0.2443
  571loPI   C5A 9131   3.954   3.902   7.438 -0.2016 -0.2602 -0.1295
  571loPI   C6A 9132   3.697   3.863   6.961  0.2969  0.0673  0.0996
  571loPI   C1B 9133   3.250   3.948   8.823  0.0593 -0.0651  0.1985
  571loPI   C2B 9134   3.376   4.010   8.437 -0.0441 -0.3309  0.0343
  571loPI   C3B 9135   3.398   4.077   7.969  0.0523 -0.1412  0.0442
  571loPI   C4B 9136   3.446   3.904   7.517 -0.3656  0.2502  0.0302
  572loPI    C1 9137  17.962   6.809   9.727  0.0423  0.0011 -0.1026
  572loPI    C2 9138  18.044   6.599  10.058  0.0400  0.0847 -0.0487
  572loPI    C3 9139  17.677   6.588   9.900 -0.0256  0.2351  0.0902
  572loPI   PO4 9140  18.046   6.794   9.519  0.0058  0.0847  0.1179
  572loPI   GL1 9141  18.205   7.092   9.275  0.0562  0.1436 -0.1426
  572loPI   GL2 9142  18.004   7.257   9.099  0.1574  0.0824 -0.1926
  572loPI   C1A 9143  18.405   6.983   8.817 -0.2509  0.2219 -0.0380
  572loPI   C2A 9144  18.404   6.774   8.413 -0.0119  0.0589 -0.0238
  572loPI   C3A 9145  18.380   6.635   7.957  0.0059  0.0816 -0.1402
  572loPI   C4A 9146  18.623   6.439   7.568 -0.0888  0.0931  0.0271
  572loPI   C5A 9147  18.862   6.441   7.195  0.1576 -0.1370  0.0473
  572loPI   C6A 9148  18.968   6.279   6.763  0.0047  0.1078 -0.0704
  572loPI   C1B 9149  18.135   7.479   8.712  0.2255  0.1110 -0.0440
  572loPI   C2B 9150  18.248   7.717   8.528  0.0926 -0.0336 -0.2417
  572loPI   C3B 9151  18.327   8.031   8.326 -0.1852  0.1170  0.0009
  572loPI   C4B 9152  18.180   8.464   8.363  0.1591 -0.0719  0.2567
  573loPI    C1 9153  12.886   8.182  10.216 -0.0158 -0.1495 -0.0219
  573loPI    C2 9154  12.967   7.821  10.369 -0.1474 -0.3043 -0.3087
  573loPI    C3 9155  12.942   8.140  10.610  0.1532 -0.4522 -0.0754
  573loPI   PO4 9156  12.657   8.181  10.024 -0.3718  0.2694  0.0982
  573loPI   GL1 9157  12.464   8.202   9.588 -0.0811 -0.1177  0.0830
  573loPI   GL2 9158  12.201   8.342   9.384 -0.2817  0.0902  0.0425
  573loPI   C1A 9159  12.735   8.138   9.241 -0.1252 -0.0208  0.2117
  573loPI   C2A 9160  12.854   8.291   8.829 -0.0498 -0.1105 -0.1656
  573loPI   C3A 9161  13.095   8.381   8.442  0.0513  0.0199 -0.0352
  573loPI   C4A 9162  13.116   8.517   7.984 -0.2868  0.0405  0.1591
  573loPI   C5A 9163  13.418   8.559   7.684  0.2064 -0.0055 -0.0099
  573loPI   C6A 9164  13.841   8.634   7.629  0.1341 -0.0276 -0.1136
  573loPI   C1B 9165  12.314   8.236   8.992 -0.3212  0.0424  0.3846
  573loPI   C2B 9166  12.416   8.299   8.613  0.0005  0.0125  0.1064
  573loPI   C3B 9167  12.613   8.213   8.192 -0.0492  0.2248 -0.0679
  573loPI   C4B 9168  12.628   8.419   7.787 -0.1441  0.0324 -0.0390
  574loPI    C1 9169   3.660  13.292   9.924 -0.1558  0.1480  0.1508
  574loPI    C2 9170   3.628  12.913  10.048 -0.1464  0.0625 -0.1030
  574loPI    C3 9171   3.392  13.195  10.205 -0.2623 -0.0767 -0.0251
  574loPI   PO4 9172   3.725  13.267   9.714  0.0046  0.0368 -0.1392
  574loPI   GL1 9173   3.958  13.113   9.227 -0.1495 -0.1800  0.0277
  574loPI   GL2 9174   3.806  12.741   9.143 -0.0643  0.0774  0.1643
  574loPI   C1A 9175   3.857  13.151   8.791  0.0985  0.0738 -0.0295
  574loPI   C2A 9176   3.925  12.893   8.372 -0.2626  0.0352  0.1340
  574loPI   C3A 9177   3.870  12.838   7.898  0.4186 -0.0512  0.2192
  574loPI   C4A 9178   3.671  12.676   7.551  0.2612 -0.2820 -0.2970
  574loPI   C5A 9179   3.362  12.680   7.133  0.0638  0.2161  0.0628
  574loPI   C6A 9180   2.976  12.833   7.053 -0.1617 -0.2863 -0.1108
  574loPI   C1B 9181   3.873  12.621   8.760 -0.2103  0.1390  0.2474
  574loPI   C2B 9182   3.872  12.415   8.264  0.1045 -0.0145 -0.1869
  574loPI   C3B 9183   4.001  12.400   7.810  0.1555 -0.0001  0.2583
  574loPI   C4B 9184   4.309  12.187   7.572  0.3792 -0.2290 -0.4087
  575loPI    C1 9185  16.773  16.558   9.753  0.0786 -0.2718 -0.0349
  575loPI    C2 9186  16.545  16.497  10.076  0.0147 -0.0292 -0.0319
  575loPI    C3 9187  16.897  16.311  10.042 -0.0444 -0.1693  0.1075
  575loPI   PO4 9188  16.614  16.514   9.589 -0.1228  0.2623  0.1264
  575loPI   GL1 9189  16.628  16.338   9.204  0.4718 -0.0840  0.0211
  575loPI   GL2 9190  16.719  16.606   9.129  0.0914 -0.0608  0.0701
  575loPI   C1A 9191  16.559  16.267   8.805  0.1508 -0.0500  0.1841
  575loPI   C2A 9192  16.713  16.096   8.523  0.2938  0.2464 -0.0532
  575loPI   C3A 9193  16.584  15.899   8.138  0.1637  0.0901 -0.2990
  575loPI   C4A 9194  16.402  15.848   7.746 -0.0135 -0.1950 -0.1944
  575loPI   C5A 9195  16.372  15.758   7.302  0.0273 -0.3581 -0.0880
  575loPI   C6A 9196  16.241  15.846   6.912  0.1646  0.2846  0.1325
  575loPI   C1B 9197  16.630  16.886   8.707 -0.2213  0.2015  0.1187
  575loPI   C2B 9198  16.792  16.889   8.242  0.0069  0.1570 -0.5750
  575loPI   C3B 9199  16.596  16.697   7.970  0.0409 -0.2269  0.1203
  575loPI   C4B 9200  16.658  16.734   7.577 -0.0513 -0.0994  0.0875
  576loPI    C1 9201   6.157  17.454   9.960 -0.2158 -0.1596  0.0848
  576loPI    C2 9202   5.971  17.735  10.175  0.0296  0.1790 -0.1352
  576loPI    C3 9203   6.328  17.599  10.291 -0.1401 -0.1330  0.0342
  576loPI   PO4 9204   6.222  17.566   9.719 -0.1009 -0.0550  0.4993
  576loPI   GL1 9205   5.991  17.792   9.340  0.2884 -0.1185  0.2132
  576loPI   GL2 9206   6.016  17.442   9.283 -0.3064  0.2103  0.3845
  576loPI   C1A 9207   6.316  17.855   9.097  0.3310  0.0184  0.1388
  576loPI   C2A 9208   6.402  17.840   8.636 -0.1777 -0.1321  0.0188
  576loPI   C3A 9209   6.259  17.950   8.249 -0.3648  0.1976  0.0013
  576loPI   C4A 9210   6.230  18.049   7.840 -0.2813  0.0012 -0.3228
  576loPI   C5A 9211   6.309  18.283   7.519  0.3279  0.2497  0.2126
  576loPI   C6A 9212   6.093  18.426   7.153 -0.0814  0.3362 -0.1728
  576loPI   C1B 9213   6.250  17.301   8.913  0.1609  0.0234 -0.0352
  576loPI   C2B 9214   6.417  17.385   8.585 -0.2341  0.1484 -0.1161
  576loPI   C3B 9215   6.447  17.511   8.238  0.1580 -0.1459  0.0712
  576loPI   C4B 9216   6.310  17.495   7.862 -0.5296 -0.1428 -0.0772
  577loPI    C1 9217   4.922   9.194  10.070 -0.0484 -0.2796  0.0067
  577loPI    C2 9218   4.670   8.953  10.265 -0.1252 -0.0771  0.1625
  577loPI    C3 9219   4.946   9.158  10.468  0.0289 -0.1371  0.0157
  577loPI   PO4 9220   4.792   9.345   9.889 -0.1791 -0.2288  0.0506
  577loPI   GL1 9221   4.837   9.493   9.463 -0.0532 -0.0361 -0.0240
  577loPI   GL2 9222   4.530   9.465   9.245 -0.0923 -0.0833  0.0048
  577loPI   C1A 9223   4.951   9.600   9.098  0.4166 -0.0556 -0.1658
  577loPI   C2A 9224   5.217   9.463   8.813  0.0151  0.0989 -0.0183
  577loPI   C3A 9225   5.305   9.406   8.458  0.0009 -0.3807  0.3479
  577loPI   C4A 9226   5.490   9.381   8.017  0.0707  0.0340 -0.1333
  577loPI   C5A 9227   5.904   9.417   7.810  0.2082 -0.0934  0.1719
  577loPI   C6A 9228   6.161   9.386   7.568  0.0857 -0.5029 -0.0229
  577loPI   C1B 9229   4.148   9.336   8.993  0.1557 -0.1420  0.3049
  577loPI   C2B 9230   4.167   9.348   8.585 -0.0713 -0.2900 -0.1731
  577loPI   C3B 9231   4.200   9.430   8.108 -0.2404 -0.2409  0.1203
  577loPI   C4B 9232   4.162   9.688   7.754 -0.0338 -0.0927 -0.0950
  578loPI    C1 9233  16.530   1.332  10.083  0.1954 -0.0121  0.0237
  578loPI    C2 9234  16.533   1.675  10.289  0.1129  0.0079 -0.0083
  578loPI    C3 9235  16.759   1.368  10.409  0.0992  0.0346  0.0864
  578loPI   PO4 9236  16.529   1.446   9.800 -0.0933 -0.0985 -0.1876
  578loPI   GL1 9237  16.786   1.449   9.470  0.1915  0.1775 -0.0227
  578loPI   GL2 9238  16.545   1.531   9.264 -0.0479 -0.1088 -0.0800
  578loPI   C1A 9239  17.204   1.574   9.232  0.2622 -0.0862  0.0531
  578loPI   C2A 9240  17.223   1.836   8.882 -0.5137  0.1642  0.0627
  578loPI   C3A 9241  17.314   2.003   8.443  0.3920  0.0467  0.0095
  578loPI   C4A 9242  17.405   1.890   7.993 -0.2363 -0.2340 -0.0297
  578loPI   C5A 9243  17.319   2.000   7.604 -0.0562 -0.0057  0.1025
  578loPI   C6A 9244  17.040   2.352   7.392  0.1747 -0.1281  0.2061
  578loPI   C1B 9245  16.794   1.909   9.122 -0.1122 -0.2303 -0.1751
  578loPI   C2B 9246  16.877   2.156   8.775  0.1561  0.0443 -0.1831
  578loPI   C3B 9247  16.956   2.354   8.330  0.3147 -0.3695  0.0454
  578loPI   C4B 9248  17.166   2.335   7.995  0.2476  0.1551 -0.1494
  579loPI    C1 9249   1.403   5.538  10.160 -0.0192 -0.2045  0.3284
  579loPI    C2 9250   1.772   5.597  10.018 -0.1651 -0.2726 -0.0936
  579loPI    C3 9251   1.622   5.843  10.295  0.0492 -0.0027 -0.2129
  579loPI   PO4 9252   1.219   5.528   9.914 -0.2300  0.0888  0.0693
  579loPI   GL1 9253   0.980   5.634   9.498  0.0483  0.1771  0.1471
  579loPI   GL2 9254   0.693   5.931   9.491  0.1225  0.1251 -0.0742
  579loPI   C1A 9255   1.094   5.270   9.315 -0.0617 -0.1774 -0.0101
  579loPI   C2A 9256   1.176   4.930   9.095 -0.3424  0.0629 -0.0817
  579loPI   C3A 9257   1.109   4.704   8.687 -0.0846 -0.2234 -0.3232
  579loPI   C4A 9258   1.194   4.443   8.205 -0.1534  0.1309  0.0003
  579loPI   C5A 9259   1.055   4.263   7.809 -0.0348  0.1682  0.1908
  579loPI   C6A 9260   1.287   4.380   7.468 -0.0862  0.1948  0.3760
  579loPI   C1B 9261   0.651   6.120   9.111  0.1231 -0.0355 -0.2610
  579loPI   C2B 9262   0.572   6.060   8.669 -0.0663 -0.1944 -0.0696
  579loPI   C3B 9263   0.477   5.993   8.119  0.2078 -0.2826 -0.0923
  579loPI   C4B 9264   0.454   5.642   7.786  0.0473  0.3211  0.0638
  580loPI    C1 9265   1.219   8.755   9.946 -0.4184 -0.0441 -0.0808
  580loPI    C2 9266   1.071   8.845  10.307 -0.2302  0.0098 -0.0158
  580loPI    C3 9267   1.328   8.541  10.265 -0.0150  0.1934 -0.0513
  580loPI   PO4 9268   1.026   8.803   9.751  0.1761  0.1468 -0.1163
  580loPI   GL1 9269   0.864   8.867   9.372 -0.0473  0.0154 -0.2391
  580loPI   GL2 9270   1.112   9.081   9.353  0.1100 -0.1626 -0.1871
  580loPI   C1A 9271   0.876   8.755   8.908  0.2858  0.1216 -0.2150
  580loPI   C2A 9272   1.008   8.598   8.548  0.2322 -0.0413  0.0859
  580loPI   C3A 9273   0.997   8.730   8.059 -0.0388  0.0078  0.1694
  580loPI   C4A 9274   0.868   9.038   7.773  0.0625  0.4194  0.1445
  580loPI   C5A 9275   0.569   8.994   7.451  0.3641  0.0414  0.1422
  580loPI   C6A 9276   0.614   8.646   7.071 -0.3912  0.1730 -0.0386
  580loPI   C1B 9277   1.036   9.236   8.997 -0.1955  0.2492  0.2054
  580loPI   C2B 9278   0.979   9.459   8.571  0.0195  0.3352  0.0874
  580loPI   C3B 9279   0.933   9.776   8.256  0.1291  0.0489  0.3825
  580loPI   C4B 9280   1.098  10.218   8.154  0.1470  0.1416 -0.1746
  581loPI    C1 9281  14.145   0.995   9.931  0.0773 -0.0085 -0.2244
  581loPI    C2 9282  14.385   0.681   9.870  0.1922  0.0267  0.0310
  581loPI    C3 9283  14.445   0.920  10.184 -0.1413  0.0719  0.0645
  581loPI   PO4 9284  13.935   0.891   9.808  0.0209 -0.1300 -0.1095
  581loPI   GL1 9285  13.893   1.017   9.496  0.0673  0.2184 -0.1869
  581loPI   GL2 9286  14.133   0.924   9.340 -0.0141 -0.1070  0.0383
  581loPI   C1A 9287  13.662   0.857   9.097 -0.1149 -0.1707  0.1167
  581loPI   C2A 9288  13.578   0.489   8.907 -0.2293 -0.0229 -0.1462
  581loPI   C3A 9289  13.811   0.108   8.817 -0.2566 -0.3020 -0.0900
  581loPI   C4A 9290  13.836  -0.077   8.362 -0.1151 -0.0217  0.1262
  581loPI   C5A 9291  13.822  -0.049   7.936 -0.0341  0.0707 -0.0317
  581loPI   C6A 9292  13.699   0.068   7.588 -0.2069  0.1929 -0.0118
  581loPI   C1B 9293  14.003   1.254   9.049  0.0512 -0.3645 -0.0433
  581loPI   C2B 9294  13.697   1.320   8.850 -0.2522 -0.0650 -0.1765
  581loPI   C3B 9295  13.599   1.585   8.474 -0.1640  0.0890  0.1623
  581loPI   C4B 9296  13.276   1.720   8.303  0.0615 -0.1534 -0.0169
  582loPI    C1 9297   4.293  10.564  10.148 -0.0574  0.0352 -0.0592
  582loPI    C2 9298   4.679  10.575  10.253 -0.0677  0.6499 -0.0488
  582loPI    C3 9299   4.405  10.437  10.511  0.1596 -0.0142 -0.1418
  582loPI   PO4 9300   4.267  10.815  10.005 -0.2655 -0.0563 -0.0782
  582loPI   GL1 9301   4.271  11.042   9.613 -0.3059 -0.0537 -0.3592
  582loPI   GL2 9302   4.118  10.746   9.485  0.0423  0.1130 -0.1789
  582loPI   C1A 9303   4.220  11.129   9.182 -0.0459 -0.1191 -0.2752
  582loPI   C2A 9304   4.223  11.052   8.754  0.0579  0.3855  0.2709
  582loPI   C3A 9305   4.153  10.738   8.330 -0.1259 -0.3095 -0.2102
  582loPI   C4A 9306   4.234  10.759   7.885  0.0474 -0.4025 -0.0853
  582loPI   C5A 9307   4.327  11.017   7.604 -0.1138  0.1384 -0.0125
  582loPI   C6A 9308   4.079  11.384   7.394 -0.0355 -0.2159  0.3478
  582loPI   C1B 9309   4.210  10.611   9.146 -0.1276 -0.1342  0.3755
  582loPI   C2B 9310   4.452  10.546   8.739 -0.0332  0.1734  0.1791
  582loPI   C3B 9311   4.832  10.390   8.556  0.2209 -0.0601  0.0165
  582loPI   C4B 9312   5.012  10.332   8.131  0.0108  0.0269 -0.2028
  583loPI    C1 9313   9.347  17.122  10.099  0.1619 -0.1638  0.0663
  583loPI    C2 9314   9.047  16.865  10.035  0.0362  0.0264 -0.1225
  583loPI    C3 9315   9.021  17.133  10.330  0.2562 -0.3064  0.2083
  583loPI   PO4 9316   9.433  17.206   9.870  0.1142  0.1709  0.1285
  583loPI   GL1 9317   9.707  17.121   9.400 -0.0630 -0.3362 -0.0840
  583loPI   GL2 9318   9.451  17.190   9.337  0.0117 -0.2573 -0.2407
  583loPI   C1A 9319   9.826  17.036   8.884  0.2448  0.0419  0.1404
  583loPI   C2A 9320   9.563  17.123   8.568 -0.1006 -0.2730  0.0668
  583loPI   C3A 9321   9.430  17.082   8.177 -0.3100  0.1316 -0.1316
  583loPI   C4A 9322   9.406  17.138   7.629 -0.0018  0.2120 -0.3789
  583loPI   C5A 9323   9.589  17.230   7.261  0.1304  0.0835 -0.1045
  583loPI   C6A 9324   9.641  17.052   6.917 -0.0429  0.2261 -0.2289
  583loPI   C1B 9325   9.469  17.345   8.960 -0.1598 -0.0391  0.1885
  583loPI   C2B 9326   9.527  17.613   8.648 -0.3339 -0.0460  0.1583
  583loPI   C3B 9327   9.541  17.599   8.299  0.0571  0.5611  0.2477
  583loPI   C4B 9328   9.592  17.699   7.877  0.2925 -0.0695 -0.0561
  584loPI    C1 9329  16.374   0.269   9.667 -0.1162  0.0574 -0.0519
  584loPI    C2 9330  16.569   0.531   9.436 -0.0841  0.1906  0.1235
  584loPI    C3 9331  16.736   0.402   9.776 -0.0702 -0.1118  0.0050
  584loPI   PO4 9332  16.278   0.078   9.522  0.0036 -0.3145 -0.0873
  584loPI   GL1 9333  16.349   0.095   9.111  0.2624 -0.1175 -0.0995
  584loPI   GL2 9334  16.478  -0.218   9.024 -0.0337 -0.2024 -0.1816
  584loPI   C1A 9335  16.673   0.248   8.853 -0.1574 -0.1071 -0.2205
  584loPI   C2A 9336  16.910   0.381   8.527  0.0348 -0.1266 -0.1212
  584loPI   C3A 9337  16.909   0.289   8.062 -0.3595  0.1388 -0.1052
  584loPI   C4A 9338  16.992   0.527   7.712  0.0329 -0.0463  0.1138
  584loPI   C5A 9339  16.875   0.777   7.536 -0.1848  0.2727 -0.3034
  584loPI   C6A 9340  16.954   1.183   7.440  0.2313 -0.0887  0.0588
  584loPI   C1B 9341  16.410  -0.153   8.601  0.0628  0.1057 -0.1017
  584loPI   C2B 9342  16.549  -0.203   8.163 -0.1404  0.0272  0.2034
  584loPI   C3B 9343  16.784  -0.271   7.816  0.1073 -0.4895  0.2998
  584loPI   C4B 9344  16.912  -0.412   7.388  0.3723 -0.3101  0.1893
  585loPI    C1 9345  10.081  15.276   9.646  0.0830  0.0811 -0.2983
  585loPI    C2 9346   9.726  15.150   9.781 -0.0297  0.1660 -0.5104
  585loPI    C3 9347   9.937  15.416   9.992 -0.1672  0.2376 -0.4622
  585loPI   PO4 9348  10.084  15.453   9.428 -0.1195  0.4267 -0.0658
  585loPI   GL1 9349  10.184  15.543   9.073 -0.0770 -0.1118 -0.1218
  585loPI   GL2 9350   9.888  15.659   9.029 -0.0574 -0.3778  0.0356
  585loPI   C1A 9351  10.289  15.761   8.677  0.1198  0.1365 -0.3135
  585loPI   C2A 9352  10.075  15.881   8.300 -0.0589 -0.0030 -0.0855
  585loPI   C3A 9353  10.071  15.969   7.805 -0.0180  0.1553 -0.0010
  585loPI   C4A 9354  10.106  15.945   7.299 -0.0334  0.5259 -0.0318
  585loPI   C5A 9355   9.813  15.966   6.921 -0.1078 -0.0427  0.2855
  585loPI   C6A 9356   9.394  15.980   6.715  0.0146  0.0725 -0.3627
  585loPI   C1B 9357   9.900  15.499   8.646  0.2563 -0.0880 -0.0608
  585loPI   C2B 9358   9.672  15.418   8.277  0.0029  0.0721  0.2664
  585loPI   C3B 9359   9.652  15.773   7.978  0.2549  0.3060 -0.3039
  585loPI   C4B 9360   9.647  15.932   7.467 -0.2098  0.1609  0.1201
  586loPI    C1 9361  12.341   7.243   9.901 -0.0665 -0.0834  0.1194
  586loPI    C2 9362  12.719   7.299  10.019 -0.1236  0.3093  0.1303
  586loPI    C3 9363  12.443   7.174  10.281 -0.0313  0.1549  0.1551
  586loPI   PO4 9364  12.333   7.408   9.750 -0.0194  0.3279 -0.0222
  586loPI   GL1 9365  12.697   7.397   9.393 -0.0437  0.3232  0.0842
  586loPI   GL2 9366  12.531   7.699   9.307 -0.0819  0.1876 -0.3638
  586loPI   C1A 9367  12.728   7.297   8.920  0.1580 -0.2469  0.0024
  586loPI   C2A 9368  12.748   7.330   8.611  0.0507 -0.0100 -0.0662
  586loPI   C3A 9369  12.483   7.520   8.297 -0.1185 -0.3863 -0.0550
  586loPI   C4A 9370  12.465   7.781   7.845  0.1152  0.0498  0.0085
  586loPI   C5A 9371  12.308   7.955   7.445 -0.0949 -0.1991  0.0899
  586loPI   C6A 9372  12.165   8.369   7.254 -0.0519  0.1426  0.1318
  586loPI   C1B 9373  12.584   7.807   8.859  0.4376  0.2878  0.0364
  586loPI   C2B 9374  12.821   7.915   8.544 -0.2751  0.0137  0.0457
  586loPI   C3B 9375  12.920   7.768   8.114 -0.2301 -0.4329 -0.0489
  586loPI   C4B 9376  12.927   7.718   7.603 -0.0614 -0.0431 -0.1835
  587loPI    C1 9377   8.313  15.606   9.509 -0.0242 -0.0890 -0.0689
  587loPI    C2 9378   8.048  15.540   9.801 -0.0296 -0.1272 -0.0824
  587loPI    C3 9379   7.931  15.533   9.419 -0.0663  0.1339 -0.0784
  587loPI   PO4 9380   8.407  15.891   9.574 -0.1932  0.2028  0.1477
  587loPI   GL1 9381   8.638  16.171   9.369 -0.0805  0.4535 -0.1824
  587loPI   GL2 9382   8.871  16.216   9.182  0.2371  0.1227  0.0381
  587loPI   C1A 9383   8.483  16.263   8.859 -0.2185 -0.0935 -0.0951
  587loPI   C2A 9384   8.121  16.213   8.652 -0.0000 -0.3712 -0.2157
  587loPI   C3A 9385   8.198  16.119   8.165 -0.4997  0.1314 -0.0117
  587loPI   C4A 9386   8.125  16.398   7.838 -0.4126 -0.1566  0.2182
  587loPI   C5A 9387   7.975  16.723   7.470 -0.0921 -0.1487 -0.1625
  587loPI   C6A 9388   8.022  16.963   7.068 -0.1983 -0.2563  0.0491
  587loPI   C1B 9389   9.011  16.358   8.795  0.0781 -0.1584 -0.1198
  587loPI   C2B 9390   9.093  16.372   8.406  0.2445  0.2342 -0.5016
  587loPI   C3B 9391   9.155  16.351   8.035  0.0637 -0.1843 -0.0938
  587loPI   C4B 9392   9.252  16.165   7.752 -0.0691 -0.2051 -0.0365
  588loPI    C1 9393  17.951  12.995   9.723  0.1153 -0.3268  0.1724
  588loPI    C2 9394  17.915  13.304   9.974 -0.0992 -0.3440  0.1647
  588loPI    C3 9395  18.276  13.155   9.890  0.0213  0.0083  0.0419
  588loPI   PO4 9396  17.879  13.100   9.387  0.0154 -0.1365  0.1584
  588loPI   GL1 9397  17.764  12.827   9.027 -0.2215  0.2031 -0.2217
  588loPI   GL2 9398  17.971  12.911   8.849 -0.1932 -0.1259  0.0917
  588loPI   C1A 9399  17.494  12.704   8.795  0.1633  0.1164  0.3010
  588loPI   C2A 9400  17.454  12.618   8.357  0.1185 -0.3719  0.0534
  588loPI   C3A 9401  17.570  12.809   7.906  0.0009 -0.2711 -0.2555
  588loPI   C4A 9402  17.363  12.841   7.617  0.0205 -0.0532  0.1478
  588loPI   C5A 9403  17.089  12.768   7.217  0.0200 -0.0573 -0.0763
  588loPI   C6A 9404  17.339  12.808   6.900 -0.1554 -0.0516  0.2744
  588loPI   C1B 9405  17.836  13.008   8.422 -0.1942 -0.1371  0.0034
  588loPI   C2B 9406  17.565  13.255   8.096 -0.1622 -0.0674  0.2858
  588loPI   C3B 9407  17.448  13.342   7.708  0.0742  0.1309 -0.2813
  588loPI   C4B 9408  17.242  13.239   7.295 -0.1104 -0.1080 -0.1099
  589loPI    C1 9409   5.681  15.758   9.659  0.0173  0.0403 -0.2233
  589loPI    C2 9410   5.806  16.037   9.400  0.2589  0.0322 -0.1180
  589loPI    C3 9411   5.481  16.103   9.624  0.0028  0.0085 -0.4744
  589loPI   PO4 9412   5.867  15.718   9.768 -0.1698 -0.1997  0.1658
  589loPI   GL1 9413   6.230  15.673   9.573 -0.2898  0.2273  0.1346
  589loPI   GL2 9414   6.517  15.436   9.649  0.1073 -0.2832 -0.6854
  589loPI   C1A 9415   6.561  15.645   9.192  0.0626  0.0386 -0.2542
  589loPI   C2A 9416   6.473  15.691   8.728 -0.1409  0.0210  0.1110
  589loPI   C3A 9417   6.292  15.782   8.353  0.5088 -0.0388  0.1949
  589loPI   C4A 9418   6.235  15.835   7.911  0.0831  0.1075  0.0518
  589loPI   C5A 9419   6.009  15.761   7.594 -0.1555 -0.3016 -0.1219
  589loPI   C6A 9420   5.970  15.750   7.194 -0.0871 -0.0601  0.0475
  589loPI   C1B 9421   6.619  15.132   9.295  0.2799 -0.0302 -0.3398
  589loPI   C2B 9422   6.474  15.166   8.852  0.0462  0.3270  0.0389
  589loPI   C3B 9423   6.499  15.160   8.425 -0.2273 -0.0564 -0.2274
  589loPI   C4B 9424   6.429  15.364   8.055 -0.4215  0.0125 -0.1705
  590loPI    C1 9425   3.894  12.454   9.663  0.1869 -0.0705  0.2303
  590loPI    C2 9426   3.986  12.843   9.660  0.0634 -0.0417  0.0486
  590loPI    C3 9427   4.024  12.631   9.997  0.0871  0.1381  0.1601
  590loPI   PO4 9428   3.831  12.369   9.510  0.1068  0.2070  0.1538
  590loPI   GL1 9429   4.119  12.265   9.180 -0.1205 -0.0132  0.1714
  590loPI   GL2 9430   3.927  12.156   9.017 -0.2101 -0.0920  0.1105
  590loPI   C1A 9431   4.358  12.509   8.807 -0.0849  0.2202 -0.0110
  590loPI   C2A 9432   4.410  12.672   8.468 -0.3026 -0.2398 -0.0556
  590loPI   C3A 9433   4.323  12.811   8.039  0.2850  0.0582  0.0563
  590loPI   C4A 9434   4.256  13.050   7.637  0.1577 -0.0227 -0.0217
  590loPI   C5A 9435   3.987  13.031   7.322 -0.0817  0.1119 -0.2801
  590loPI   C6A 9436   4.011  12.863   6.996 -0.1698  0.0687  0.1204
  590loPI   C1B 9437   3.893  12.016   8.544 -0.0502  0.3212 -0.1801
  590loPI   C2B 9438   3.961  11.940   8.150 -0.0836 -0.1583  0.1277
  590loPI   C3B 9439   4.150  11.538   7.885  0.1055  0.0461 -0.0601
  590loPI   C4B 9440   4.454  11.558   7.656 -0.1611 -0.1655  0.2869
  591loPI    C1 9441   2.475   2.135   9.867 -0.1265 -0.1993 -0.0398
  591loPI    C2 9442   2.175   2.299  10.075  0.0013  0.0056 -0.0136
  591loPI    C3 9443   2.196   1.901  10.034 -0.2586 -0.0121  0.0052
  591loPI   PO4 9444   2.462   2.297   9.623  0.1719 -0.1189 -0.0581
  591loPI   GL1 9445   2.275   2.137   9.319  0.1871 -0.1298 -0.3201
  591loPI   GL2 9446   2.044   2.008   9.613 -0.0230 -0.0274  0.0989
  591loPI   C1A 9447   2.327   2.264   8.868 -0.1412  0.1180  0.2686
  591loPI   C2A 9448   2.331   2.033   8.460 -0.0764  0.0753 -0.1361
  591loPI   C3A 9449   2.269   2.201   8.035 -0.0020  0.2748  0.2157
  591loPI   C4A 9450   2.002   2.257   7.708 -0.1269 -0.1614  0.3349
  591loPI   C5A 9451   1.774   2.245   7.419 -0.1251 -0.0906  0.1132
  591loPI   C6A 9452   1.665   2.603   7.062  0.1348  0.2247 -0.1426
  591loPI   C1B 9453   1.855   2.013   9.133  0.2369 -0.0916  0.2088
  591loPI   C2B 9454   1.910   1.886   8.695  0.2785 -0.2039  0.2342
  591loPI   C3B 9455   1.927   1.650   8.323  0.0483  0.0248  0.1705
  591loPI   C4B 9456   2.141   1.629   7.984  0.0732  0.0390 -0.3460
  592loPI    C1 9457   4.398   3.843  10.323  0.0079  0.2627 -0.0129
  592loPI    C2 9458   4.203   3.589  10.562  0.0082 -0.0336 -0.3213
  592loPI    C3 9459   4.525   3.783  10.698 -0.1063 -0.0486 -0.0212
  592loPI   PO4 9460   4.420   3.707  10.120 -0.2030  0.1159  0.1427
  592loPI   GL1 9461   4.688   3.786   9.750 -0.0913 -0.2253 -0.1504
  592loPI   GL2 9462   4.539   4.076   9.730  0.1106 -0.1187  0.0454
  592loPI   C1A 9463   4.867   3.731   9.319  0.2439 -0.2111  0.0957
  592loPI   C2A 9464   4.930   3.676   8.879 -0.3272 -0.0015  0.0626
  592loPI   C3A 9465   4.920   3.576   8.342 -0.1120  0.0091 -0.0075
  592loPI   C4A 9466   4.741   3.172   8.154  0.2220 -0.1703  0.0683
  592loPI   C5A 9467   4.833   2.682   8.028  0.2124  0.0776 -0.3720
  592loPI   C6A 9468   4.979   2.260   7.966  0.0015 -0.2797  0.1023
  592loPI   C1B 9469   4.367   3.847   9.342 -0.0755  0.0529  0.0469
  592loPI   C2B 9470   4.290   3.514   9.016  0.2006  0.2245  0.0753
  592loPI   C3B 9471   4.297   3.075   9.005 -0.0237 -0.1684 -0.1966
  592loPI   C4B 9472   4.539   2.594   8.982  0.0488  0.0450 -0.0722
  593loPI    C1 9473   9.443   7.043   9.552 -0.1717  0.0761 -0.0834
  593loPI    C2 9474   9.341   7.229   9.892  0.0371 -0.0011  0.0234
  593loPI    C3 9475   9.272   6.837   9.850  0.1387 -0.0201  0.0317
  593loPI   PO4 9476   9.573   7.212   9.418  0.3863  0.3101 -0.1075
  593loPI   GL1 9477   9.804   7.237   9.097  0.6592 -0.0304  0.0917
  593loPI   GL2 9478   9.979   7.510   9.037 -0.1841  0.0027 -0.1737
  593loPI   C1A 9479   9.698   7.454   8.650  0.1554  0.0447  0.0411
  593loPI   C2A 9480   9.847   7.400   8.268  0.2263  0.5265  0.1091
  593loPI   C3A 9481   9.698   7.299   7.907 -0.0488 -0.1785  0.1773
  593loPI   C4A 9482   9.428   7.087   7.523  0.2589  0.2873  0.2900
  593loPI   C5A 9483   9.286   6.804   7.458 -0.0632  0.0646  0.3501
  593loPI   C6A 9484   9.010   6.477   7.445  0.0361  0.0665 -0.1730
  593loPI   C1B 9485  10.232   7.478   8.703  0.1380 -0.3688 -0.1884
  593loPI   C2B 9486  10.338   7.398   8.416  0.0900 -0.0218  0.2368
  593loPI   C3B 9487  10.258   7.188   8.029  0.1576  0.1774 -0.3911
  593loPI   C4B 9488  10.686   7.127   7.844 -0.1637  0.0534  0.0179
  594loPI    C1 9489   1.735   8.931   9.864 -0.0624  0.0746 -0.1878
  594loPI    C2 9490   1.547   9.010  10.208  0.0017 -0.2538 -0.0740
  594loPI    C3 9491   1.945   9.051  10.183 -0.0471  0.1732 -0.2345
  594loPI   PO4 9492   1.726   8.638   9.866 -0.1998  0.1044 -0.1462
  594loPI   GL1 9493   1.596   8.454   9.484 -0.2034  0.1332 -0.2170
  594loPI   GL2 9494   1.454   8.790   9.441  0.0672 -0.2056  0.0668
  594loPI   C1A 9495   1.387   8.361   9.180  0.1621 -0.2936 -0.1774
  594loPI   C2A 9496   1.395   8.369   8.813 -0.2358 -0.5454 -0.2237
  594loPI   C3A 9497   1.482   8.371   8.288 -0.0183 -0.0465  0.2126
  594loPI   C4A 9498   1.402   8.441   7.890 -0.0154 -0.0953 -0.5384
  594loPI   C5A 9499   1.390   8.286   7.495 -0.1512 -0.1457  0.0235
  594loPI   C6A 9500   1.086   8.026   7.345 -0.1514 -0.1614 -0.0759
  594loPI   C1B 9501   1.410   8.851   9.018  0.1414  0.1978  0.0186
  594loPI   C2B 9502   1.323   8.974   8.604 -0.0642  0.0228  0.0822
  594loPI   C3B 9503   1.455   8.928   8.211  0.0715 -0.0762  0.0771
  594loPI   C4B 9504   1.498   8.930   7.718 -0.0101 -0.2866  0.0707
  595loPI    C1 9505  18.049  19.116   9.934  0.1680  0.0087  0.1657
  595loPI    C2 9506  17.757  18.986  10.175  0.0450 -0.1765 -0.0795
  595loPI    C3 9507  17.983  19.297  10.285 -0.1048 -0.1660  0.2074
  595loPI   PO4 9508  17.955  19.112   9.677  0.0012 -0.0944 -0.0364
  595loPI   GL1 9509  18.032  19.055   9.189 -0.0128 -0.2896  0.1981
  595loPI   GL2 9510  18.241  18.935   9.086  0.2515  0.3730  0.0213
  595loPI   C1A 9511  17.788  19.110   8.826 -0.0731  0.4179 -0.0583
  595loPI   C2A 9512  17.766  18.722   8.555 -0.3355  0.2427  0.0213
  595loPI   C3A 9513  17.942  18.421   8.235 -0.1261 -0.0289  0.0085
  595loPI   C4A 9514  18.037  18.245   7.763  0.2563  0.1409  0.1514
  595loPI   C5A 9515  17.999  17.990   7.457  0.2815 -0.1271 -0.1174
  595loPI   C6A 9516  17.961  17.783   7.125 -0.3710 -0.1169  0.0013
  595loPI   C1B 9517  18.557  19.308   8.998  0.2616  0.1286 -0.1897
  595loPI   C2B 9518  18.397  19.672   9.065  0.0663 -0.1313 -0.1233
  595loPI   C3B 9519  18.141  19.944   9.229 -0.0283  0.1617 -0.1226
  595loPI   C4B 9520  17.952  20.363   9.039 -0.4250 -0.1050 -0.2107
  596loPI    C1 9521   2.370   4.038  10.003  0.2142  0.2315 -0.2269
  596loPI    C2 9522   2.440   4.372  10.211 -0.1397 -0.0016  0.2891
  596loPI    C3 9523   2.477   4.016  10.388 -0.0256 -0.2304 -0.1795
  596loPI   PO4 9524   2.096   4.103   9.823 -0.1505  0.0837 -0.2310
  596loPI   GL1 9525   2.017   4.193   9.388  0.1837 -0.0927  0.1057
  596loPI   GL2 9526   2.118   4.476   9.380 -0.1108  0.0306 -0.4304
  596loPI   C1A 9527   1.702   4.544   9.160 -0.1057 -0.1414  0.0974
  596loPI   C2A 9528   1.607   4.795   8.785  0.2389 -0.1657  0.0735
  596loPI   C3A 9529   1.548   4.812   8.347 -0.5703 -0.1591  0.0325
  596loPI   C4A 9530   1.728   4.719   7.979  0.0093 -0.0545 -0.1793
  596loPI   C5A 9531   1.741   4.443   7.631 -0.2329 -0.1027  0.4022
  596loPI   C6A 9532   2.112   4.315   7.324  0.1660  0.1659  0.2370
  596loPI   C1B 9533   2.198   4.329   8.923 -0.0298 -0.1938  0.2668
  596loPI   C2B 9534   2.272   4.113   8.598 -0.0310  0.0174  0.1966
  596loPI   C3B 9535   2.336   4.018   8.192  0.0095  0.2636  0.3463
  596loPI   C4B 9536   2.005   3.883   7.856 -0.0246 -0.1736 -0.1196
  597loPI    C1 9537  13.717   5.607  10.190  0.0145  0.1403 -0.0847
  597loPI    C2 9538  13.894   5.397   9.899  0.0027 -0.0176  0.0203
  597loPI    C3 9539  13.941   5.287  10.280 -0.0734  0.1217  0.0705
  597loPI   PO4 9540  13.775   5.870  10.106  0.0134  0.3055 -0.4332
  597loPI   GL1 9541  13.614   5.895   9.684 -0.2643  0.1022  0.2090
  597loPI   GL2 9542  13.928   5.893   9.597 -0.3472  0.1810  0.0118
  597loPI   C1A 9543  13.529   5.769   9.214  0.2713  0.0954 -0.0180
  597loPI   C2A 9544  13.177   5.901   8.937  0.1874 -0.2182 -0.2538
  597loPI   C3A 9545  13.055   6.151   8.522 -0.0367 -0.1342 -0.1396
  597loPI   C4A 9546  12.953   6.551   8.365  0.1027 -0.2064  0.2135
  597loPI   C5A 9547  12.820   6.723   7.918 -0.0696 -0.1823 -0.0892
  597loPI   C6A 9548  13.021   6.443   7.528  0.2438 -0.0720 -0.1005
  597loPI   C1B 9549  14.013   6.019   9.176 -0.0387 -0.0415  0.0501
  597loPI   C2B 9550  14.013   6.480   9.051  0.2302 -0.0124 -0.0598
  597loPI   C3B 9551  13.710   6.800   8.991  0.2651  0.0388  0.1733
  597loPI   C4B 9552  13.543   6.750   9.370 -0.1414 -0.1188 -0.3127
  598loPI    C1 9553  17.032  13.242   9.870 -0.0903 -0.0992  0.0208
  598loPI    C2 9554  16.680  13.377  10.002  0.0020  0.1212  0.0457
  598loPI    C3 9555  17.017  13.477  10.193  0.0651 -0.2350  0.1293
  598loPI   PO4 9556  17.017  13.383   9.576 -0.0593 -0.0691  0.1943
  598loPI   GL1 9557  16.940  13.246   9.125 -0.0739  0.1564  0.3899
  598loPI   GL2 9558  17.410  13.194   9.041  0.1712 -0.2937 -0.0058
  598loPI   C1A 9559  16.698  13.156   8.772  0.0500 -0.0865 -0.0420
  598loPI   C2A 9560  16.628  13.121   8.326 -0.3317  0.0571  0.0126
  598loPI   C3A 9561  16.513  12.970   7.857 -0.2081  0.0661  0.4386
  598loPI   C4A 9562  16.363  12.815   7.412  0.0189 -0.4824 -0.1363
  598loPI   C5A 9563  16.623  12.849   7.008 -0.0293  0.1966  0.0640
  598loPI   C6A 9564  16.896  13.081   6.775  0.0071  0.0384  0.1827
  598loPI   C1B 9565  17.313  13.148   8.601 -0.3084  0.2206  0.0387
  598loPI   C2B 9566  17.158  13.069   8.137  0.0971 -0.0030 -0.1943
  598loPI   C3B 9567  16.989  13.142   7.745  0.1700  0.0956  0.0308
  598loPI   C4B 9568  16.746  13.108   7.384  0.3257  0.2800 -0.0940
  599loPI    C1 9569   3.789  13.784   9.802  0.1939 -0.1847  0.0078
  599loPI    C2 9570   4.072  13.614  10.028  0.2054 -0.0818  0.0713
  599loPI    C3 9571   3.978  14.000  10.080  0.1909 -0.0637 -0.0831
  599loPI   PO4 9572   3.906  13.683   9.481  0.1809  0.3078  0.1545
  599loPI   GL1 9573   4.076  13.994   9.236  0.1769  0.2097 -0.0168
  599loPI   GL2 9574   3.798  13.923   9.035 -0.0105  0.3146  0.0417
  599loPI   C1A 9575   4.004  14.390   9.114 -0.0486 -0.1308  0.0776
  599loPI   C2A 9576   4.027  14.635   8.779  0.2764 -0.0007 -0.0285
  599loPI   C3A 9577   3.942  14.617   8.403 -0.2254  0.0370 -0.0183
  599loPI   C4A 9578   3.928  14.486   7.880  0.3221  0.1389 -0.1079
  599loPI   C5A 9579   4.245  14.242   7.603  0.0697  0.0760 -0.3784
  599loPI   C6A 9580   4.520  14.266   7.173  0.0993  0.1709  0.0258
  599loPI   C1B 9581   3.543  14.287   8.998  0.0942  0.1101  0.0736
  599loPI   C2B 9582   3.513  14.521   8.603 -0.2127 -0.0770  0.0117
  599loPI   C3B 9583   3.480  14.742   8.141  0.1767  0.0465 -0.1253
  599loPI   C4B 9584   3.459  15.118   7.847 -0.2735 -0.0221 -0.3036
  600loPI    C1 9585   9.493  16.677   9.924  0.0095 -0.0078  0.2130
  600loPI    C2 9586   9.362  16.307  10.001 -0.1335  0.0178  0.0982
  600loPI    C3 9587   9.366  16.582  10.291 -0.4122  0.0384  0.0848
  600loPI   PO4 9588   9.427  16.728   9.634 -0.1436  0.2889  0.2399
  600loPI   GL1 9589   9.701  16.670   9.178  0.0996 -0.1089 -0.1689
  600loPI   GL2 9590   9.845  16.385   9.122  0.0877  0.0838 -0.1515
  600loPI   C1A 9591   9.582  16.513   8.730  0.0979 -0.0995  0.0204
  600loPI   C2A 9592   9.513  16.602   8.243  0.0285  0.0276  0.1500
  600loPI   C3A 9593   9.403  16.676   7.755  0.0634  0.2697 -0.0429
  600loPI   C4A 9594   9.526  16.647   7.327 -0.2211 -0.0146 -0.3945
  600loPI   C5A 9595   9.885  16.473   7.054  0.0613 -0.2348 -0.1010
  600loPI   C6A 9596  10.139  16.318   6.686 -0.0109 -0.0749 -0.0393
  600loPI   C1B 9597   9.964  16.160   8.708 -0.1069  0.1397 -0.0033
  600loPI   C2B 9598  10.101  16.376   8.276 -0.1533  0.0030  0.1832
  600loPI   C3B 9599  10.301  16.486   7.986 -0.1786 -0.0032 -0.1867
  600loPI   C4B 9600  10.403  16.287   7.563 -0.4305 -0.1668  0.0476
  601loPI    C1 9601   4.603  19.089   9.912 -0.3141 -0.0101 -0.1577
  601loPI    C2 9602   4.950  18.906   9.986 -0.1018  0.4386 -0.0067
  601loPI    C3 9603   4.680  18.733   9.747  0.1343 -0.0114  0.0402
  601loPI   PO4 9604   4.634  19.314   9.824  0.0627  0.1553  0.0106
  601loPI   GL1 9605   4.604  19.517   9.445  0.2097 -0.0634 -0.2634
  601loPI   GL2 9606   4.872  19.462   9.383 -0.0344 -0.0015  0.0607
  601loPI   C1A 9607   4.562  19.496   8.912 -0.1690  0.0882  0.0458
  601loPI   C2A 9608   4.710  19.307   8.573 -0.0612  0.4532 -0.2141
  601loPI   C3A 9609   4.557  19.178   8.221 -0.1402 -0.4132  0.1703
  601loPI   C4A 9610   4.557  19.068   7.784  0.1033 -0.1898  0.3437
  601loPI   C5A 9611   4.569  18.790   7.390  0.1297 -0.1929  0.3482
  601loPI   C6A 9612   4.365  18.463   7.107  0.0932 -0.3210  0.0815
  601loPI   C1B 9613   5.129  19.348   8.929 -0.0158 -0.1724  0.1392
  601loPI   C2B 9614   5.210  19.495   8.552 -0.0227 -0.1062  0.0269
  601loPI   C3B 9615   5.037  19.477   8.172 -0.1206 -0.2745 -0.0146
  601loPI   C4B 9616   5.011  19.345   7.811 -0.0700  0.0945  0.1665
  602loPI    C1 9617  15.704   8.079   9.976  0.2172 -0.1120  0.0002
  602loPI    C2 9618  15.559   8.270  10.297  0.0338 -0.1575 -0.0545
  602loPI    C3 9619  15.577   7.870  10.293  0.1814 -0.1515 -0.0400
  602loPI   PO4 9620  15.854   8.314   9.838  0.1110 -0.0512 -0.1013
  602loPI   GL1 9621  15.764   8.454   9.413  0.0634  0.1554  0.1703
  602loPI   GL2 9622  15.646   8.771   9.343  0.0751 -0.0301 -0.2354
  602loPI   C1A 9623  15.867   8.253   9.021  0.0384  0.2093  0.0008
  602loPI   C2A 9624  15.877   8.038   8.588 -0.2519 -0.0640 -0.1246
  602loPI   C3A 9625  15.802   7.975   8.158 -0.0500 -0.1738  0.0496
  602loPI   C4A 9626  15.531   7.923   7.808 -0.0335  0.0064  0.5034
  602loPI   C5A 9627  15.234   7.870   7.616  0.0868  0.0564  0.1946
  602loPI   C6A 9628  14.733   7.964   7.522 -0.1718 -0.1230  0.1563
  602loPI   C1B 9629  15.432   8.497   8.969 -0.0107 -0.0039 -0.1041
  602loPI   C2B 9630  15.061   8.489   8.711  0.2509  0.1228  0.0172
  602loPI   C3B 9631  14.812   8.757   8.549 -0.0528  0.0459  0.0239
  602loPI   C4B 9632  14.640   9.062   8.359 -0.0709 -0.4952  0.3055
  603loPI    C1 9633  13.120   4.370   9.784 -0.4160  0.2334 -0.2907
  603loPI    C2 9634  12.916   4.483  10.109 -0.1398  0.0431 -0.0452
  603loPI    C3 9635  12.933   4.096  10.008 -0.1439  0.0911 -0.2334
  603loPI   PO4 9636  12.994   4.493   9.516  0.0337  0.0721 -0.2518
  603loPI   GL1 9637  12.862   4.537   9.130  0.0396  0.0203 -0.2496
  603loPI   GL2 9638  13.117   4.367   9.052  0.1117  0.1350 -0.0731
  603loPI   C1A 9639  12.662   4.577   8.655 -0.1644 -0.0208  0.2891
  603loPI   C2A 9640  12.631   4.394   8.209  0.1399 -0.1638  0.0897
  603loPI   C3A 9641  12.852   4.171   7.910 -0.0076  0.2156  0.0561
  603loPI   C4A 9642  13.063   4.357   7.631  0.2484  0.0957  0.2219
  603loPI   C5A 9643  13.202   4.357   7.215  0.0857  0.6513 -0.3777
  603loPI   C6A 9644  13.503   4.239   6.890  0.1158 -0.2284  0.1431
  603loPI   C1B 9645  13.160   4.548   8.720  0.0085  0.3562 -0.2356
  603loPI   C2B 9646  13.077   4.651   8.235  0.0463  0.0336 -0.2886
  603loPI   C3B 9647  13.287   4.874   7.843  0.1010 -0.1355  0.4319
  603loPI   C4B 9648  13.205   4.815   7.437 -0.0600  0.3209 -0.1052
  604loPI    C1 9649   0.082  19.359  10.175 -0.0210  0.1281 -0.0684
  604loPI    C2 9650   0.360  19.263  10.446  0.0191  0.0381 -0.1407
  604loPI    C3 9651  -0.002  19.387  10.565  0.0792  0.1247 -0.0466
  604loPI   PO4 9652   0.122  19.134   9.965  0.1707  0.2147 -0.0455
  604loPI   GL1 9653  -0.162  18.828   9.529 -0.0095 -0.0870 -0.1591
  604loPI   GL2 9654   0.000  18.466   9.511  0.2372 -0.0408  0.4236
  604loPI   C1A 9655  -0.066  18.841   9.147  0.3183  0.0168 -0.1179
  604loPI   C2A 9656  -0.027  18.818   8.741  0.1281  0.0021  0.0513
  604loPI   C3A 9657  -0.086  18.931   8.353  0.4564  0.1574  0.0475
  604loPI   C4A 9658   0.060  19.004   7.904 -0.6195 -0.6676  0.0973
  604loPI   C5A 9659  -0.021  18.829   7.462  0.0056  0.0482 -0.0989
  604loPI   C6A 9660  -0.271  18.648   7.159 -0.0200  0.0658 -0.0622
  604loPI   C1B 9661   0.020  18.377   9.089  0.2523  0.0180 -0.0297
  604loPI   C2B 9662   0.289  18.322   8.763  0.3175 -0.0579 -0.2781
  604loPI   C3B 9663   0.626  18.489   8.525  0.0242  0.0171 -0.0300
  604loPI   C4B 9664   0.887  18.464   8.248 -0.3506 -0.0203  0.0190
  605loPI    C1 9665  18.328   1.490  10.105  0.0813 -0.0115 -0.2106
  605loPI    C2 9666  18.611   1.688  10.306 -0.1461  0.2579 -0.1501
  605loPI    C3 9667  18.523   1.310  10.404  0.0767  0.2270 -0.0624
  605loPI   PO4 9668  18.287   1.580   9.923  0.0081  0.2439 -0.1549
  605loPI   GL1 9669  18.344   1.710   9.516 -0.2376 -0.0020 -0.1078
  605loPI   GL2 9670  18.098   1.672   9.428  0.1565  0.1637  0.2429
  605loPI   C1A 9671  18.618   1.639   9.208  0.0430  0.1323 -0.0330
  605loPI   C2A 9672  18.765   1.614   8.809  0.0368  0.0897  0.0763
  605loPI   C3A 9673  18.781   1.543   8.364  0.0545 -0.0612 -0.0140
  605loPI   C4A 9674  18.692   1.245   8.022 -0.1328 -0.1121  0.0933
  605loPI   C5A 9675  18.401   1.158   7.771 -0.1889 -0.1349  0.1473
  605loPI   C6A 9676  18.041   1.277   7.690 -0.3829  0.2100 -0.0410
  605loPI   C1B 9677  18.201   1.790   8.973  0.0578  0.4117 -0.0624
  605loPI   C2B 9678  18.243   1.615   8.554  0.1884  0.3299  0.0486
  605loPI   C3B 9679  18.190   1.234   8.295 -0.3297 -0.0557  0.3133
  605loPI   C4B 9680  17.962   0.860   7.992 -0.0574 -0.3416  0.0514
  606loPI    C1 9681   2.787  17.870  10.220 -0.0339  0.1100 -0.2134
  606loPI    C2 9682   2.461  18.045  10.373  0.0360 -0.1207  0.2136
  606loPI    C3 9683   2.823  18.200  10.443  0.0568 -0.1415  0.1531
  606loPI   PO4 9684   2.682  17.880   9.938 -0.3844 -0.2218  0.0531
  606loPI   GL1 9685   2.526  17.881   9.488  0.1263  0.4348  0.0754
  606loPI   GL2 9686   2.751  17.623   9.416  0.1737 -0.1783 -0.2009
  606loPI   C1A 9687   2.370  17.728   9.034 -0.4253  0.2906  0.0259
  606loPI   C2A 9688   2.207  17.751   8.669  0.2480 -0.1727  0.2647
  606loPI   C3A 9689   2.226  17.785   8.290 -0.1116 -0.0362  0.3332
  606loPI   C4A 9690   2.582  17.795   8.002 -0.6308 -0.0008 -0.0796
  606loPI   C5A 9691   2.881  17.984   7.762 -0.0472  0.2663  0.0541
  606loPI   C6A 9692   3.000  18.382   7.571 -0.0329  0.0783 -0.0825
  606loPI   C1B 9693   2.727  17.476   8.883 -0.0356  0.1317  0.1413
  606loPI   C2B 9694   2.669  17.518   8.431  0.0282 -0.0184  0.2067
  606loPI   C3B 9695   2.757  17.339   8.128 -0.1671  0.5131  0.0053
  606loPI   C4B 9696   2.692  17.103   7.821  0.1097 -0.1071  0.1805
  607loPI    C1 9697   7.987   8.643   9.883  0.0196 -0.1396  0.0715
  607loPI    C2 9698   7.905   9.033   9.914 -0.1461 -0.1632 -0.0537
  607loPI    C3 9699   8.104   8.847  10.207 -0.1875 -0.0155  0.0702
  607loPI   PO4 9700   8.011   8.678   9.546 -0.1797  0.1037  0.1011
  607loPI   GL1 9701   7.809   8.888   9.258  0.0182 -0.0295 -0.2718
  607loPI   GL2 9702   7.662   9.143   9.453 -0.4117  0.1415  0.1012
  607loPI   C1A 9703   7.866   8.800   8.833  0.1984 -0.2260 -0.0095
  607loPI   C2A 9704   7.760   8.925   8.364 -0.0239  0.0484  0.1657
  607loPI   C3A 9705   7.788   9.059   8.016  0.1918 -0.0279  0.0712
  607loPI   C4A 9706   7.797   9.305   7.781  0.0384 -0.0781  0.0424
  607loPI   C5A 9707   7.792   9.431   7.371 -0.3230  0.0039  0.1288
  607loPI   C6A 9708   7.698   9.418   7.017  0.0531  0.0488  0.1931
  607loPI   C1B 9709   7.766   9.346   9.087  0.2701  0.0813  0.1580
  607loPI   C2B 9710   7.845   9.537   8.681 -0.0176 -0.1402 -0.1598
  607loPI   C3B 9711   7.883   9.583   8.224  0.0536  0.1084 -0.0876
  607loPI   C4B 9712   7.704   9.749   7.879 -0.0111 -0.0212  0.2480
  608loPI    C1 9713  13.932   2.561   9.800 -0.0949  0.0530  0.0646
  608loPI    C2 9714  13.616   2.322   9.855 -0.2455  0.2586  0.1062
  608loPI    C3 9715  13.779   2.512  10.166  0.1618 -0.1428  0.1480
  608loPI   PO4 9716  14.104   2.422   9.638 -0.1351  0.0438 -0.0164
  608loPI   GL1 9717  14.017   2.164   9.246  0.1087  0.0256  0.4641
  608loPI   GL2 9718  14.060   2.583   9.150 -0.0666 -0.0251 -0.0100
  608loPI   C1A 9719  14.111   2.149   8.817 -0.3839  0.0263 -0.0208
  608loPI   C2A 9720  14.026   2.073   8.378  0.1500  0.2556  0.1516
  608loPI   C3A 9721  13.931   2.219   7.965  0.2591 -0.3990  0.1156
  608loPI   C4A 9722  13.959   1.955   7.613  0.0331  0.0200 -0.1571
  608loPI   C5A 9723  14.335   1.755   7.273  0.1847 -0.0100  0.3048
  608loPI   C6A 9724  14.766   1.818   7.253 -0.1088 -0.0730 -0.5416
  608loPI   C1B 9725  14.281   2.700   8.779 -0.1523  0.1728 -0.1022
  608loPI   C2B 9726  14.403   2.581   8.280 -0.1902  0.2969  0.0572
  608loPI   C3B 9727  14.451   2.354   7.892 -0.0572 -0.0665  0.0205
  608loPI   C4B 9728  14.343   2.227   7.398  0.0958  0.1454  0.1308
  609POPI    C1 9729   8.122   3.314   9.480  0.1057 -0.0299  0.0603
  609POPI    C2 9730   8.314   3.257   9.826 -0.1854  0.1465  0.2558
  609POPI    C3 9731   7.941   3.402   9.826 -0.2773 -0.0759 -0.1225
  609POPI   PO4 9732   8.264   3.348   9.331 -0.2220  0.0141 -0.2078
  609POPI   GL1 9733   8.387   3.044   9.044 -0.0688 -0.0406  0.0260
  609POPI   GL2 9734   8.159   2.879   9.105  0.1751 -0.1213 -0.2812
  609POPI   C1A 9735   8.659   2.756   8.885 -0.2114  0.0534  0.0064
  609POPI   D2A 9736   8.582   2.513   8.523 -0.0660  0.1946 -0.1877
  609POPI   C3A 9737   8.740   2.601   8.284  0.0849  0.1456 -0.1221
  609POPI   C4A 9738   8.688   2.694   7.892  0.0906  0.0773 -0.1506
  609POPI   C1B 9739   7.770   2.768   8.888 -0.1737  0.2705  0.1397
  609POPI   C2B 9740   7.598   2.825   8.457  0.2494  0.1559  0.0857
  609POPI   C3B 9741   7.711   2.599   8.082  0.0420 -0.3569 -0.2138
  609POPI   C4B 9742   7.954   2.335   8.228 -0.1720 -0.1621  0.0653
  610POPI    C1 9743   2.611   1.058   9.729  0.0711 -0.2731  0.0030
  610POPI    C2 9744   2.962   1.206   9.607 -0.1005  0.1088 -0.0420
  610POPI    C3 9745   2.850   1.246   9.989 -0.0673 -0.0728 -0.0124
  610POPI   PO4 9746   2.470   1.120   9.532 -0.1800 -0.1205 -0.1143
  610POPI   GL1 9747   2.412   1.081   9.175 -0.1649 -0.0553 -0.1609
  610POPI   GL2 9748   2.687   1.277   9.121  0.0458  0.0364 -0.0952
  610POPI   C1A 9749   2.155   1.209   8.849 -0.2245  0.3559  0.0611
  610POPI   D2A 9750   2.088   1.005   8.477  0.0026  0.1870  0.0263
  610POPI   C3A 9751   2.169   1.115   8.084  0.2055  0.1946  0.1281
  610POPI   C4A 9752   1.777   1.346   7.826  0.2548  0.0819 -0.1959
  610POPI   C1B 9753   2.701   1.576   8.673 -0.0181 -0.0348 -0.1703
  610POPI   C2B 9754   2.552   1.515   8.218 -0.1111 -0.0318  0.0015
  610POPI   C3B 9755   2.582   1.580   7.759  0.0374 -0.1805 -0.0351
  610POPI   C4B 9756   2.408   1.473   7.406  0.2314  0.1631 -0.1478
  611POPI    C1 9757   1.697   2.111   9.997 -0.0718 -0.1609  0.1825
  611POPI    C2 9758   1.517   2.238  10.332 -0.1552 -0.2089  0.1563
  611POPI    C3 9759   1.869   2.048  10.353 -0.1141 -0.1278  0.2089
  611POPI   PO4 9760   1.502   2.034   9.876 -0.3880  0.1252  0.1132
  611POPI   GL1 9761   1.428   1.867   9.526  0.1141  0.2064  0.0224
  611POPI   GL2 9762   1.507   1.600   9.353  0.0294 -0.3070 -0.1610
  611POPI   C1A 9763   1.131   1.982   9.266  0.0348 -0.0845 -0.1332
  611POPI   D2A 9764   0.909   2.201   8.972 -0.0877  0.0416 -0.1429
  611POPI   C3A 9765   0.950   2.031   8.621  0.0807  0.0221  0.1247
  611POPI   C4A 9766   1.076   1.783   8.299 -0.0502  0.1438 -0.1903
  611POPI   C1B 9767   1.663   1.550   8.920  0.0540  0.0129  0.0702
  611POPI   C2B 9768   1.482   1.565   8.491  0.1941 -0.4253 -0.0607
  611POPI   C3B 9769   1.344   1.548   8.027  0.0465 -0.1053 -0.0874
  611POPI   C4B 9770   1.447   1.723   7.589  0.2048 -0.0140 -0.2364
  612POPI    C1 9771   4.627   7.181   9.625  0.1412  0.1686 -0.0697
  612POPI    C2 9772   4.627   7.236   9.229  0.2943  0.1611 -0.0712
  612POPI    C3 9773   4.779   6.900   9.385 -0.1564 -0.0308 -0.0306
  612POPI   PO4 9774   4.304   7.226   9.675 -0.1538 -0.1967  0.1558
  612POPI   GL1 9775   4.030   7.093   9.393  0.1886 -0.1381  0.1149
  612POPI   GL2 9776   3.834   6.978   9.200  0.0266 -0.3989 -0.1907
  612POPI   C1A 9777   4.148   7.292   8.996  0.0682 -0.0458 -0.0884
  612POPI   D2A 9778   4.010   7.214   8.605 -0.0450 -0.0415  0.1689
  612POPI   C3A 9779   4.183   7.545   8.423 -0.0104  0.1036 -0.2248
  612POPI   C4A 9780   4.238   7.894   8.666 -0.0143  0.3469  0.0158
  612POPI   C1B 9781   3.521   6.875   8.912 -0.1232 -0.1939  0.2607
  612POPI   C2B 9782   3.369   6.753   8.524 -0.2421 -0.1548 -0.2812
  612POPI   C3B 9783   3.275   6.683   8.056 -0.0166 -0.4092  0.1530
  612POPI   C4B 9784   3.134   6.764   7.630 -0.1599  0.0122 -0.1422
  613POPI    C1 9785   5.683   0.873  10.156  0.0091 -0.0962 -0.0405
  613POPI    C2 9786   5.950   1.170  10.126  0.0548 -0.1119  0.1872
  613POPI    C3 9787   5.566   1.252  10.204  0.0104 -0.0960 -0.0388
  613POPI   PO4 9788   5.656   0.734   9.950 -0.0340  0.1495  0.1425
  613POPI   GL1 9789   5.274   0.641   9.787  0.1721  0.0913  0.0897
  613POPI   GL2 9790   5.220   0.319   9.703 -0.2207  0.0035  0.4025
  613POPI   C1A 9791   5.136   0.658   9.298  0.0879 -0.3889  0.0882
  613POPI   D2A 9792   5.184   0.890   8.880 -0.5921 -0.0393 -0.1463
  613POPI   C3A 9793   5.281   0.821   8.440  0.2915  0.1980  0.0557
  613POPI   C4A 9794   5.463   0.852   7.968  0.0775 -0.2214  0.1667
  613POPI   C1B 9795   5.294   0.173   9.262  0.0723 -0.2474 -0.0568
  613POPI   C2B 9796   5.302   0.293   8.868  0.1782 -0.1537 -0.1312
  613POPI   C3B 9797   5.632   0.298   8.543 -0.1444  0.1108  0.3829
  613POPI   C4B 9798   5.875   0.096   8.182  0.0573 -0.0317 -0.0437
  614POPI    C1 9799  10.368   0.487   9.762 -0.1262  0.1094  0.1070
  614POPI    C2 9800  10.673   0.528   9.507 -0.3332  0.0726 -0.1521
  614POPI    C3 9801  10.740   0.528   9.902  0.0279 -0.1642 -0.2085
  614POPI   PO4 9802  10.209   0.249   9.583  0.2157 -0.1057 -0.2629
  614POPI   GL1 9803  10.087   0.098   9.225  0.0638 -0.1472  0.1049
  614POPI   GL2 9804   9.920   0.267   8.960  0.1298 -0.0667  0.0821
  614POPI   C1A 9805  10.265  -0.080   8.817 -0.2127 -0.0658  0.1309
  614POPI   D2A 9806  10.358  -0.379   8.500  0.1227 -0.2345 -0.5131
  614POPI   C3A 9807  10.414  -0.289   8.039  0.2666  0.0226  0.4029
  614POPI   C4A 9808  10.267  -0.190   7.632  0.2973  0.1193 -0.2632
  614POPI   C1B 9809   9.977   0.325   8.561  0.1041 -0.2702 -0.4021
  614POPI   C2B 9810  10.002   0.607   8.227  0.2150  0.0443  0.0285
  614POPI   C3B 9811  10.185   0.784   7.861  0.1414 -0.3850  0.0228
  614POPI   C4B 9812  10.112   1.068   7.472 -0.0163  0.3699 -0.0451
  615POPI    C1 9813  11.440   7.332   9.650 -0.0821  0.1046  0.1187
  615POPI    C2 9814  11.803   7.260   9.802  0.0054  0.2091 -0.0381
  615POPI    C3 9815  11.513   6.986   9.838  0.1313  0.0790 -0.0087
  615POPI   PO4 9816  11.515   7.611   9.590 -0.1791  0.0681  0.0268
  615POPI   GL1 9817  11.508   7.791   9.345 -0.0006 -0.0070 -0.0890
  615POPI   GL2 9818  11.274   7.850   9.113  0.0257 -0.2429 -0.3876
  615POPI   C1A 9819  11.629   7.585   8.938 -0.0236 -0.0039 -0.0520
  615POPI   D2A 9820  11.667   7.222   8.773  0.0881 -0.0104  0.1280
  615POPI   C3A 9821  11.726   7.110   8.408  0.0953  0.1655 -0.1621
  615POPI   C4A 9822  11.467   7.095   7.990 -0.0181  0.1074 -0.1196
  615POPI   C1B 9823  11.234   7.702   8.670 -0.2207 -0.2249 -0.0923
  615POPI   C2B 9824  11.083   7.823   8.205  0.3902 -0.0536  0.1138
  615POPI   C3B 9825  11.032   7.907   7.735 -0.1031  0.1190 -0.1344
  615POPI   C4B 9826  11.323   8.099   7.500 -0.2894  0.0724 -0.2170
  616POPI    C1 9827  14.366  11.476   9.498 -0.2023 -0.0503 -0.0172
  616POPI    C2 9828  14.668  11.583   9.738 -0.0430 -0.0211 -0.2278
  616POPI    C3 9829  14.295  11.563   9.882  0.0590 -0.0627  0.0353
  616POPI   PO4 9830  14.470  11.536   9.196 -0.1334 -0.0604 -0.1491
  616POPI   GL1 9831  14.744  11.433   8.974 -0.3481  0.0995  0.0331
  616POPI   GL2 9832  14.492  11.142   8.963 -0.0148  0.1655 -0.0438
  616POPI   C1A 9833  14.939  11.596   8.667 -0.1473  0.1332 -0.1670
  616POPI   D2A 9834  14.891  11.632   8.293 -0.0284 -0.1396 -0.0502
  616POPI   C3A 9835  14.747  11.862   7.951 -0.2937 -0.0664 -0.3194
  616POPI   C4A 9836  14.897  11.821   7.510  0.1118  0.2801 -0.2208
  616POPI   C1B 9837  14.597  11.077   8.563 -0.0452  0.0403  0.1574
  616POPI   C2B 9838  14.770  11.085   8.211  0.1705  0.0477  0.0187
  616POPI   C3B 9839  14.883  11.356   7.870 -0.0925 -0.1378 -0.1350
  616POPI   C4B 9840  15.150  11.406   7.591 -0.0074  0.2667  0.1812
  617POPI    C1 9841   3.940   8.071   9.796  0.0342  0.0343 -0.1735
  617POPI    C2 9842   4.080   8.367  10.026  0.0429 -0.0859 -0.0222
  617POPI    C3 9843   4.257   8.008  10.031 -0.1447 -0.1792  0.0154
  617POPI   PO4 9844   3.905   8.144   9.608  0.0473 -0.1354  0.0590
  617POPI   GL1 9845   3.869   8.291   9.227 -0.1072  0.0611 -0.1999
  617POPI   GL2 9846   3.659   8.016   9.243  0.3705  0.2497  0.1373
  617POPI   C1A 9847   3.860   8.225   8.794  0.1678 -0.1661 -0.0660
  617POPI   D2A 9848   3.990   8.158   8.362  0.1245  0.1237 -0.0231
  617POPI   C3A 9849   3.996   8.397   7.980  0.2402  0.2308  0.3999
  617POPI   C4A 9850   4.166   8.570   7.652 -0.0488 -0.0609  0.0778
  617POPI   C1B 9851   3.343   8.062   8.914  0.2655 -0.0527 -0.1740
  617POPI   C2B 9852   3.198   7.819   8.556  0.1498  0.0118  0.1539
  617POPI   C3B 9853   3.362   7.614   8.179 -0.4943  0.1402  0.0887
  617POPI   C4B 9854   3.230   7.678   7.808  0.1517 -0.0452  0.1744
  618POPI    C1 9855   2.013   4.685  10.218  0.2525 -0.2029 -0.0830
  618POPI    C2 9856   1.895   4.304  10.248  0.1473 -0.1566  0.1092
  618POPI    C3 9857   1.705   4.588  10.455  0.2647 -0.0079  0.0145
  618POPI   PO4 9858   1.959   4.705   9.911 -0.0393  0.0009 -0.0346
  618POPI   GL1 9859   2.140   4.945   9.527  0.0839 -0.2158 -0.1214
  618POPI   GL2 9860   1.890   5.037   9.516 -0.1998 -0.0651  0.0130
  618POPI   C1A 9861   2.131   4.805   9.026 -0.1453  0.0953  0.2419
  618POPI   D2A 9862   2.096   4.880   8.622  0.4462  0.2112  0.3623
  618POPI   C3A 9863   2.012   4.628   8.409 -0.3307  0.0354 -0.0540
  618POPI   C4A 9864   2.037   4.347   8.007 -0.2765  0.5137 -0.0835
  618POPI   C1B 9865   1.692   5.098   9.164 -0.0835 -0.4085 -0.1185
  618POPI   C2B 9866   1.462   5.372   8.832 -0.1117  0.1900  0.2005
  618POPI   C3B 9867   1.399   5.709   8.624 -0.2387 -0.2756 -0.1793
  618POPI   C4B 9868   1.375   5.718   8.239  0.0072 -0.1907  0.2361
  619POPI    C1 9869   0.809   4.049  10.051  0.1273 -0.1497  0.1294
  619POPI    C2 9870   0.918   4.056  10.436  0.0635  0.1279  0.1445
  619POPI    C3 9871   0.531   4.086  10.336  0.0990  0.2856  0.0517
  619POPI   PO4 9872   0.979   3.862   9.955  0.1108  0.0977 -0.1299
  619POPI   GL1 9873   0.865   3.713   9.595 -0.2084 -0.1725 -0.0730
  619POPI   GL2 9874   0.721   3.973   9.548 -0.1847  0.0635  0.0787
  619POPI   C1A 9875   0.864   3.501   9.255  0.0655 -0.0373 -0.3789
  619POPI   D2A 9876   0.779   3.170   9.079 -0.1240 -0.0440  0.0268
  619POPI   C3A 9877   0.672   3.284   8.674 -0.1201  0.2003 -0.3276
  619POPI   C4A 9878   0.658   3.447   8.230  0.1307  0.1421 -0.2054
  619POPI   C1B 9879   0.620   4.175   9.178 -0.0329 -0.4124 -0.0331
  619POPI   C2B 9880   0.796   4.316   8.799  0.3125  0.0365 -0.1037
  619POPI   C3B 9881   0.709   4.463   8.374 -0.3331  0.2532  0.0883
  619POPI   C4B 9882   0.659   4.608   7.948  0.0217  0.4783 -0.0970
  620POPI    C1 9883   5.428   8.069   9.716 -0.1217 -0.1748 -0.1165
  620POPI    C2 9884   5.571   8.032  10.088 -0.0291  0.2351 -0.1060
  620POPI    C3 9885   5.238   8.242  10.022 -0.0030  0.2286 -0.2642
  620POPI   PO4 9886   5.321   7.885   9.598 -0.2652 -0.0053 -0.0061
  620POPI   GL1 9887   5.254   7.753   9.162 -0.2873  0.0662 -0.1055
  620POPI   GL2 9888   5.035   7.633   8.941 -0.0773 -0.3351  0.0477
  620POPI   C1A 9889   5.532   7.625   8.836  0.4366 -0.2375 -0.2632
  620POPI   D2A 9890   5.666   7.671   8.434  0.0790 -0.0485  0.1315
  620POPI   C3A 9891   5.460   7.858   8.075  0.3630  0.2926 -0.0899
  620POPI   C4A 9892   5.014   7.885   7.912  0.1625  0.3322  0.1898
  620POPI   C1B 9893   5.171   7.479   8.596 -0.1681  0.2778 -0.0597
  620POPI   C2B 9894   5.086   7.248   8.218  0.1984  0.0487 -0.0299
  620POPI   C3B 9895   4.776   7.007   7.974  0.2106  0.0078 -0.1345
  620POPI   C4B 9896   4.725   6.947   7.627 -0.3253  0.1458 -0.0919
  621POPI    C1 9897   7.633   4.888   9.830 -0.0373  0.1648  0.0341
  621POPI    C2 9898   7.914   5.136   9.968  0.0907 -0.0808  0.2226
  621POPI    C3 9899   7.789   4.830  10.193 -0.3892  0.0717  0.1746
  621POPI   PO4 9900   7.708   4.990   9.552  0.1838 -0.0101 -0.2494
  621POPI   GL1 9901   7.731   5.176   9.224  0.1677  0.1078  0.1172
  621POPI   GL2 9902   7.478   5.459   9.354  0.0929  0.3434 -0.0884
  621POPI   C1A 9903   7.967   5.058   8.892  0.2153  0.3099 -0.3770
  621POPI   D2A 9904   8.338   4.923   8.735 -0.0638  0.2009 -0.0434
  621POPI   C3A 9905   8.532   4.828   8.346  0.1709 -0.0422  0.2347
  621POPI   C4A 9906   8.614   5.073   7.923  0.2196  0.2938 -0.1984
  621POPI   C1B 9907   7.348   5.501   8.979 -0.3708  0.0995 -0.0330
  621POPI   C2B 9908   7.189   5.747   8.634 -0.1458  0.0734  0.0583
  621POPI   C3B 9909   7.223   5.962   8.179 -0.0022  0.1595  0.0507
  621POPI   C4B 9910   7.283   6.265   7.937 -0.2222  0.0695  0.0243
  622POPI    C1 9911  14.132  12.859   9.304 -0.2146  0.1066  0.1913
  622POPI    C2 9912  14.520  12.839   9.208 -0.2651  0.0226  0.0010
  622POPI    C3 9913  14.411  12.941   9.579 -0.0632  0.1417  0.0289
  622POPI   PO4 9914  14.075  12.538   9.203  0.2144 -0.3377 -0.2951
  622POPI   GL1 9915  14.405  12.300   8.947  0.1106  0.1871  0.0539
  622POPI   GL2 9916  14.647  12.014   8.900  0.0332  0.0359  0.4216
  622POPI   C1A 9917  14.111  12.384   8.460 -0.2158  0.1346 -0.0817
  622POPI   D2A 9918  13.943  12.216   8.124  0.0575  0.1159 -0.1032
  622POPI   C3A 9919  13.612  12.476   7.906  0.2420 -0.0162 -0.2294
  622POPI   C4A 9920  13.512  12.860   7.797  0.1230  0.0510 -0.2300
  622POPI   C1B 9921  14.558  12.036   8.473  0.0128 -0.2057 -0.2826
  622POPI   C2B 9922  14.395  12.193   8.075 -0.4448 -0.4671 -0.1392
  622POPI   C3B 9923  14.379  12.042   7.648  0.1685  0.2848  0.2890
  622POPI   C4B 9924  14.654  12.258   7.323 -0.0339  0.0424 -0.1457
  623POPI    C1 9925  15.149  19.299   9.849 -0.0688  0.0858 -0.1559
  623POPI    C2 9926  15.519  19.437   9.910 -0.0857  0.0928 -0.0670
  623POPI    C3 9927  15.221  19.550  10.151 -0.0978 -0.1077  0.0140
  623POPI   PO4 9928  15.098  19.121   9.656 -0.0939  0.0099 -0.1092
  623POPI   GL1 9929  15.020  19.215   9.263 -0.2109 -0.0073  0.3494
  623POPI   GL2 9930  15.195  19.427   9.124  0.1055 -0.2179  0.1558
  623POPI   C1A 9931  15.075  18.874   8.938 -0.1702 -0.1778 -0.1299
  623POPI   D2A 9932  15.340  18.624   8.741 -0.1273  0.0048  0.0066
  623POPI   C3A 9933  15.340  18.559   8.351  0.0338 -0.1459 -0.0234
  623POPI   C4A 9934  15.362  18.460   8.002  0.1435 -0.2502 -0.0181
  623POPI   C1B 9935  15.439  19.493   8.783 -0.0495 -0.1720  0.1118
  623POPI   C2B 9936  15.607  19.730   8.399  0.0073  0.1097  0.0951
  623POPI   C3B 9937  15.592  19.683   7.944 -0.2219  0.1237  0.2274
  623POPI   C4B 9938  15.658  19.771   7.499  0.0764  0.0554  0.4968
  624POPI    C1 9939  17.548  13.530   9.751  0.1654 -0.0543 -0.0057
  624POPI    C2 9940  17.245  13.757   9.881  0.3406  0.2501 -0.1183
  624POPI    C3 9941  17.546  13.664  10.128  0.1879 -0.0034 -0.0236
  624POPI   PO4 9942  17.492  13.546   9.513 -0.0484  0.1648  0.3331
  624POPI   GL1 9943  17.757  13.500   9.049 -0.3838  0.1486 -0.0050
  624POPI   GL2 9944  17.609  13.807   9.109 -0.2188  0.1668 -0.0415
  624POPI   C1A 9945  17.647  13.509   8.574 -0.2644 -0.2443  0.0245
  624POPI   D2A 9946  17.726  13.737   8.132  0.1742 -0.4087 -0.0867
  624POPI   C3A 9947  17.784  13.998   7.815  0.3155  0.2262 -0.2595
  624POPI   C4A 9948  17.814  14.040   7.450 -0.2799 -0.1205 -0.0612
  624POPI   C1B 9949  17.509  14.004   8.679 -0.4436 -0.0261  0.1949
  624POPI   C2B 9950  17.619  14.197   8.289  0.1639  0.0969  0.1189
  624POPI   C3B 9951  17.683  14.470   7.914  0.1089 -0.3313  0.3012
  624POPI   C4B 9952  17.535  14.513   7.520 -0.2131 -0.0767 -0.0685
  625DPPI    C1 9953   1.898   9.462   9.881 -0.1626 -0.2792  0.0877
  625DPPI    C2 9954   2.123   9.729  10.076  0.1437 -0.3550 -0.1529
  625DPPI    C3 9955   1.760   9.832   9.943  0.1443 -0.1467  0.0004
  625DPPI   PO4 9956   2.134   9.332   9.749 -0.1712 -0.1269 -0.1126
  625DPPI   GL1 9957   2.207   9.117   9.261  0.1979 -0.1414  0.2200
  625DPPI   GL2 9958   1.999   8.954   9.442 -0.4225 -0.1087 -0.2728
  625DPPI   C1A 9959   2.244   9.060   8.846 -0.4094 -0.0046  0.1481
  625DPPI   C2A 9960   2.208   8.846   8.455 -0.2125 -0.2133  0.0644
  625DPPI   C3A 9961   2.335   8.803   8.084 -0.2418 -0.0619 -0.1579
  625DPPI   C4A 9962   2.170   8.881   7.654  0.0083  0.0703  0.2012
  625DPPI   C1B 9963   1.834   8.652   9.108 -0.0549 -0.3149  0.2277
  625DPPI   C2B 9964   1.760   8.628   8.593  0.0752  0.0319  0.0263
  625DPPI   C3B 9965   1.828   8.674   8.051  0.2021 -0.1156  0.0139
  625DPPI   C4B 9966   1.870   8.494   7.611  0.1929  0.1170 -0.0842
  626DPPI    C1 9967  16.262   2.285   9.886 -0.2569  0.1721 -0.0599
  626DPPI    C2 9968  16.544   2.447  10.117 -0.1936  0.0344 -0.0393
  626DPPI    C3 9969  16.319   2.148  10.258 -0.4094  0.2017 -0.0248
  626DPPI   PO4 9970  16.312   2.336   9.670  0.3473  0.1220  0.0889
  626DPPI   GL1 9971  16.220   2.551   9.295  0.0842 -0.1084  0.0681
  626DPPI   GL2 9972  16.504   2.582   9.254  0.1945  0.0245  0.0015
  626DPPI   C1A 9973  16.116   2.679   8.858  0.3138  0.4423 -0.1642
  626DPPI   C2A 9974  15.989   2.642   8.439  0.0299  0.0592 -0.2370
  626DPPI   C3A 9975  15.827   2.673   8.065 -0.0922 -0.0190 -0.0987
  626DPPI   C4A 9976  15.760   2.515   7.696 -0.0133  0.1384 -0.1347
  626DPPI   C1B 9977  16.397   2.223   8.933 -0.0601 -0.1373  0.1481
  626DPPI   C2B 9978  16.179   2.186   8.533  0.0698  0.0644  0.0932
  626DPPI   C3B 9979  16.455   2.052   8.280  0.0122  0.1352 -0.0527
  626DPPI   C4B 9980  16.425   1.801   8.031  0.2420  0.0727  0.0941
  627DPPI    C1 9981   0.052   3.114  10.149  0.0693  0.1625  0.0072
  627DPPI    C2 9982  -0.301   3.192  10.322 -0.0524 -0.1035 -0.1150
  627DPPI    C3 9983   0.038   3.321  10.491 -0.1822 -0.1790  0.2105
  627DPPI   PO4 9984   0.067   3.199   9.936  0.0395 -0.0823 -0.0464
  627DPPI   GL1 9985   0.304   3.238   9.453  0.2067  0.1105  0.0097
  627DPPI   GL2 9986   0.399   2.897   9.286 -0.2775 -0.1363  0.0405
  627DPPI   C1A 9987   0.245   3.232   8.956  0.0107 -0.1209  0.2769
  627DPPI   C2A 9988   0.178   3.203   8.586  0.2754  0.3113  0.1108
  627DPPI   C3A 9989   0.186   3.263   8.118 -0.1247 -0.1402  0.0719
  627DPPI   C4A 9990   0.336   2.956   7.879  0.0568  0.1993 -0.3282
  627DPPI   C1B 9991   0.297   2.712   8.976 -0.1465  0.1118 -0.2039
  627DPPI   C2B 9992   0.347   2.696   8.461  0.0508  0.1368  0.0337
  627DPPI   C3B 9993   0.533   2.530   8.144 -0.0376 -0.4458  0.0897
  627DPPI   C4B 9994   0.842   2.522   7.836 -0.0544 -0.1446 -0.0413
  628DPPI    C1 9995   0.763   2.452  10.141 -0.0105 -0.2267 -0.3317
  628DPPI    C2 9996   0.983   2.125  10.073 -0.0141 -0.3349  0.1428
  628DPPI    C3 9997   1.076   2.369  10.376 -0.2371 -0.0981  0.0242
  628DPPI   PO4 9998   0.631   2.441   9.932  0.1949  0.0918  0.4043
  628DPPI   GL1 9999   0.610   2.543   9.579  0.0937 -0.1636 -0.1325
  628DPPI   GL210000   0.376   2.264   9.535 -0.3216 -0.0748  0.1614
  628DPPI   C1A10001   0.812   2.617   9.177 -0.0439  0.0149 -0.0345
  628DPPI   C2A10002   0.731   2.601   8.763 -0.0758 -0.1480  0.1180
  628DPPI   C3A10003   1.034   2.412   8.324 -0.0209 -0.0841 -0.0103
  628DPPI   C4A10004   1.222   2.757   8.020 -0.0852  0.0834 -0.0442
  628DPPI   C1B10005   0.403   2.209   9.103  0.1402  0.2050 -0.2475
  628DPPI   C2B10006   0.495   2.185   8.594  0.3185  0.1118 -0.2402
  628DPPI   C3B10007   0.590   2.045   8.169  0.0767  0.0327  0.1903
  628DPPI   C4B10008   0.618   1.999   7.706  0.1543 -0.0495 -0.0847
  629DPPI    C110009  17.941   2.419   9.992  0.0169 -0.2880  0.1381
  629DPPI    C210010  17.683   2.724  10.010  0.3010 -0.0421  0.1227
  629DPPI    C310011  17.566   2.357  10.119 -0.0609  0.0581  0.0873
  629DPPI   PO410012  18.046   2.389   9.755  0.0534  0.3452 -0.0559
  629DPPI   GL110013  18.093   2.331   9.467  0.0138  0.3411  0.1016
  629DPPI   GL210014  17.949   2.131   9.330  0.3975  0.1021  0.1174
  629DPPI   C1A10015  18.330   2.566   9.258 -0.1440 -0.0837  0.0779
  629DPPI   C2A10016  18.464   2.611   8.914  0.0469 -0.0295  0.0145
  629DPPI   C3A10017  18.510   2.517   8.463 -0.2127 -0.1281 -0.1046
  629DPPI   C4A10018  18.487   2.616   8.084  0.1911 -0.0025 -0.4536
  629DPPI   C1B10019  17.748   1.955   9.016 -0.4857 -0.2712  0.0692
  629DPPI   C2B10020  17.665   1.741   8.678  0.1273 -0.1613  0.1791
  629DPPI   C3B10021  17.780   1.754   8.255  0.1119  0.1030 -0.2333
  629DPPI   C4B10022  17.823   1.863   7.759 -0.1366  0.1164  0.1360
  630DPPI    C110023  13.093   3.998   9.448 -0.1262 -0.2121 -0.0371
  630DPPI    C210024  12.827   3.793   9.230 -0.1620 -0.1312 -0.0697
  630DPPI    C310025  12.701   4.042   9.517 -0.1132 -0.2812  0.0836
  630DPPI   PO410026  13.327   3.922   9.271 -0.1063  0.0346 -0.0305
  630DPPI   GL110027  13.528   4.144   8.925  0.0002 -0.0424  0.0269
  630DPPI   GL210028  13.807   4.050   9.079  0.1998 -0.1544  0.0919
  630DPPI   C1A10029  13.801   4.279   8.595  0.1827 -0.2521  0.0119
  630DPPI   C2A10030  13.834   4.108   8.179  0.3517  0.0766  0.0926
  630DPPI   C3A10031  13.857   3.787   7.754  0.2051 -0.0581 -0.2249
  630DPPI   C4A10032  13.579   3.607   7.562  0.1101  0.0727 -0.1387
  630DPPI   C1B10033  13.812   3.774   8.675  0.0352  0.1877  0.0207
  630DPPI   C2B10034  13.963   3.578   8.268 -0.0300 -0.2210  0.0303
  630DPPI   C3B10035  14.179   3.451   7.954  0.2555  0.1382  0.0340
  630DPPI   C4B10036  14.282   3.251   7.607  0.1829  0.1650 -0.2003
  631DPPI    C110037  18.641   3.321   9.976 -0.0046 -0.0474 -0.0877
  631DPPI    C210038  18.732   2.950  10.096 -0.0817 -0.0607 -0.0696
  631DPPI    C310039  18.698   3.245  10.365  0.0658 -0.0215 -0.0928
  631DPPI   PO410040  18.582   3.259   9.730 -0.0082  0.1907 -0.0041
  631DPPI   GL110041  18.593   3.209   9.320  0.0919  0.0381 -0.1661
  631DPPI   GL210042  18.391   3.600   9.363 -0.1837  0.2944  0.1781
  631DPPI   C1A10043  18.309   3.098   8.942  0.1150  0.0827  0.2822
  631DPPI   C2A10044  18.051   2.774   8.669 -0.0032 -0.1521 -0.0010
  631DPPI   C3A10045  17.910   2.676   8.318 -0.1006  0.1432 -0.4098
  631DPPI   C4A10046  17.964   2.695   7.895  0.1358 -0.1114 -0.1104
  631DPPI   C1B10047  18.290   3.573   8.909  0.0058 -0.0500  0.0415
  631DPPI   C2B10048  18.128   3.656   8.485 -0.0537  0.1118  0.0141
  631DPPI   C3B10049  17.924   3.688   8.116 -0.5862 -0.0766  0.0462
  631DPPI   C4B10050  17.864   3.743   7.574  0.1578  0.1282  0.0509
  632DPPI    C110051  13.878  13.804   9.445  0.1166  0.0838  0.0964
  632DPPI    C210052  13.839  14.146   9.242 -0.3013  0.0042  0.0335
  632DPPI    C310053  13.747  14.133   9.631 -0.0384  0.0221  0.0980
  632DPPI   PO410054  13.970  13.623   9.327 -0.1953 -0.1538  0.0691
  632DPPI   GL110055  14.056  13.551   8.992  0.1985 -0.0565  0.0394
  632DPPI   GL210056  14.096  13.227   8.983  0.2351 -0.1664  0.1752
  632DPPI   C1A10057  14.239  13.500   8.551 -0.0598 -0.1643  0.0231
  632DPPI   C2A10058  14.304  13.545   8.109  0.1412 -0.1755 -0.2691
  632DPPI   C3A10059  14.199  13.629   7.725  0.0291  0.0778  0.0277
  632DPPI   C4A10060  14.232  13.769   7.267  0.0155 -0.2153 -0.0223
  632DPPI   C1B10061  14.160  12.980   8.583 -0.2961 -0.2975  0.0310
  632DPPI   C2B10062  14.490  12.905   8.308  0.0214  0.4467  0.1382
  632DPPI   C3B10063  14.559  12.866   7.917 -0.0148  0.2301  0.2665
  632DPPI   C4B10064  14.709  12.757   7.427  0.1146  0.1658 -0.0671
  633DPPI    C110065   3.137  11.465  10.080  0.0029  0.1210 -0.1757
  633DPPI    C210066   3.331  11.117  10.046  0.1048  0.1446  0.1384
  633DPPI    C310067   3.520  11.438  10.193 -0.0518  0.2768  0.0535
  633DPPI   PO410068   2.954  11.360   9.792 -0.0221  0.1132 -0.1580
  633DPPI   GL110069   3.016  11.354   9.382  0.0189 -0.1451 -0.1094
  633DPPI   GL210070   2.897  11.198   9.202 -0.0042 -0.0984  0.0006
  633DPPI   C1A10071   3.101  11.690   9.036 -0.0050 -0.1439 -0.2192
  633DPPI   C2A10072   3.434  11.926   8.845  0.1198  0.2579 -0.1570
  633DPPI   C3A10073   3.488  12.353   8.701  0.1502 -0.1372  0.0774
  633DPPI   C4A10074   3.517  12.705   8.437  0.1364 -0.1460  0.3024
  633DPPI   C1B10075   3.093  11.259   8.821 -0.1504  0.0536 -0.2089
  633DPPI   C2B10076   3.240  11.127   8.443 -0.0583  0.3690 -0.1518
  633DPPI   C3B10077   3.145  11.190   8.043  0.0603  0.2312  0.1869
  633DPPI   C4B10078   3.132  11.334   7.662  0.2069  0.0330  0.1964
  634DPPI    C110079  12.796   1.148  10.260 -0.1560 -0.0022  0.0134
  634DPPI    C210080  12.472   1.068  10.480 -0.1473 -0.0757 -0.0004
  634DPPI    C310081  12.837   1.019  10.636 -0.1391 -0.2557 -0.0740
  634DPPI   PO410082  12.653   1.084  10.018 -0.0760  0.2175  0.0162
  634DPPI   GL110083  12.806   1.151   9.610 -0.2790  0.0927 -0.2428
  634DPPI   GL210084  12.491   0.992   9.531  0.2525 -0.0676  0.1205
  634DPPI   C1A10085  12.872   0.926   9.210  0.1416 -0.2937  0.2123
  634DPPI   C2A10086  12.644   0.815   8.836  0.0211 -0.2441  0.1269
  634DPPI   C3A10087  12.478   0.952   8.520 -0.1208  0.2920  0.1259
  634DPPI   C4A10088  12.504   1.031   8.115  0.0308  0.1211 -0.4841
  634DPPI   C1B10089  12.494   0.579   9.297  0.0370 -0.2123  0.1691
  634DPPI   C2B10090  12.654   0.175   9.221 -0.0200 -0.1606  0.4169
  634DPPI   C3B10091  13.005  -0.016   9.328  0.0624  0.2464 -0.1227
  634DPPI   C4B10092  13.411   0.043   9.234 -0.2483 -0.1639 -0.1065
  635PYPI    C110093  14.493  12.494   9.775  0.2521 -0.0058  0.1054
  635PYPI    C210094  14.381  12.117   9.848 -0.3887  0.1130 -0.1966
  635PYPI    C310095  14.319  12.400  10.123 -0.2476  0.0674 -0.1167
  635PYPI   PO410096  14.500  12.410   9.467  0.0901  0.2883 -0.0743
  635PYPI   GL110097  14.839  12.442   9.164  0.0377 -0.3453 -0.0176
  635PYPI   GL210098  15.002  12.238   9.109 -0.3646  0.1161  0.0496
  635PYPI   C1A10099  14.799  12.602   8.748  0.1160  0.0457  0.0705
  635PYPI   C2A10100  14.737  12.488   8.264  0.0678 -0.0767 -0.3398
  635PYPI   D3A10101  14.797  12.398   7.774 -0.2200 -0.3899 -0.2071
  635PYPI   C4A10102  15.122  12.332   7.606 -0.0998  0.2534 -0.2792
  635PYPI   C1B10103  15.056  12.103   8.670 -0.2264 -0.1050 -0.0119
  635PYPI   C2B10104  15.106  12.056   8.262  0.0830 -0.0322 -0.0115
  635PYPI   C3B10105  15.254  11.739   7.958  0.2139  0.0271  0.3389
  635PYPI   C4B10106  15.533  11.777   7.565 -0.1086 -0.1704  0.0132
  636PYPI    C110107  12.783  13.118   9.523  0.0899 -0.1950 -0.1489
  636PYPI    C210108  12.672  12.861   9.809  0.0220 -0.1892 -0.1698
  636PYPI    C310109  12.395  13.055   9.596  0.0723 -0.2092 -0.2538
  636PYPI   PO410110  12.831  13.037   9.362 -0.1335  0.3636 -0.0702
  636PYPI   GL110111  12.928  13.136   8.980  0.1298 -0.1055  0.0984
  636PYPI   GL210112  12.680  12.912   8.694  0.1820 -0.2225 -0.0644
  636PYPI   C1A10113  13.211  13.185   8.565 -0.0090 -0.1122  0.0267
  636PYPI   C2A10114  13.314  13.161   8.157 -0.3634  0.1557  0.0301
  636PYPI   D3A10115  13.536  13.336   7.820 -0.0611  0.0948 -0.1111
  636PYPI   C4A10116  13.272  13.394   7.526 -0.2227  0.2577 -0.0708
  636PYPI   C1B10117  12.863  12.974   8.280 -0.0877 -0.0172 -0.2666
  636PYPI   C2B10118  12.999  12.812   7.854  0.0792 -0.0736 -0.1376
  636PYPI   C3B10119  12.749  13.059   7.500 -0.1119  0.0795 -0.2585
  636PYPI   C4B10120  12.846  13.322   7.238  0.1307 -0.1418 -0.0457
  637PYPI    C110121   4.630   4.791   9.984  0.1413  0.0322  0.2812
  637PYPI    C210122   5.016   4.819   9.882  0.0268  0.1701 -0.1334
  637PYPI    C310123   4.803   5.151   9.953  0.0402  0.0854  0.3284
  637PYPI   PO410124   4.492   4.590   9.693 -0.0854  0.0983 -0.0137
  637PYPI   GL110125   4.264   4.735   9.309 -0.3495  0.1621  0.1326
  637PYPI   GL210126   3.963   4.685   9.211 -0.1982  0.0096 -0.1285
  637PYPI   C1A10127   4.444   4.521   8.942  0.1627 -0.2347  0.0468
  637PYPI   C2A10128   4.682   4.486   8.561 -0.2641 -0.0775  0.0507
  637PYPI   D3A10129   4.793   4.499   8.067  0.0033 -0.2477 -0.2552
  637PYPI   C4A10130   4.482   4.514   7.714 -0.1046  0.2141 -0.1129
  637PYPI   C1B10131   3.962   4.843   8.852  0.0352  0.0534  0.0857
  637PYPI   C2B10132   3.790   4.862   8.438  0.2438 -0.1020 -0.0253
  637PYPI   C3B10133   3.695   4.805   7.991 -0.1122  0.2919  0.0829
  637PYPI   C4B10134   3.490   4.546   7.585  0.4000 -0.2561 -0.1479
  638PYPI    C110135  15.629  16.162   9.621 -0.0214  0.0124 -0.0525
  638PYPI    C210136  15.505  16.260   9.989  0.1132  0.0241 -0.0098
  638PYPI    C310137  15.586  15.879   9.901 -0.1394 -0.0117 -0.0944
  638PYPI   PO410138  15.512  16.223   9.488  0.1727 -0.0617  0.1539
  638PYPI   GL110139  15.614  16.139   8.994  0.0929  0.0150 -0.0867
  638PYPI   GL210140  15.769  16.260   8.792  0.0927  0.2800 -0.0305
  638PYPI   C1A10141  15.346  16.024   8.577  0.1642  0.4555  0.1020
  638PYPI   C2A10142  15.217  15.911   8.196 -0.1350 -0.0855  0.2790
  638PYPI   D3A10143  15.321  15.903   7.770 -0.1416  0.0308  0.2570
  638PYPI   C4A10144  15.502  16.135   7.513 -0.1063 -0.2069  0.0583
  638PYPI   C1B10145  15.779  15.850   8.488  0.0766 -0.0451  0.0235
  638PYPI   C2B10146  15.635  15.599   8.083  0.1708  0.0579 -0.2435
  638PYPI   C3B10147  15.557  15.464   7.627  0.2609 -0.0484  0.1631
  638PYPI   C4B10148  15.637  15.245   7.169 -0.0185 -0.0254 -0.0858
  639PYPI    C110149   7.359   4.119  10.019  0.0929 -0.0559 -0.0068
  639PYPI    C210150   7.386   3.742  10.152  0.4506  0.0047  0.1020
  639PYPI    C310151   7.300   4.039  10.406 -0.0565 -0.0254 -0.0223
  639PYPI   PO410152   7.134   4.117   9.844  0.1196  0.0544 -0.0440
  639PYPI   GL110153   6.921   4.121   9.507  0.0314 -0.3185  0.3573
  639PYPI   GL210154   6.690   4.302   9.446 -0.0565 -0.0480 -0.0392
  639PYPI   C1A10155   7.209   4.120   9.100  0.0228 -0.1767 -0.0754
  639PYPI   C2A10156   7.467   4.232   8.744 -0.0244 -0.1955 -0.1940
  639PYPI   D3A10157   7.389   4.313   8.337 -0.0813  0.0837  0.1231
  639PYPI   C4A10158   7.650   4.559   8.088 -0.0608 -0.2099  0.0415
  639PYPI   C1B10159   6.777   4.273   8.971  0.0071  0.2607  0.0829
  639PYPI   C2B10160   6.645   4.517   8.615  0.0178  0.2459  0.2962
  639PYPI   C3B10161   6.376   4.645   8.170  0.2417  0.0297  0.2673
  639PYPI   C4B10162   6.227   4.796   7.728  0.0336  0.0575 -0.0250
  640PYPI    C110163  12.226  19.352   9.963 -0.0168 -0.1396 -0.1408
  640PYPI    C210164  12.323  19.080  10.239 -0.1141 -0.0057  0.0274
  640PYPI    C310165  12.228  19.452  10.350 -0.0958  0.0658 -0.1922
  640PYPI   PO410166  12.186  19.156   9.682  0.0693 -0.3172 -0.2127
  640PYPI   GL110167  12.027  19.131   9.311 -0.1491  0.1015 -0.1593
  640PYPI   GL210168  12.163  18.780   9.127 -0.0349  0.1697 -0.0323
  640PYPI   C1A10169  12.058  19.415   8.934  0.0487  0.2050  0.0721
  640PYPI   C2A10170  11.938  19.645   8.615  0.2081  0.0879 -0.0587
  640PYPI   D3A10171  11.970  19.765   8.295 -0.1097 -0.0368 -0.1416
  640PYPI   C4A10172  12.079  19.446   7.957  0.0971 -0.1414 -0.2771
  640PYPI   C1B10173  12.242  18.702   8.712  0.2301 -0.0554 -0.0347
  640PYPI   C2B10174  12.463  18.457   8.416  0.1893 -0.0257  0.1761
  640PYPI   C3B10175  12.905  18.337   8.182 -0.2080  0.1019  0.1363
  640PYPI   C4B10176  13.172  18.048   7.932 -0.0136  0.0886  0.0895
  641ERGO   ROH10177   0.546   8.511   9.199  0.0982  0.2843 -0.0527
  641ERGO    R110178   0.441   8.437   8.946  0.0271  0.2570 -0.0161
  641ERGO    R210179   0.359   8.623   8.759  0.1402  0.2440 -0.0852
  641ERGO    R310180   0.531   8.489   8.597  0.0386  0.0595 -0.0422
  641ERGO    R410181   0.358   8.640   8.414  0.0379 -0.0255 -0.1003
  641ERGO    R510182   0.398   8.425   8.409 -0.0405 -0.0401  0.0504
  641ERGO    C110183   0.520   8.524   8.061 -0.1170 -0.3555 -0.0688
  641ERGO    C210184   0.458   8.742   7.838  0.3870  0.0954 -0.0220
  642ERGO   ROH10185   9.118  17.622   9.418 -0.1362 -0.1729 -0.0312
  642ERGO    R110186   9.010  17.663   9.160 -0.0642 -0.1455 -0.0574
  642ERGO    R210187   9.010  17.910   9.035 -0.2155 -0.0872  0.0542
  642ERGO    R310188   9.134  17.773   8.836 -0.0198  0.1027  0.0420
  642ERGO    R410189   8.972  17.975   8.698 -0.3762 -0.1640  0.0567
  642ERGO    R510190   8.970  17.761   8.662 -0.0299 -0.1747  0.0681
  642ERGO    C110191   9.066  17.885   8.314 -0.2860 -0.0307  0.0467
  642ERGO    C210192   9.121  17.880   7.980  0.2385  0.2003 -0.0522
  643ERGO   ROH10193   6.678  18.467   9.414  0.1779 -0.0068 -0.2040
  643ERGO    R110194   6.423  18.456   9.292  0.0645 -0.0924  0.0360
  643ERGO    R210195   6.364  18.588   9.057 -0.2034 -0.1089  0.0943
  643ERGO    R310196   6.286  18.341   8.975 -0.1998 -0.1326  0.1599
  643ERGO    R410197   6.176  18.524   8.774 -0.0118 -0.1961 -0.0157
  643ERGO    R510198   6.066  18.374   8.887 -0.1324 -0.1180 -0.0183
  643ERGO    C110199   5.993  18.254   8.533  0.1031 -0.2693 -0.0181
  643ERGO    C210200   5.864  18.234   8.209  0.0225 -0.0138  0.3293
  644ERGO   ROH10201   5.607  10.469   9.197 -0.0816  0.0961  0.0725
  644ERGO    R110202   5.794  10.429   8.988 -0.1297 -0.0138  0.0522
  644ERGO    R210203   5.754  10.246   8.785 -0.2809  0.0449  0.0408
  644ERGO    R310204   5.797  10.461   8.626 -0.1321  0.0283  0.0529
  644ERGO    R410205   5.919  10.237   8.482 -0.5461 -0.1275 -0.1045
  644ERGO    R510206   6.015  10.426   8.535 -0.2441 -0.2536 -0.1395
  644ERGO    C110207   6.056  10.435   8.156 -0.5609 -0.2436 -0.1778
  644ERGO    C210208   6.034  10.337   7.809  0.1453 -0.1461 -0.1115
  645ERGO   ROH10209  16.124  16.607   8.882  0.4188  0.0207  0.1798
  645ERGO    R110210  16.143  16.463   8.639  0.5245 -0.0658  0.2382
  645ERGO    R210211  16.008  16.539   8.410  0.1087 -0.5004  0.3220
  645ERGO    R310212  16.256  16.531   8.300  0.0368  0.0389  0.0889
  645ERGO    R410213  16.082  16.403   8.101  0.1389 -0.4723  0.3168
  645ERGO    R510214  16.264  16.319   8.187  0.4311 -0.0044  0.1858
  645ERGO    C110215  16.358  16.316   7.817  0.0893  0.0503  0.0950
  645ERGO    C210216  16.538  16.272   7.438 -0.3318 -0.1663  0.0676
  646ERGO   ROH10217   2.442   0.378   9.714  0.1529 -0.0449  0.0212
  646ERGO    R110218   2.399   0.190   9.507 -0.0213 -0.0086  0.0239
  646ERGO    R210219   2.190   0.211   9.328  0.0024  0.1865  0.0235
  646ERGO    R310220   2.389   0.195   9.144 -0.0106 -0.0069  0.0226
  646ERGO    R410221   2.142   0.146   8.992 -0.0929  0.4622 -0.0201
  646ERGO    R510222   2.320   0.018   8.997 -0.2816  0.1816 -0.0885
  646ERGO    C110223   2.302   0.093   8.623 -0.1606  0.4413 -0.0462
  646ERGO    C210224   2.411   0.131   8.156 -0.1856 -0.0344  0.1894
  647ERGO   ROH10225  10.247   5.609   9.318  0.1345  0.0384 -0.1198
  647ERGO    R110226  10.452   5.671   9.133  0.1496  0.0898 -0.0862
  647ERGO    R210227  10.556   5.485   8.957  0.2187  0.1177 -0.0775
  647ERGO    R310228  10.490   5.672   8.772  0.2047  0.1098 -0.0798
  647ERGO    R410229  10.656   5.480   8.627 -0.0013 -0.0186 -0.1442
  647ERGO    R510230  10.687   5.695   8.638  0.1294 -0.0345 -0.2156
  647ERGO    C110231  10.653   5.652   8.260 -0.1424 -0.1053 -0.1851
  647ERGO    C210232  10.686   5.444   8.012 -0.0529 -0.4140 -0.1173
  648ERGO   ROH10233  11.732   2.212   9.500 -0.0139  0.0382 -0.1046
  648ERGO    R110234  11.752   2.236   9.219 -0.0422 -0.1022 -0.1196
  648ERGO    R210235  11.927   2.083   9.068 -0.0729 -0.1973 -0.0595
  648ERGO    R310236  11.702   2.018   8.932 -0.0989 -0.2430 -0.0077
  648ERGO    R410237  11.915   2.006   8.732 -0.1608  0.1567 -0.1415
  648ERGO    R510238  11.730   2.119   8.717 -0.2836  0.0275  0.0788
  648ERGO    C110239  11.696   1.899   8.407 -0.2364  0.3199 -0.1406
  648ERGO    C210240  11.558   1.828   8.161  0.1464 -0.0188 -0.0388
  649ERGO   ROH10241   1.305  18.496   9.615  0.2000  0.2660 -0.0334
  649ERGO    R110242   1.122  18.500   9.399 -0.0343  0.3498  0.1625
  649ERGO    R210243   0.988  18.729   9.321  0.2825  0.5041  0.0723
  649ERGO    R310244   1.095  18.671   9.078 -0.0851  0.0541  0.0043
  649ERGO    R410245   0.905  18.887   9.025  0.3545  0.4800  0.0386
  649ERGO    R510246   0.912  18.693   8.925 -0.2000  0.3655  0.1721
  649ERGO    C110247   0.957  18.923   8.624  0.0514  0.0438 -0.0449
  649ERGO    C210248   0.963  18.966   8.300 -0.1083  0.0456  0.1384
  650ERGO   ROH10249  16.706  10.545   8.520  0.0695  0.0437  0.1033
  650ERGO    R110250  16.631  10.376   8.307  0.0214 -0.0110  0.1616
  650ERGO    R210251  16.476  10.463   8.094 -0.0749 -0.0768  0.1948
  650ERGO    R310252  16.683  10.366   7.947 -0.1052 -0.0647  0.1463
  650ERGO    R410253  16.464  10.394   7.756 -0.1679 -0.1805  0.2198
  650ERGO    R510254  16.581  10.214   7.792 -0.1124 -0.1331  0.2264
  650ERGO    C110255  16.650  10.262   7.420 -0.2505 -0.2295  0.1887
  650ERGO    C210256  16.821  10.271   7.134  0.2815  0.0778  0.1300
  651ERGO   ROH10257  10.507  17.677   9.052  0.0633 -0.1490 -0.0231
  651ERGO    R110258  10.462  17.669   8.773  0.0359 -0.0817 -0.0215
  651ERGO    R210259  10.656  17.738   8.588  0.0259 -0.0607 -0.0259
  651ERGO    R310260  10.602  17.491   8.487 -0.0091 -0.0324 -0.0746
  651ERGO    R410261  10.692  17.648   8.256  0.3494 -0.0929  0.0160
  651ERGO    R510262  10.506  17.535   8.272  0.2599  0.0189 -0.1878
  651ERGO    C110263  10.663  17.364   7.969  0.5047 -0.0849 -0.0055
  651ERGO    C210264  10.870  17.206   7.639 -0.2628 -0.2292  0.1987
  652ERGO   ROH10265  11.240   4.702   9.029 -0.0643 -0.2225  0.0003
  652ERGO    R110266  11.172   4.616   8.767  0.0067 -0.0750 -0.0676
  652ERGO    R210267  11.191   4.782   8.547  0.2002  0.0079  0.0103
  652ERGO    R310268  11.344   4.579   8.449  0.1323 -0.0365 -0.0057
  652ERGO    R410269  11.290   4.751   8.217  0.0832 -0.0647 -0.0188
  652ERGO    R510270  11.253   4.536   8.231  0.0498 -0.0578  0.0311
  652ERGO    C110271  11.491   4.544   7.933 -0.0488 -0.1487 -0.0506
  652ERGO    C210272  11.712   4.485   7.686 -0.0799 -0.0154 -0.3549
  653ERGO   ROH10273   7.293  14.552   9.012 -0.0996  0.1065 -0.1011
  653ERGO    R110274   7.276  14.653   8.748 -0.4086  0.0552 -0.1050
  653ERGO    R210275   7.440  14.564   8.544 -0.1906  0.4764 -0.1218
  653ERGO    R310276   7.204  14.519   8.417 -0.1031 -0.1634 -0.0877
  653ERGO    R410277   7.397  14.566   8.201 -0.2772  0.6009 -0.1106
  653ERGO    R510278   7.207  14.669   8.231 -0.6100  0.0029  0.0203
  653ERGO    C110279   7.150  14.524   7.883 -0.2454  0.0727 -0.0723
  653ERGO    C210280   7.151  14.517   7.626  0.0060  0.2290  0.1901
  654ERGO   ROH10281   6.857   1.742   9.411  0.0379 -0.0159  0.0029
  654ERGO    R110282   6.848   1.918   9.190 -0.0287  0.0280  0.0397
  654ERGO    R210283   7.066   1.963   9.026 -0.0617  0.1014  0.0136
  654ERGO    R310284   6.893   1.893   8.829 -0.0798  0.1093  0.0273
  654ERGO    R410285   7.092   2.060   8.696 -0.1032  0.1326  0.0199
  654ERGO    R510286   6.876   2.088   8.692 -0.1054  0.1209  0.0468
  654ERGO    C110287   6.944   2.050   8.318 -0.1445  0.1582  0.0365
  654ERGO    C210288   7.014   2.176   7.905 -0.0963 -0.4971 -0.1113
  655ERGO   ROH10289   7.838  18.268   9.013 -0.2237  0.0214 -0.0617
  655ERGO    R110290   7.882  18.057   8.829 -0.1595  0.0138 -0.0357
  655ERGO    R210291   7.733  18.027   8.599  0.0720  0.1359 -0.1978
  655ERGO    R310292   7.976  18.026   8.479  0.2037 -0.0137  0.0582
  655ERGO    R410293   7.797  17.897   8.285  0.2198  0.4529 -0.3036
  655ERGO    R510294   7.984  17.816   8.363  0.0481  0.1124 -0.2009
  655ERGO    C110295   8.063  17.821   7.989  0.4296  0.4971 -0.1249
  655ERGO    C210296   8.231  17.704   7.734  0.0098  0.0218  0.2107
  656ERGO   ROH10297   9.534   8.116   9.077 -0.0731 -0.3761  0.1556
  656ERGO    R110298   9.666   8.149   8.829  0.0596 -0.2647  0.2388
  656ERGO    R210299   9.803   7.944   8.705  0.0212 -0.2482  0.1559
  656ERGO    R310300   9.641   8.007   8.495  0.1425 -0.0211  0.1285
  656ERGO    R410301   9.846   7.833   8.380 -0.1273 -0.3579  0.1734
  656ERGO    R510302   9.790   8.031   8.310  0.1950 -0.2815  0.1408
  656ERGO    C110303   9.719   7.827   7.995 -0.0998 -0.2085  0.1579
  656ERGO    C210304   9.519   7.755   7.603 -0.1546  0.0844  0.1942
  657ERGO   ROH10305   3.498   3.703   9.301  0.2292  0.0138  0.0051
  657ERGO    R110306   3.651   3.797   9.082  0.2111  0.0202 -0.0043
  657ERGO    R210307   3.812   3.631   8.930  0.1209  0.0078 -0.0823
  657ERGO    R310308   3.667   3.735   8.724  0.1108  0.1095 -0.0255
  657ERGO    R410309   3.941   3.718   8.621  0.0390 -0.2206 -0.1833
  657ERGO    R510310   3.814   3.895   8.623  0.2311 -0.0770 -0.1552
  657ERGO    C110311   3.881   3.865   8.249 -0.0182 -0.2581 -0.1887
  657ERGO    C210312   3.779   3.847   7.910  0.0313 -0.1699  0.1324
  658ERGO   ROH10313   6.018   9.004   9.248  0.2159  0.1597 -0.2323
  658ERGO    R110314   6.026   8.831   9.024  0.2064  0.1161 -0.1987
  658ERGO    R210315   5.849   8.852   8.813  0.1183 -0.0048 -0.1361
  658ERGO    R310316   6.076   8.865   8.665  0.0572  0.0617 -0.2258
  658ERGO    R410317   5.894   8.696   8.508  0.0592 -0.0317 -0.1318
  658ERGO    R510318   6.098   8.646   8.570  0.1039  0.0550 -0.2021
  658ERGO    C110319   6.135   8.618   8.191 -0.0326  0.0152 -0.2135
  658ERGO    C210320   6.123   8.491   7.907  0.1008 -0.0620  0.0185
  659ERGO   ROH10321   0.497  14.772   8.840 -0.1894  0.1319  0.0439
  659ERGO    R110322   0.490  14.610   8.608 -0.1123  0.0196  0.1194
  659ERGO    R210323   0.254  14.510   8.503 -0.0961  0.1300 -0.0157
  659ERGO    R310324   0.341  14.631   8.276  0.1677 -0.0466 -0.0143
  659ERGO    R410325   0.243  14.368   8.188 -0.4824  0.1741 -0.0275
  659ERGO    R510326   0.440  14.453   8.149 -0.2681 -0.2868 -0.0448
  659ERGO    C110327   0.319  14.399   7.791 -0.4597  0.0339 -0.0331
  659ERGO    C210328   0.327  14.310   7.478 -0.2502  0.1000  0.1036
  660ERGO   ROH10329  17.278  14.955   9.218  0.0629 -0.0942 -0.0770
  660ERGO    R110330  17.382  14.910   8.959  0.1276 -0.0897 -0.0525
  660ERGO    R210331  17.343  14.674   8.822  0.0598 -0.0441 -0.1159
  660ERGO    R310332  17.248  14.840   8.628  0.2018  0.0432 -0.1115
  660ERGO    R410333  17.331  14.597   8.485 -0.1831 -0.1034 -0.0950
  660ERGO    R510334  17.393  14.802   8.441  0.0757 -0.1941 -0.1642
  660ERGO    C110335  17.235  14.708   8.107 -0.1912 -0.0557 -0.0787
  660ERGO    C210336  17.238  14.752   7.862 -0.4247  0.1794 -0.0772
  661ERGO   ROH10337   9.543   0.754   9.080 -0.0074 -0.0507  0.0942
  661ERGO    R110338   9.477   0.728   8.806  0.0590 -0.1794  0.0903
  661ERGO    R210339   9.434   0.945   8.641 -0.1518 -0.2589  0.0381
  661ERGO    R310340   9.625   0.827   8.489 -0.0012 -0.0886  0.0905
  661ERGO    R410341   9.452   0.966   8.297 -0.1170 -0.3014  0.0372
  661ERGO    R510342   9.508   0.756   8.292  0.1040 -0.2464  0.0836
  661ERGO    C110343   9.642   0.867   7.953  0.0445 -0.1663  0.0859
  661ERGO    C210344   9.709   0.836   7.641  0.1241  0.0129  0.1573
  662ERGO   ROH10345  17.128  13.727   9.087 -0.0399  0.0516  0.0516
  662ERGO    R110346  17.206  13.615   8.839 -0.1069 -0.1377  0.1142
  662ERGO    R210347  17.024  13.531   8.650 -0.1630  0.1575  0.0338
  662ERGO    R310348  17.165  13.697   8.487  0.2298 -0.1226  0.0745
  662ERGO    R410349  17.002  13.533   8.305 -0.2032  0.3217  0.0363
  662ERGO    R510350  17.219  13.561   8.297 -0.1220 -0.2018  0.0230
  662ERGO    C110351  17.122  13.690   7.951  0.1424  0.1542  0.0761
  662ERGO    C210352  17.056  13.635   7.615 -0.1118  0.2558 -0.0634
  663ERGO   ROH10353   4.872   9.107   9.115 -0.1051 -0.0036 -0.0017
  663ERGO    R110354   4.775   9.141   8.851 -0.1693  0.1176  0.0366
  663ERGO    R210355   4.646   9.371   8.768  0.0298  0.2586  0.1054
  663ERGO    R310356   4.837   9.370   8.575 -0.0398  0.0828  0.0365
  663ERGO    R410357   4.622   9.536   8.465  0.0715  0.2728  0.1100
  663ERGO    R510358   4.714   9.363   8.370 -0.1179  0.1881  0.0809
  663ERGO    C110359   4.786   9.630   8.107  0.0304  0.1160  0.0477
  663ERGO    C210360   4.715   9.812   7.849 -0.3254 -0.1757 -0.1373
  664ERGO   ROH10361   4.172  17.953   9.016  0.2492  0.0318  0.1016
  664ERGO    R110362   4.207  17.955   8.735 -0.0176  0.0023  0.0659
  664ERGO    R210363   4.454  17.927   8.615 -0.0977  0.2235 -0.1612
  664ERGO    R310364   4.331  17.725   8.482 -0.0235  0.0670  0.0043
  664ERGO    R410365   4.573  17.779   8.327 -0.0025 -0.0300  0.0060
  664ERGO    R510366   4.369  17.773   8.251  0.0160 -0.1476 -0.0351
  664ERGO    C110367   4.527  17.502   8.035  0.1226 -0.3245  0.2587
  664ERGO    C210368   4.637  17.257   7.771 -0.1345  0.1366  0.0782
  665ERGO   ROH10369  12.953  10.194   9.194 -0.0586 -0.1942  0.0942
  665ERGO    R110370  12.765  10.078   9.017 -0.1051 -0.0844  0.0704
  665ERGO    R210371  12.499  10.153   9.012 -0.0829  0.0020  0.1046
  665ERGO    R310372  12.548  10.194   8.748 -0.0822  0.0614  0.1143
  665ERGO    R410373  12.259  10.147   8.763 -0.0757  0.0127  0.0982
  665ERGO    R510374  12.401  10.042   8.636 -0.0556  0.0601  0.0813
  665ERGO    C110375  12.167  10.182   8.370 -0.0709  0.0748  0.1036
  665ERGO    C210376  12.091  10.223   7.926  0.1530 -0.2036 -0.1366
  666ERGO   ROH10377  19.189   7.719   9.478 -0.0246 -0.1490 -0.0611
  666ERGO    R110378  19.218   7.586   9.229 -0.0590 -0.0146 -0.1371
  666ERGO    R210379  19.010   7.454   9.105 -0.0395 -0.0683 -0.1076
  666ERGO    R310380  19.075   7.615   8.896 -0.2181  0.0658 -0.0638
  666ERGO    R410381  19.020   7.353   8.775 -0.0896  0.0761 -0.1547
  666ERGO    R510382  19.201   7.473   8.749 -0.1744  0.2075 -0.1687
  666ERGO    C110383  19.088   7.445   8.386 -0.2865  0.2860 -0.1411
  666ERGO    C210384  18.982   7.286   8.110 -0.1633 -0.0742  0.1751
  667ERGO   ROH10385  15.826   1.370   9.029  0.0137 -0.0389  0.0310
  667ERGO    R110386  15.827   1.266   8.766 -0.3159 -0.2798  0.1157
  667ERGO    R210387  15.596   1.194   8.633 -0.5521  0.1805  0.2439
  667ERGO    R310388  15.691   1.364   8.443 -0.1649 -0.2070  0.0749
  667ERGO    R410389  15.501   1.191   8.301 -0.5634  0.0878  0.2486
  667ERGO    R510390  15.709   1.228   8.246 -0.4744 -0.4361  0.2016
  667ERGO    C110391  15.535   1.348   7.929 -0.2065 -0.3299  0.0927
  667ERGO    C210392  15.319   1.221   7.743 -0.0257 -0.0215  0.1626
  668ERGO   ROH10393  13.617  13.756   9.030  0.0264  0.0481 -0.1229
  668ERGO    R110394  13.659  13.686   8.759 -0.0344  0.0951 -0.1450
  668ERGO    R210395  13.458  13.693   8.571 -0.0875  0.0875 -0.0903
  668ERGO    R310396  13.634  13.851   8.436 -0.1512  0.1385 -0.1138
  668ERGO    R410397  13.524  13.670   8.232  0.0202 -0.0242 -0.0620
  668ERGO    R510398  13.735  13.703   8.276 -0.0131  0.1306 -0.0191
  668ERGO    C110399  13.728  13.804   7.908  0.0231 -0.0415 -0.0677
  668ERGO    C210400  13.698  13.701   7.498  0.0647  0.1435 -0.2317
  669ERGO   ROH10401   3.614   9.336   9.121 -0.2385 -0.2467  0.0181
  669ERGO    R110402   3.698   9.322   8.851 -0.2165 -0.3432  0.0292
  669ERGO    R210403   3.552   9.191   8.657 -0.4528 -0.0022 -0.0332
  669ERGO    R310404   3.569   9.430   8.529  0.0519  0.0075  0.0334
  669ERGO    R410405   3.602   9.228   8.317 -0.4152 -0.0153 -0.0288
  669ERGO    R510406   3.737   9.394   8.361 -0.0401 -0.3136  0.0024
  669ERGO    C110407   3.648   9.474   7.999  0.0805 -0.0139  0.0365
  669ERGO    C210408   3.687   9.370   7.665 -0.1173 -0.3221  0.2220
  670ERGO   ROH10409   0.888   7.606   9.365  0.3248 -0.1350 -0.1025
  670ERGO    R110410   0.948   7.511   9.105  0.1936 -0.0729 -0.1567
  670ERGO    R210411   0.756   7.485   8.908  0.0770 -0.1034 -0.0431
  670ERGO    R310412   0.927   7.641   8.765 -0.0621 -0.0226 -0.1237
  670ERGO    R410413   0.727   7.552   8.570 -0.1530 -0.0526 -0.0150
  670ERGO    R510414   0.944   7.531   8.553 -0.1573  0.0212 -0.1531
  670ERGO    C110415   0.872   7.736   8.239 -0.4175  0.0528 -0.0746
  670ERGO    C210416   0.806   7.768   7.816 -0.0301  0.2345  0.3421
  671ERGO   ROH10417   6.862   3.671   9.018  0.1389 -0.1097 -0.0056
  671ERGO    R110418   6.906   3.750   8.750  0.0714 -0.0460  0.0019
  671ERGO    R210419   6.700   3.771   8.565  0.0225  0.0144  0.0627
  671ERGO    R310420   6.798   4.023   8.534  0.0315  0.0155  0.0985
  671ERGO    R410421   6.708   3.945   8.267  0.0098  0.0647  0.0914
  671ERGO    R510422   6.906   4.019   8.320  0.0168  0.0468  0.0905
  671ERGO    C110423   6.805   4.282   8.064  0.0109  0.0949  0.1418
  671ERGO    C210424   6.708   4.463   7.844 -0.0467 -0.0760  0.3118
  672ERGO   ROH10425   7.371  13.536   8.876 -0.1599  0.2153 -0.0176
  672ERGO    R110426   7.327  13.620   8.609 -0.0364  0.1109 -0.0721
  672ERGO    R210427   7.409  13.471   8.391 -0.0035 -0.0127  0.0230
  672ERGO    R310428   7.148  13.494   8.319  0.0296  0.0382 -0.0818
  672ERGO    R410429   7.292  13.457   8.066  0.1195 -0.0378 -0.0205
  672ERGO    R510430   7.153  13.618   8.114  0.1391  0.0036 -0.1005
  672ERGO    C110431   6.979  13.470   7.809  0.2222 -0.0046 -0.1441
  672ERGO    C210432   6.936  13.577   7.493 -0.0865 -0.0087  0.3440
  673ERGO   ROH10433  17.658   8.577   9.089 -0.1790 -0.0127 -0.1458
  673ERGO    R110434  17.557   8.613   8.827 -0.1081 -0.1137 -0.1873
  673ERGO    R210435  17.701   8.740   8.629 -0.1423  0.0056 -0.1325
  673ERGO    R310436  17.651   8.512   8.491  0.1155 -0.0444 -0.1483
  673ERGO    R410437  17.689   8.717   8.284 -0.0026 -0.0036 -0.1374
  673ERGO    R510438  17.518   8.582   8.304  0.1105 -0.1646 -0.1943
  673ERGO    C110439  17.636   8.488   7.954  0.3208 -0.0557 -0.1552
  673ERGO    C210440  17.608   8.394   7.669  0.3023 -0.0277 -0.2574
  674loPI    C110441  11.255  14.302   4.123  0.1750 -0.0488  0.1632
  674loPI    C210442  11.476  13.991   4.003  0.0600  0.0495 -0.3260
  674loPI    C310443  11.096  14.025   3.883 -0.1429  0.0329  0.2736
  674loPI   PO410444  11.435  14.266   4.446 -0.4042 -0.1183 -0.0260
  674loPI   GL110445  11.422  14.177   4.892  0.1495 -0.0036  0.2018
  674loPI   GL210446  11.108  14.325   5.141  0.0051 -0.0952  0.0514
  674loPI   C1A10447  11.544  14.017   5.209 -0.3983 -0.2389 -0.0525
  674loPI   C2A10448  11.573  13.913   5.603 -0.1600  0.1371  0.0361
  674loPI   C3A10449  11.458  13.908   6.022  0.0638 -0.2198  0.0914
  674loPI   C4A10450  11.386  14.055   6.368 -0.1559  0.0248  0.0992
  674loPI   C5A10451  11.001  14.332   6.700  0.0571  0.1177 -0.1283
  674loPI   C6A10452  11.068  14.729   6.938 -0.0133  0.1642  0.0624
  674loPI   C1B10453  11.438  14.562   5.351  0.1232 -0.2725  0.0568
  674loPI   C2B10454  11.675  14.832   5.404 -0.2665  0.3611 -0.0227
  674loPI   C3B10455  11.582  15.322   5.443  0.0420  0.0296  0.2556
  674loPI   C4B10456  11.163  15.389   5.675 -0.1081  0.0477 -0.0636
  675loPI    C110457  12.695  19.223   5.090 -0.0439 -0.0217  0.0369
  675loPI    C210458  12.881  19.320   4.749  0.0099  0.0188  0.0776
  675loPI    C310459  12.484  19.268   4.753 -0.0061  0.1341  0.0333
  675loPI   PO410460  12.826  19.012   5.143 -0.0727 -0.0441  0.0289
  675loPI   GL110461  13.103  18.887   5.508  0.2245 -0.1174  0.2415
  675loPI   GL210462  13.216  18.546   5.618  0.1350  0.2543 -0.0894
  675loPI   C1A10463  12.944  18.935   5.936  0.0898 -0.0913  0.0050
  675loPI   C2A10464  13.119  18.802   6.321  0.0745 -0.3320  0.0432
  675loPI   C3A10465  13.082  18.789   6.759  0.0167  0.0046 -0.0264
  675loPI   C4A10466  13.075  18.871   7.248 -0.3602  0.0701 -0.0311
  675loPI   C5A10467  12.763  19.036   7.534 -0.0938  0.0079 -0.0989
  675loPI   C6A10468  12.540  19.262   7.850  0.1410 -0.1271 -0.4440
  675loPI   C1B10469  13.440  18.859   5.857  0.1022  0.1059  0.1541
  675loPI   C2B10470  13.501  19.100   6.210  0.0843  0.1642  0.3623
  675loPI   C3B10471  13.492  19.370   6.502 -0.1094  0.2622 -0.2480
  675loPI   C4B10472  13.653  19.541   6.841  0.0811  0.2024  0.0647
  676loPI    C110473   4.649   8.032   4.838  0.1009 -0.0963 -0.1455
  676loPI    C210474   4.556   8.358   5.049 -0.0274 -0.3467  0.1933
  676loPI    C310475   4.915   8.328   4.877 -0.0364 -0.0031  0.1060
  676loPI   PO410476   4.390   7.913   4.896  0.0078  0.4188 -0.1062
  676loPI   GL110477   4.228   8.103   5.429  0.1246 -0.0558  0.3472
  676loPI   GL210478   4.489   8.006   5.378  0.0269 -0.0612 -0.0145
  676loPI   C1A10479   4.251   8.194   5.920  0.0689 -0.2792 -0.0538
  676loPI   C2A10480   4.077   8.288   6.345 -0.1199  0.0997 -0.1852
  676loPI   C3A10481   3.922   8.616   6.577 -0.3635 -0.0408  0.0135
  676loPI   C4A10482   3.516   8.766   6.425 -0.3482  0.0375 -0.2518
  676loPI   C5A10483   3.318   8.736   6.143  0.2248 -0.0890 -0.2875
  676loPI   C6A10484   2.980   8.809   5.821  0.0553  0.4127  0.0702
  676loPI   C1B10485   4.754   7.946   5.790  0.0517 -0.2228 -0.2015
  676loPI   C2B10486   5.010   8.010   6.127  0.2467  0.1129 -0.1784
  676loPI   C3B10487   5.431   8.126   6.137  0.0253  0.1196 -0.1751
  676loPI   C4B10488   5.807   8.012   5.903  0.1050 -0.3870  0.3499
  677loPI    C110489  12.218   1.602   4.645 -0.0863 -0.1731 -0.1117
  677loPI    C210490  12.534   1.653   4.404  0.0955 -0.0245  0.1527
  677loPI    C310491  12.470   1.299   4.579 -0.0364 -0.1325 -0.1085
  677loPI   PO410492  12.244   1.812   4.807  0.0802 -0.1641 -0.2561
  677loPI   GL110493  12.338   1.830   5.231 -0.0034  0.0116  0.0051
  677loPI   GL210494  12.130   2.045   5.337 -0.3447 -0.0051  0.0646
  677loPI   C1A10495  12.405   1.727   5.657  0.0130 -0.0783  0.0287
  677loPI   C2A10496  12.557   1.631   6.000  0.0392 -0.2758  0.5396
  677loPI   C3A10497  12.411   1.404   6.404  0.1460  0.0316 -0.2555
  677loPI   C4A10498  12.564   1.226   6.777 -0.0346 -0.1007  0.0298
  677loPI   C5A10499  12.394   1.048   7.213  0.2266  0.2245  0.1014
  677loPI   C6A10500  12.425   0.771   7.564 -0.3766 -0.0514  0.0063
  677loPI   C1B10501  12.103   2.112   5.827  0.1247 -0.0501  0.2560
  677loPI   C2B10502  12.108   1.875   6.135 -0.2470  0.1799 -0.2735
  677loPI   C3B10503  12.148   1.746   6.545  0.0522  0.2131 -0.0716
  677loPI   C4B10504  11.832   1.826   6.869 -0.0276 -0.1247  0.0805
  678loPI    C110505  17.108  16.883   4.293  0.0809  0.1416 -0.0543
  678loPI    C210506  17.210  16.531   4.132 -0.1347 -0.1168  0.3559
  678loPI    C310507  17.062  16.822   3.900  0.1108 -0.2677  0.0011
  678loPI   PO410508  17.039  16.832   4.553 -0.1333  0.1348 -0.0296
  678loPI   GL110509  17.108  17.044   4.931  0.0008 -0.0805 -0.1722
  678loPI   GL210510  17.277  16.755   5.046 -0.0557  0.0634  0.1542
  678loPI   C1A10511  17.085  17.121   5.398 -0.0427 -0.0325 -0.0636
  678loPI   C2A10512  17.192  17.166   5.780  0.2210  0.0319  0.1567
  678loPI   C3A10513  17.092  17.327   6.150  0.1476  0.4010 -0.0868
  678loPI   C4A10514  17.154  17.354   6.536  0.1397 -0.4373 -0.0933
  678loPI   C5A10515  16.978  17.367   6.952 -0.2479  0.1156 -0.1490
  678loPI   C6A10516  17.177  17.371   7.376 -0.2331  0.2103  0.3233
  678loPI   C1B10517  17.565  16.810   5.373  0.0200  0.0189 -0.0358
  678loPI   C2B10518  17.525  16.721   5.810  0.0372  0.1576  0.0244
  678loPI   C3B10519  17.416  16.539   6.210 -0.0158  0.2370  0.4111
  678loPI   C4B10520  17.288  16.489   6.631 -0.1139  0.0987  0.0415
  679loPI    C110521   7.607   5.248   4.633  0.0659  0.2392 -0.2374
  679loPI    C210522   7.506   4.911   4.443  0.1274 -0.0060  0.1551
  679loPI    C310523   7.422   5.265   4.278  0.0523 -0.2094 -0.2581
  679loPI   PO410524   7.556   5.289   4.913  0.2433 -0.1589 -0.0714
  679loPI   GL110525   7.868   5.393   5.255 -0.2299 -0.2118 -0.0097
  679loPI   GL210526   7.711   5.032   5.327 -0.3315  0.1066 -0.0081
  679loPI   C1A10527   7.728   5.246   5.766  0.1052 -0.1383  0.0749
  679loPI   C2A10528   7.674   5.385   6.246 -0.1403  0.0873 -0.2342
  679loPI   C3A10529   7.970   5.564   6.585  0.2533 -0.0152  0.3838
  679loPI   C4A10530   8.238   5.596   6.810  0.3432  0.1979 -0.0277
  679loPI   C5A10531   8.604   5.596   7.085  0.0821  0.0281  0.2358
  679loPI   C6A10532   8.790   5.680   7.405  0.1183  0.0484  0.1298
  679loPI   C1B10533   7.378   5.396   5.445  0.0219 -0.0469 -0.0623
  679loPI   C2B10534   7.329   5.518   5.915 -0.0101 -0.2599 -0.0576
  679loPI   C3B10535   7.226   5.574   6.347  0.2044  0.1533 -0.0831
  679loPI   C4B10536   7.265   5.678   6.746  0.0789 -0.2296 -0.0543
  680loPI    C110537   4.117  15.433   4.543 -0.0781 -0.1629 -0.1389
  680loPI    C210538   4.426  15.542   4.314 -0.1775  0.1246 -0.1399
  680loPI    C310539   4.309  15.160   4.324  0.2103  0.0033 -0.0978
  680loPI   PO410540   4.235  15.582   4.797 -0.1352 -0.0810  0.1165
  680loPI   GL110541   4.294  15.688   5.220  0.0612  0.0678 -0.0367
  680loPI   GL210542   4.319  15.306   5.143  0.1407  0.0183  0.1205
  680loPI   C1A10543   4.478  15.824   5.604  0.1754  0.2226 -0.2085
  680loPI   C2A10544   4.411  16.044   6.019 -0.1930 -0.0590  0.3537
  680loPI   C3A10545   4.539  16.124   6.480  0.6824  0.0833 -0.0618
  680loPI   C4A10546   4.666  16.029   6.911  0.1401 -0.1828 -0.0804
  680loPI   C5A10547   4.403  16.065   7.202 -0.2394 -0.0932  0.2674
  680loPI   C6A10548   4.117  16.025   7.557 -0.4427 -0.0215  0.1060
  680loPI   C1B10549   4.361  15.304   5.578 -0.0378  0.2761  0.0460
  680loPI   C2B10550   4.299  15.469   5.963 -0.1665 -0.3432  0.1909
  680loPI   C3B10551   4.090  15.391   6.396 -0.0389  0.1067  0.0247
  680loPI   C4B10552   4.099  15.262   6.795 -0.2880 -0.0644  0.2570
  681loPI    C110553   0.527  10.567   4.455  0.1166  0.1684 -0.2175
  681loPI    C210554   0.581  10.174   4.408 -0.4196  0.0498  0.0727
  681loPI    C310555   0.690  10.427   4.118 -0.2730 -0.3288 -0.2111
  681loPI   PO410556   0.564  10.685   4.695  0.0859 -0.1309  0.2192
  681loPI   GL110557   0.478  10.614   5.042 -0.0814  0.1786 -0.0347
  681loPI   GL210558   0.535  11.028   5.047  0.1401  0.2543 -0.0827
  681loPI   C1A10559   0.844  10.726   5.436  0.0012 -0.0195  0.2935
  681loPI   C2A10560   0.756  10.793   5.783 -0.1067 -0.2968  0.1215
  681loPI   C3A10561   0.935  11.136   6.154  0.0337  0.0074 -0.2218
  681loPI   C4A10562   1.154  11.464   6.420  0.1558  0.0061  0.1361
  681loPI   C5A10563   1.053  11.607   6.786  0.0565  0.0062 -0.0705
  681loPI   C6A10564   0.744  11.620   7.049 -0.0219  0.0606  0.0608
  681loPI   C1B10565   0.366  11.401   5.312  0.0910 -0.1582  0.2874
  681loPI   C2B10566   0.161  11.512   5.574  0.4676 -0.0314 -0.0582
  681loPI   C3B10567   0.017  11.711   5.919  0.2436 -0.2284  0.2112
  681loPI   C4B10568  -0.185  11.768   6.379  0.2273 -0.1968  0.0630
  682loPI    C110569   3.566   0.985   4.969  0.0302 -0.1011  0.1816
  682loPI    C210570   3.228   1.197   5.003  0.1039  0.0124  0.2139
  682loPI    C310571   3.412   1.170   4.649 -0.0942 -0.2912  0.1298
  682loPI   PO410572   3.487   0.757   5.005  0.0433  0.1621 -0.1654
  682loPI   GL110573   3.378   0.545   5.360  0.1058 -0.2695 -0.0048
  682loPI   GL210574   3.065   0.527   5.217  0.0232 -0.0607 -0.0188
  682loPI   C1A10575   3.465   0.716   5.761 -0.0226  0.0624 -0.1597
  682loPI   C2A10576   3.467   0.544   6.139 -0.2086 -0.2288  0.1737
  682loPI   C3A10577   3.251   0.497   6.537 -0.2939 -0.1329  0.3375
  682loPI   C4A10578   3.144   0.339   6.875  0.0015 -0.0648 -0.3590
  682loPI   C5A10579   3.178   0.340   7.377 -0.1522  0.0102  0.1337
  682loPI   C6A10580   3.054   0.369   7.654 -0.1059 -0.3364  0.2149
  682loPI   C1B10581   3.047   0.377   5.701  0.1078 -0.2059  0.1497
  682loPI   C2B10582   3.122   0.191   6.093  0.0421 -0.1662 -0.1012
  682loPI   C3B10583   3.116  -0.018   6.555 -0.1318  0.0303  0.2714
  682loPI   C4B10584   3.087  -0.115   7.027 -0.0380  0.3152  0.2199
  683loPI    C110585   7.172   0.050   4.724 -0.0545  0.3219 -0.2314
  683loPI    C210586   7.543  -0.044   4.605  0.0075  0.3052 -0.0289
  683loPI    C310587   7.246  -0.021   4.338  0.0845 -0.0173 -0.1455
  683loPI   PO410588   7.059  -0.098   4.988  0.0672  0.1092  0.1342
  683loPI   GL110589   7.071  -0.230   5.306  0.0013 -0.2988  0.2382
  683loPI   GL210590   7.347  -0.252   5.564  0.1681 -0.2520  0.0074
  683loPI   C1A10591   6.781  -0.136   5.674  0.2270 -0.1606  0.4157
  683loPI   C2A10592   6.853  -0.203   6.207  0.0026 -0.0619  0.1837
  683loPI   C3A10593   6.920  -0.228   6.658  0.3762 -0.0908 -0.1241
  683loPI   C4A10594   6.998  -0.514   7.002 -0.1514  0.3730 -0.1261
  683loPI   C5A10595   7.151  -0.721   7.392  0.3172 -0.0452  0.2638
  683loPI   C6A10596   7.472  -0.987   7.568  0.2856  0.1050  0.1690
  683loPI   C1B10597   7.620  -0.083   5.835 -0.2989  0.0567 -0.1104
  683loPI   C2B10598   7.916   0.183   6.136 -0.3622 -0.1378 -0.0751
  683loPI   C3B10599   7.935   0.459   6.431  0.3359 -0.2156  0.1074
  683loPI   C4B10600   8.011   0.602   6.741  0.1961  0.0479 -0.1427
  684loPI    C110601  14.196  19.346   4.946  0.0464  0.0340  0.0976
  684loPI    C210602  14.530  19.230   4.759 -0.1276  0.0616 -0.2371
  684loPI    C310603  14.248  19.430   4.558 -0.3139  0.1038  0.0614
  684loPI   PO410604  14.253  19.459   5.090 -0.3580  0.1240  0.1579
  684loPI   GL110605  14.179  19.452   5.520  0.0068  0.2177 -0.0224
  684loPI   GL210606  14.371  19.304   5.722 -0.0051  0.0921  0.1955
  684loPI   C1A10607  14.200  19.776   5.850 -0.0569 -0.2824  0.0349
  684loPI   C2A10608  14.275  20.137   6.168  0.2152 -0.0478  0.0760
  684loPI   C3A10609  14.102  20.341   6.515  0.2978 -0.0190  0.1386
  684loPI   C4A10610  13.906  20.413   6.920  0.2893  0.1911  0.1231
  684loPI   C5A10611  13.635  20.351   7.177  0.0147  0.1649 -0.3693
  684loPI   C6A10612  13.335  20.560   7.398  0.0652 -0.1949  0.0756
  684loPI   C1B10613  14.609  19.286   6.070  0.0854  0.0011 -0.0503
  684loPI   C2B10614  14.639  19.271   6.527 -0.4779 -0.1045 -0.2058
  684loPI   C3B10615  14.644  19.508   6.861  0.0364 -0.0089  0.1292
  684loPI   C4B10616  14.566  19.498   7.245  0.1086  0.1457  0.1542
  685loPI    C110617   1.344  16.579   4.833 -0.0459 -0.0654  0.1106
  685loPI    C210618   1.612  16.350   4.643  0.0303  0.0580  0.0677
  685loPI    C310619   1.235  16.370   4.510  0.0577  0.0641 -0.0092
  685loPI   PO410620   1.296  16.510   5.096 -0.2685 -0.2342 -0.3463
  685loPI   GL110621   1.355  16.785   5.450  0.1181  0.0264 -0.1000
  685loPI   GL210622   1.062  16.934   5.533  0.1099 -0.0086 -0.0698
  685loPI   C1A10623   1.482  16.706   5.818  0.0419 -0.2907  0.0753
  685loPI   C2A10624   1.629  16.572   6.215 -0.1731  0.4695 -0.0072
  685loPI   C3A10625   1.751  16.342   6.690  0.2151 -0.2044 -0.1007
  685loPI   C4A10626   1.666  16.222   7.171  0.0006  0.0324  0.1528
  685loPI   C5A10627   1.941  16.080   7.508  0.1849  0.2504  0.1694
  685loPI   C6A10628   1.959  15.679   7.796 -0.0319  0.0295 -0.1804
  685loPI   C1B10629   0.937  16.802   5.945  0.0715 -0.0844 -0.0699
  685loPI   C2B10630   0.714  16.858   6.357  0.1897 -0.0403 -0.2459
  685loPI   C3B10631   0.318  17.123   6.401 -0.2921  0.0038 -0.1431
  685loPI   C4B10632   0.004  17.267   6.641  0.2636 -0.1049 -0.0760
  686loPI    C110633  13.296   8.707   4.645 -0.0993 -0.0877  0.1152
  686loPI    C210634  13.543   8.968   4.467 -0.0179 -0.0933  0.2190
  686loPI    C310635  13.155   8.959   4.368  0.0381 -0.1366 -0.0008
  686loPI   PO410636  13.274   8.690   4.892  0.1527 -0.1099  0.4539
  686loPI   GL110637  13.215   8.914   5.226 -0.0647  0.2920 -0.0650
  686loPI   GL210638  13.581   8.714   5.316 -0.0565 -0.3541 -0.2418
  686loPI   C1A10639  13.393   9.122   5.520  0.0755 -0.0908 -0.0778
  686loPI   C2A10640  13.511   9.180   6.053 -0.0110  0.3338 -0.1375
  686loPI   C3A10641  13.837   9.132   6.423  0.1973  0.1717 -0.0703
  686loPI   C4A10642  13.895   9.083   6.817 -0.0656 -0.3165 -0.0185
  686loPI   C5A10643  13.827   9.434   7.000  0.2036  0.1589 -0.0520
  686loPI   C6A10644  14.048   9.695   7.240  0.2353  0.0124 -0.0427
  686loPI   C1B10645  13.587   8.678   5.740 -0.2623  0.1900  0.2220
  686loPI   C2B10646  13.712   8.406   5.985 -0.1309 -0.2240  0.2194
  686loPI   C3B10647  13.468   8.236   6.284  0.0435  0.1166  0.2839
  686loPI   C4B10648  13.420   8.399   6.712  0.3607  0.1504  0.1238
  687loPI    C110649   7.268  12.111   4.865  0.0890  0.0280  0.0507
  687loPI    C210650   7.004  11.845   5.003 -0.1183  0.0344 -0.3216
  687loPI    C310651   6.932  12.236   5.042 -0.0102  0.0380 -0.1432
  687loPI   PO410652   7.455  12.089   4.929  0.0511  0.2691  0.2120
  687loPI   GL110653   7.443  12.272   5.396 -0.1270 -0.2084  0.1734
  687loPI   GL210654   7.161  12.035   5.488  0.0772 -0.0114  0.2623
  687loPI   C1A10655   7.331  12.371   5.897 -0.1055 -0.0810 -0.2523
  687loPI   C2A10656   7.207  12.328   6.314  0.0582  0.0514 -0.0012
  687loPI   C3A10657   7.001  12.559   6.608 -0.0130  0.0068  0.1556
  687loPI   C4A10658   6.781  12.738   6.858  0.0766 -0.1492 -0.2554
  687loPI   C5A10659   6.431  12.676   7.088 -0.2560  0.3603  0.0323
  687loPI   C6A10660   6.264  13.139   7.306 -0.1977 -0.1357 -0.1880
  687loPI   C1B10661   6.912  12.140   5.872  0.1907  0.4918 -0.1405
  687loPI   C2B10662   6.592  12.199   6.161  0.0191  0.0083  0.0556
  687loPI   C3B10663   6.677  12.190   6.536 -0.1029 -0.0503  0.1762
  687loPI   C4B10664   6.775  12.255   7.043 -0.2973  0.0995  0.2089
  688loPI    C110665  12.690   6.937   4.830 -0.1986  0.1796 -0.2577
  688loPI    C210666  12.956   6.921   4.531  0.0570  0.0924 -0.0309
  688loPI    C310667  12.613   6.716   4.505  0.0870  0.0674 -0.2525
  688loPI   PO410668  12.797   6.915   5.057  0.0844 -0.1369 -0.0998
  688loPI   GL110669  12.606   6.770   5.480  0.2384  0.2378 -0.0360
  688loPI   GL210670  12.930   6.592   5.367 -0.1679  0.1440 -0.1961
  688loPI   C1A10671  12.523   7.024   5.801  0.2478 -0.0529 -0.0853
  688loPI   C2A10672  12.718   7.056   6.192 -0.0854  0.1114  0.3428
  688loPI   C3A10673  12.915   7.185   6.516 -0.0013  0.3695 -0.0774
  688loPI   C4A10674  13.142   7.149   6.850  0.2175  0.0610 -0.1481
  688loPI   C5A10675  13.051   7.251   7.391 -0.0861  0.1734 -0.4150
  688loPI   C6A10676  13.195   7.370   7.793  0.0112 -0.4082  0.1470
  688loPI   C1B10677  12.913   6.676   5.884 -0.2579  0.0918 -0.1141
  688loPI   C2B10678  12.915   6.664   6.404  0.0914  0.0837  0.0871
  688loPI   C3B10679  13.029   6.287   6.664  0.3027 -0.1003  0.0931
  688loPI   C4B10680  12.936   6.169   7.156  0.0376  0.3746  0.1437
  689loPI    C110681   2.516   5.222   4.786 -0.2109  0.1218  0.2750
  689loPI    C210682   2.340   5.577   4.735  0.1729  0.2679 -0.0812
  689loPI    C310683   2.687   5.497   4.552  0.1896 -0.2225  0.1499
  689loPI   PO410684   2.620   5.265   5.097 -0.0234 -0.3823  0.1957
  689loPI   GL110685   2.627   4.863   5.391 -0.4268 -0.2492  0.1097
  689loPI   GL210686   2.952   4.860   5.256 -0.3110  0.1088  0.1539
  689loPI   C1A10687   2.584   4.639   5.874  0.1861 -0.2271  0.0039
  689loPI   C2A10688   2.537   4.509   6.288 -0.1972  0.3117  0.0584
  689loPI   C3A10689   2.579   4.616   6.716  0.2926 -0.0235  0.1214
  689loPI   C4A10690   2.346   4.679   7.159  0.0462  0.0971 -0.1141
  689loPI   C5A10691   1.946   4.783   7.204  0.1494  0.0871  0.0742
  689loPI   C6A10692   1.492   4.901   7.398  0.0251  0.1228 -0.1097
  689loPI   C1B10693   3.055   4.648   5.556  0.1879  0.0359  0.2591
  689loPI   C2B10694   3.213   4.761   5.863  0.3821  0.2911  0.0858
  689loPI   C3B10695   3.100   4.704   6.296 -0.3204  0.0604  0.0557
  689loPI   C4B10696   3.081   4.832   6.722 -0.2482  0.0373 -0.1408
  690loPI    C110697   8.885  14.951   4.384 -0.0918 -0.1526  0.0826
  690loPI    C210698   9.163  14.745   4.183  0.1451  0.1374  0.1061
  690loPI    C310699   8.975  15.052   4.008  0.1450  0.2093  0.2312
  690loPI   PO410700   8.863  14.824   4.653  0.1965  0.4210  0.1649
  690loPI   GL110701   9.030  14.673   5.106 -0.2004  0.0795 -0.0579
  690loPI   GL210702   9.302  14.964   5.204  0.1522 -0.2330  0.2331
  690loPI   C1A10703   8.951  14.470   5.496 -0.0558  0.0454 -0.0376
  690loPI   C2A10704   9.022  14.409   5.891 -0.0058 -0.0437 -0.3960
  690loPI   C3A10705   8.936  14.372   6.282 -0.1479  0.3694  0.0946
  690loPI   C4A10706   8.899  14.541   6.692 -0.4717 -0.0810 -0.3005
  690loPI   C5A10707   8.637  14.512   7.017 -0.3383 -0.3873 -0.0439
  690loPI   C6A10708   8.106  14.416   6.910 -0.3398 -0.3344 -0.1008
  690loPI   C1B10709   9.399  15.009   5.511 -0.1385 -0.1537 -0.0442
  690loPI   C2B10710   9.452  15.014   5.890 -0.0123  0.0940  0.2537
  690loPI   C3B10711   9.543  15.231   6.289 -0.0555  0.1877  0.0109
  690loPI   C4B10712   9.620  15.494   6.591 -0.0944  0.0576  0.3048
  691loPI    C110713   1.504  14.853   4.455  0.3092  0.2671  0.1163
  691loPI    C210714   1.501  15.032   4.097  0.0111 -0.0918 -0.0686
  691loPI    C310715   1.160  14.989   4.301  0.1302 -0.1672  0.1172
  691loPI   PO410716   1.518  14.628   4.520  0.0116  0.0399  0.2137
  691loPI   GL110717   1.446  14.461   4.899  0.2671  0.2018 -0.2572
  691loPI   GL210718   1.234  14.264   4.978 -0.1422 -0.1326 -0.0194
  691loPI   C1A10719   1.654  14.242   5.182 -0.0140 -0.0045  0.1346
  691loPI   C2A10720   1.731  14.024   5.544  0.0632 -0.2281  0.1220
  691loPI   C3A10721   1.778  13.822   5.906  0.2283  0.1513 -0.0046
  691loPI   C4A10722   1.756  13.869   6.348 -0.0741  0.0520 -0.0409
  691loPI   C5A10723   1.711  13.792   6.784 -0.0409  0.0985  0.2179
  691loPI   C6A10724   2.039  13.851   7.069  0.0042 -0.2678  0.2391
  691loPI   C1B10725   1.192  14.086   5.429 -0.2712  0.0043  0.0246
  691loPI   C2B10726   1.257  14.064   5.791 -0.1920 -0.3375 -0.1674
  691loPI   C3B10727   1.454  14.162   6.100  0.1263  0.2444  0.0061
  691loPI   C4B10728   1.202  14.100   6.518 -0.3585 -0.2803  0.1453
  692loPI    C110729  14.253  10.018   4.650  0.1479  0.0913  0.2159
  692loPI    C210730  14.257  10.095   4.258  0.1299  0.0883  0.2151
  692loPI    C310731  14.408   9.751   4.396 -0.0199  0.0130  0.1943
  692loPI   PO410732  14.384  10.134   4.787 -0.2034  0.2913  0.0564
  692loPI   GL110733  14.631  10.171   5.084  0.3393 -0.0937 -0.1330
  692loPI   GL210734  14.919   9.918   5.046  0.4212 -0.0263 -0.1998
  692loPI   C1A10735  14.603  10.070   5.468  0.2571  0.0985 -0.0512
  692loPI   C2A10736  14.335  10.262   5.771 -0.2238 -0.0248  0.1944
  692loPI   C3A10737  14.311  10.352   6.246  0.1869 -0.3565  0.0567
  692loPI   C4A10738  14.425  10.450   6.575 -0.1002  0.0181 -0.0215
  692loPI   C5A10739  14.499  10.273   6.982  0.0932  0.0593  0.1519
  692loPI   C6A10740  14.593   9.861   7.028  0.2598 -0.1312  0.1285
  692loPI   C1B10741  15.077   9.838   5.466 -0.0515 -0.1666  0.0426
  692loPI   C2B10742  15.081   9.815   6.004 -0.3203 -0.0632  0.0833
  692loPI   C3B10743  15.037   9.708   6.380  0.1346  0.1802  0.1296
  692loPI   C4B10744  14.834   9.491   6.619 -0.3280  0.2044 -0.0690
  693loPI    C110745   2.037  10.751   4.522 -0.1823 -0.0132  0.0112
  693loPI    C210746   1.795  10.445   4.434  0.0002 -0.1188 -0.1316
  693loPI    C310747   1.804  10.767   4.198 -0.2584  0.0392  0.0681
  693loPI   PO410748   1.918  10.853   4.793 -0.0796 -0.1621  0.0321
  693loPI   GL110749   2.123  10.873   5.155 -0.2445  0.0143  0.4226
  693loPI   GL210750   2.253  11.085   5.178 -0.0335  0.1499 -0.0505
  693loPI   C1A10751   2.147  10.506   5.377  0.1640 -0.1304  0.0829
  693loPI   C2A10752   2.009  10.133   5.594 -0.1480 -0.0744  0.0734
  693loPI   C3A10753   1.630  10.098   5.866  0.2595  0.1709  0.1299
  693loPI   C4A10754   1.476  10.163   6.278 -0.0072  0.3053 -0.3716
  693loPI   C5A10755   1.383  10.348   6.630 -0.1070  0.3126  0.0027
  693loPI   C6A10756   1.186  10.610   7.005  0.0431  0.0402  0.0599
  693loPI   C1B10757   2.113  11.021   5.613  0.1088  0.1481  0.0069
  693loPI   C2B10758   2.130  10.640   5.911  0.1932  0.3270 -0.0687
  693loPI   C3B10759   2.214  10.543   6.314 -0.5064  0.0573  0.2627
  693loPI   C4B10760   2.216  10.546   6.792 -0.1844 -0.0410  0.0890
  694loPI    C110761  18.497   7.852   4.399 -0.0533 -0.1872 -0.0381
  694loPI    C210762  18.278   8.064   4.140  0.2352  0.0853 -0.0661
  694loPI    C310763  18.676   8.056   4.105  0.2721  0.0567  0.3193
  694loPI   PO410764  18.242   7.604   4.511  0.1126 -0.1300  0.0293
  694loPI   GL110765  17.969   7.672   4.941  0.1161 -0.1783  0.0320
  694loPI   GL210766  17.973   7.374   5.115  0.1650 -0.0050  0.0690
  694loPI   C1A10767  17.704   7.704   5.347 -0.1438  0.1924 -0.2991
  694loPI   C2A10768  17.574   7.746   5.778 -0.2550  0.0546 -0.0935
  694loPI   C3A10769  17.487   7.891   6.203  0.0341 -0.1212 -0.0961
  694loPI   C4A10770  17.577   8.025   6.622  0.0562 -0.0534 -0.2019
  694loPI   C5A10771  17.592   8.001   6.976 -0.0401 -0.1313  0.1837
  694loPI   C6A10772  17.536   8.002   7.397  0.3088 -0.3319 -0.1182
  694loPI   C1B10773  18.152   7.446   5.556  0.3630  0.0872  0.0194
  694loPI   C2B10774  18.454   7.615   5.893  0.3325 -0.2019  0.1519
  694loPI   C3B10775  18.655   7.787   6.307  0.2360  0.0558 -0.0925
  694loPI   C4B10776  18.666   7.900   6.737  0.5061  0.2693 -0.1562
  695loPI    C110777   9.550  18.471   4.836 -0.0140 -0.0919  0.0314
  695loPI    C210778   9.244  18.697   4.710 -0.0575 -0.1567  0.0201
  695loPI    C310779   9.463  18.490   4.446 -0.2216 -0.3849  0.0597
  695loPI   PO410780   9.620  18.586   5.067 -0.1614  0.0334  0.2417
  695loPI   GL110781   9.846  18.477   5.496  0.0690  0.2223 -0.1427
  695loPI   GL210782   9.975  18.804   5.563  0.1127 -0.3280  0.0315
  695loPI   C1A10783   9.758  18.189   5.820  0.1308 -0.0094 -0.1830
  695loPI   C2A10784   9.722  17.870   6.179  0.0791  0.0638  0.2110
  695loPI   C3A10785   9.803  17.571   6.473  0.0277 -0.0574  0.0767
  695loPI   C4A10786   9.621  17.594   6.894 -0.0687 -0.0652 -0.0486
  695loPI   C5A10787   9.337  17.848   7.138 -0.3521  0.0171 -0.3889
  695loPI   C6A10788   9.185  18.066   7.476 -0.0159  0.1528 -0.0038
  695loPI   C1B10789   9.976  18.735   5.985  0.1867  0.0937 -0.0248
  695loPI   C2B10790   9.680  18.878   6.258 -0.0490  0.2072 -0.2639
  695loPI   C3B10791   9.183  19.048   6.392 -0.0435 -0.0114  0.0409
  695loPI   C4B10792   8.975  19.341   6.564  0.1241  0.1057  0.2279
  696loPI    C110793  18.004  14.136   4.124  0.0892 -0.0550  0.1617
  696loPI    C210794  18.050  14.439   3.868  0.1771 -0.2365 -0.0398
  696loPI    C310795  17.998  14.067   3.731 -0.0519 -0.2971  0.2045
  696loPI   PO410796  17.875  14.215   4.342  0.0860  0.1162 -0.0674
  696loPI   GL110797  17.864  14.477   4.660  0.0909  0.0615 -0.2095
  696loPI   GL210798  18.134  14.472   4.808  0.2974 -0.3535  0.1258
  696loPI   C1A10799  17.635  14.539   5.059 -0.1682  0.3613  0.1402
  696loPI   C2A10800  17.297  14.784   5.292 -0.1613  0.2586 -0.2016
  696loPI   C3A10801  17.022  14.823   5.643 -0.0643  0.2201 -0.0579
  696loPI   C4A10802  16.629  14.553   5.853  0.0580 -0.0973 -0.0278
  696loPI   C5A10803  16.363  14.584   6.169  0.4993  0.0051  0.2240
  696loPI   C6A10804  16.336  14.560   6.556  0.1062 -0.1659 -0.1581
  696loPI   C1B10805  18.154  14.639   5.237  0.0515 -0.3220 -0.1589
  696loPI   C2B10806  18.228  14.863   5.561  0.0618 -0.2102  0.3110
  696loPI   C3B10807  18.404  15.165   5.843  0.2265 -0.0082 -0.2980
  696loPI   C4B10808  18.371  15.254   6.280  0.0993 -0.0172  0.1336
  697loPI    C110809  12.203   5.301   4.473  0.0258 -0.1285  0.0751
  697loPI    C210810  12.178   5.697   4.520  0.0826 -0.1348  0.1618
  697loPI    C310811  12.469   5.541   4.294  0.2207 -0.1413  0.3427
  697loPI   PO410812  12.072   5.270   4.741  0.0155 -0.2336  0.0254
  697loPI   GL110813  12.020   5.135   5.217 -0.0341 -0.0592 -0.2014
  697loPI   GL210814  11.796   4.951   5.284 -0.2342  0.2147 -0.0257
  697loPI   C1A10815  11.859   5.189   5.668  0.0249 -0.3423 -0.0779
  697loPI   C2A10816  12.041   5.037   6.057  0.2228 -0.1888  0.0163
  697loPI   C3A10817  12.048   4.778   6.370  0.1248  0.1433 -0.0493
  697loPI   C4A10818  12.166   4.589   6.722 -0.2751  0.1930  0.0597
  697loPI   C5A10819  12.362   4.446   7.083 -0.0694  0.3712  0.2147
  697loPI   C6A10820  12.629   4.305   7.425  0.2291  0.5109 -0.1413
  697loPI   C1B10821  11.718   4.618   5.610 -0.0791  0.1290  0.1318
  697loPI   C2B10822  11.461   4.748   5.993 -0.1836  0.3923 -0.2358
  697loPI   C3B10823  11.285   4.628   6.300  0.0433  0.3330  0.4185
  697loPI   C4B10824  11.049   4.395   6.617  0.2475 -0.0524 -0.0604
  698loPI    C110825  12.840  12.302   4.376 -0.1173 -0.2806 -0.3826
  698loPI    C210826  12.689  12.671   4.406  0.1681 -0.1949  0.1255
  698loPI    C310827  12.928  12.577   4.100 -0.0523 -0.0176 -0.1058
  698loPI   PO410828  12.871  12.250   4.618  0.1490 -0.3230  0.3561
  698loPI   GL110829  13.063  12.273   4.988  0.1198 -0.1663 -0.2364
  698loPI   GL210830  13.463  12.160   4.912  0.1838  0.2466 -0.3622
  698loPI   C1A10831  12.875  12.508   5.327  0.1556 -0.0959 -0.0746
  698loPI   C2A10832  12.719  12.815   5.568  0.4052 -0.0241  0.0853
  698loPI   C3A10833  12.629  12.933   5.942  0.0023  0.3240 -0.4789
  698loPI   C4A10834  12.320  13.106   6.226 -0.0035  0.3051 -0.2525
  698loPI   C5A10835  12.120  12.813   6.543 -0.0318 -0.1039  0.2125
  698loPI   C6A10836  11.932  12.689   7.024  0.1548 -0.1287 -0.1853
  698loPI   C1B10837  13.368  12.271   5.369 -0.0639  0.1012 -0.0366
  698loPI   C2B10838  13.492  12.463   5.747  0.0217  0.3599 -0.0354
  698loPI   C3B10839  13.385  12.639   6.121 -0.0464  0.2547  0.0633
  698loPI   C4B10840  13.329  12.733   6.584  0.1812 -0.0188  0.0383
  699loPI    C110841   9.762   5.937   4.412 -0.1052  0.1140 -0.0545
  699loPI    C210842   9.661   5.832   4.039 -0.2519 -0.1322  0.0522
  699loPI    C310843   9.833   6.186   4.107  0.1077 -0.2323 -0.2964
  699loPI   PO410844   9.609   5.996   4.607  0.1062 -0.0606 -0.2478
  699loPI   GL110845   9.660   6.157   5.077 -0.3979  0.2180  0.3798
  699loPI   GL210846   9.705   5.832   5.096  0.2051 -0.4930 -0.2038
  699loPI   C1A10847   9.679   5.998   5.561 -0.0664  0.2092 -0.0930
  699loPI   C2A10848   9.428   6.138   6.005 -0.0751  0.0215 -0.1456
  699loPI   C3A10849   9.062   6.177   6.039 -0.2695  0.0668  0.0780
  699loPI   C4A10850   8.765   6.199   6.336 -0.3771 -0.2541  0.1239
  699loPI   C5A10851   8.696   6.025   6.745 -0.1076  0.1864 -0.0124
  699loPI   C6A10852   8.978   6.033   7.133 -0.0811 -0.1625  0.0906
  699loPI   C1B10853   9.602   5.525   5.480 -0.0790  0.1606  0.2293
  699loPI   C2B10854   9.545   5.241   5.762  0.0233 -0.2013 -0.0688
  699loPI   C3B10855   9.461   5.218   6.223  0.0158 -0.1339  0.2474
  699loPI   C4B10856   9.291   5.267   6.613  0.0090  0.0319  0.1781
  700loPI    C110857  14.879  15.969   4.612 -0.1147  0.2351 -0.0881
  700loPI    C210858  14.627  15.831   4.334 -0.0290  0.1387 -0.1187
  700loPI    C310859  14.839  16.162   4.264  0.0823  0.0474 -0.2179
  700loPI   PO410860  14.960  15.766   4.726  0.2025 -0.0983  0.2100
  700loPI   GL110861  14.740  15.526   4.969  0.1788  0.0071 -0.0536
  700loPI   GL210862  14.764  15.269   5.129 -0.0730 -0.1106 -0.0753
  700loPI   C1A10863  14.519  15.683   5.310 -0.0608  0.3038  0.1473
  700loPI   C2A10864  14.519  15.697   5.790 -0.1492 -0.0820  0.0428
  700loPI   C3A10865  14.299  15.553   6.158  0.1910 -0.1598  0.0586
  700loPI   C4A10866  14.041  15.285   6.268  0.4318 -0.3475 -0.1594
  700loPI   C5A10867  13.723  15.018   6.320 -0.1891  0.1514  0.1627
  700loPI   C6A10868  13.756  14.687   6.542 -0.0324  0.3329  0.2987
  700loPI   C1B10869  14.619  15.200   5.514  0.3667  0.0902  0.0964
  700loPI   C2B10870  14.533  15.227   5.950  0.2229  0.0934  0.1026
  700loPI   C3B10871  14.580  15.174   6.378  0.0323 -0.1688  0.1777
  700loPI   C4B10872  14.704  15.175   6.802 -0.1944  0.2312 -0.1425
  701loPI    C110873  17.244   3.673   4.707  0.1545 -0.0391  0.2096
  701loPI    C210874  17.234   3.757   4.316 -0.0311 -0.1701  0.1848
  701loPI    C310875  17.509   3.504   4.459  0.0261 -0.1356  0.1363
  701loPI   PO410876  17.056   3.895   4.779 -0.2791 -0.1688 -0.2498
  701loPI   GL110877  16.996   3.964   5.286  0.0355 -0.0518  0.3035
  701loPI   GL210878  16.689   3.805   5.173 -0.0555  0.0015  0.2737
  701loPI   C1A10879  17.040   3.861   5.711 -0.1142 -0.0095 -0.1728
  701loPI   C2A10880  16.827   3.766   5.999 -0.0176 -0.2913 -0.0288
  701loPI   C3A10881  16.619   3.769   6.439  0.0258  0.0761  0.1167
  701loPI   C4A10882  16.459   3.795   6.870  0.0189 -0.0208 -0.1419
  701loPI   C5A10883  16.156   3.448   7.136 -0.0052 -0.0066 -0.0726
  701loPI   C6A10884  15.909   3.472   7.538 -0.0316 -0.2202  0.1294
  701loPI   C1B10885  16.487   3.964   5.596  0.2310 -0.0177 -0.2926
  701loPI   C2B10886  16.396   4.031   6.062  0.4434  0.2810 -0.0067
  701loPI   C3B10887  16.181   3.882   6.360 -0.0350 -0.2085 -0.1305
  701loPI   C4B10888  16.157   3.501   6.627  0.2030 -0.0079 -0.1396
  702loPI    C110889   1.832   2.210   4.796 -0.0239  0.0482  0.0662
  702loPI    C210890   1.638   2.445   4.536 -0.0320  0.0315  0.0570
  702loPI    C310891   2.034   2.481   4.581  0.0067 -0.1324 -0.1368
  702loPI   PO410892   1.704   2.193   5.016  0.1206  0.0933  0.2142
  702loPI   GL110893   1.764   2.430   5.327  0.2554  0.1553  0.0783
  702loPI   GL210894   1.564   2.608   5.430  0.2414 -0.2467  0.1566
  702loPI   C1A10895   1.789   2.231   5.753  0.0800 -0.3093  0.4388
  702loPI   C2A10896   1.673   2.317   6.170 -0.5061 -0.0503 -0.0313
  702loPI   C3A10897   1.382   2.298   6.551  0.2159  0.1135  0.0847
  702loPI   C4A10898   1.158   2.542   6.764  0.2445 -0.0138 -0.1095
  702loPI   C5A10899   0.975   2.566   7.090 -0.0513  0.1597 -0.0947
  702loPI   C6A10900   0.715   2.732   7.273 -0.5605 -0.0153 -0.1944
  702loPI   C1B10901   1.776   2.857   5.823 -0.0030  0.0744  0.3758
  702loPI   C2B10902   1.859   2.820   6.185  0.2592 -0.1460 -0.1997
  702loPI   C3B10903   1.695   2.751   6.551  0.1688 -0.1448 -0.0145
  702loPI   C4B10904   1.318   2.975   6.713 -0.3943 -0.2694  0.0686
  703loPI    C110905  19.503   2.867   4.435 -0.1649 -0.0167  0.0469
  703loPI    C210906  19.188   2.648   4.319  0.0679 -0.1602 -0.3314
  703loPI    C310907  19.555   2.557   4.187  0.2605  0.0541  0.0408
  703loPI   PO410908  19.376   2.891   4.737 -0.1889 -0.1979  0.2422
  703loPI   GL110909  19.240   2.786   5.178  0.0480 -0.0993  0.0161
  703loPI   GL210910  19.470   3.006   5.260 -0.0029 -0.0856  0.1127
  703loPI   C1A10911  18.926   2.765   5.396  0.1300 -0.0858  0.0809
  703loPI   C2A10912  18.659   2.864   5.885 -0.0933  0.1306 -0.0540
  703loPI   C3A10913  18.761   2.678   6.253 -0.1709  0.0029  0.0096
  703loPI   C4A10914  18.653   2.612   6.650 -0.1427  0.1964  0.4135
  703loPI   C5A10915  18.464   2.486   6.999  0.0777  0.1062  0.4023
  703loPI   C6A10916  18.149   2.490   7.277  0.2396 -0.0763 -0.3231
  703loPI   C1B10917  19.579   2.794   5.680 -0.0455 -0.0404 -0.1255
  703loPI   C2B10918  19.594   2.722   6.182 -0.1773 -0.2475 -0.0951
  703loPI   C3B10919  19.645   2.620   6.542  0.1457 -0.0178  0.2010
  703loPI   C4B10920  20.099   2.654   6.752 -0.1891  0.2948 -0.0522
  704loPI    C110921  13.983  11.318   4.047 -0.0886 -0.0560 -0.0771
  704loPI    C210922  13.733  11.023   3.943  0.1417 -0.3000  0.0490
  704loPI    C310923  14.035  11.125   3.700 -0.1407  0.0724 -0.1572
  704loPI   PO410924  14.066  11.265   4.330 -0.2095  0.1593  0.2571
  704loPI   GL110925  13.860  11.371   4.738 -0.0876 -0.0497  0.1728
  704loPI   GL210926  14.127  11.266   4.836  0.2691 -0.0103  0.0692
  704loPI   C1A10927  13.673  11.338   5.171  0.0338  0.2349  0.1168
  704loPI   C2A10928  13.782  11.292   5.585  0.0638  0.0636 -0.2641
  704loPI   C3A10929  13.767  11.109   6.008  0.0339  0.2529  0.2840
  704loPI   C4A10930  13.909  11.315   6.429 -0.0394  0.2797  0.1093
  704loPI   C5A10931  14.310  11.577   6.642  0.0129 -0.2672 -0.0906
  704loPI   C6A10932  14.721  11.644   6.853 -0.0052 -0.2970  0.1283
  704loPI   C1B10933  14.455  11.179   5.148  0.1260  0.1941  0.3188
  704loPI   C2B10934  14.614  11.245   5.462 -0.0623 -0.1400  0.1870
  704loPI   C3B10935  14.756  11.317   5.903  0.0473  0.1283 -0.0063
  704loPI   C4B10936  14.777  11.378   6.358 -0.5051 -0.1843  0.3239
  705loPI    C110937  12.861   2.724   4.618 -0.0771  0.1574  0.0850
  705loPI    C210938  13.067   2.386   4.555  0.0160  0.2145  0.0806
  705loPI    C310939  12.934   2.600   4.244 -0.1137  0.1393  0.0838
  705loPI   PO410940  12.687   2.564   4.843  0.1719  0.1904  0.3393
  705loPI   GL110941  12.608   2.658   5.142  0.2322 -0.1465 -0.1063
  705loPI   GL210942  12.279   2.575   5.357 -0.3610  0.1590 -0.0496
  705loPI   C1A10943  12.869   2.648   5.436 -0.2216  0.1252 -0.4965
  705loPI   C2A10944  13.013   2.631   6.004 -0.0256  0.1448 -0.0628
  705loPI   C3A10945  13.174   2.667   6.474  0.2757 -0.1074 -0.5240
  705loPI   C4A10946  13.279   2.956   6.812 -0.1266 -0.1603  0.1217
  705loPI   C5A10947  13.580   3.383   7.052  0.0219  0.0227 -0.0620
  705loPI   C6A10948  13.658   3.817   7.104  0.0629 -0.0816  0.0484
  705loPI   C1B10949  12.340   2.544   5.823 -0.1502 -0.1092 -0.0895
  705loPI   C2B10950  12.186   2.514   6.259  0.1191  0.0231 -0.0342
  705loPI   C3B10951  12.236   2.579   6.721 -0.1398  0.0514  0.0598
  705loPI   C4B10952  12.195   2.709   7.148  0.0248 -0.2588  0.1511
  706loPI    C110953   3.217   8.634   4.799 -0.2874  0.0289 -0.0389
  706loPI    C210954   2.980   8.444   5.060 -0.3814  0.0348 -0.1196
  706loPI    C310955   2.820   8.635   4.746 -0.2740  0.0911 -0.1405
  706loPI   PO410956   3.363   8.455   4.799  0.3038  0.1613 -0.0610
  706loPI   GL110957   3.509   8.227   5.057 -0.2065 -0.0481  0.1087
  706loPI   GL210958   3.701   8.209   5.356 -0.0893  0.1512 -0.0373
  706loPI   C1A10959   3.248   8.111   5.432  0.0234  0.0430 -0.2319
  706loPI   C2A10960   3.294   7.996   5.840  0.1772  0.0357 -0.1203
  706loPI   C3A10961   3.157   7.807   6.192  0.0849  0.0009  0.1450
  706loPI   C4A10962   3.195   7.987   6.568 -0.1162  0.2112  0.1909
  706loPI   C5A10963   3.196   7.993   6.965  0.1857  0.0665 -0.5456
  706loPI   C6A10964   3.078   7.741   7.260  0.1309 -0.1932 -0.0167
  706loPI   C1B10965   3.813   8.013   5.767 -0.0388 -0.0145 -0.0234
  706loPI   C2B10966   3.906   7.815   6.158  0.2229  0.0726 -0.2240
  706loPI   C3B10967   3.676   7.735   6.566 -0.0785 -0.0882 -0.2105
  706loPI   C4B10968   3.872   7.561   6.926  0.2313  0.0819  0.3434
  707loPI    C110969   7.131  12.530   4.577 -0.0427  0.1049  0.1035
  707loPI    C210970   6.971  12.472   4.215 -0.2591 -0.1301  0.2335
  707loPI    C310971   7.167  12.174   4.398  0.2967  0.1393  0.0975
  707loPI   PO410972   6.888  12.650   4.705  0.2099 -0.2724 -0.3450
  707loPI   GL110973   6.896  12.724   5.163 -0.2180 -0.1084 -0.2943
  707loPI   GL210974   6.941  12.547   5.501  0.2785  0.1438  0.2756
  707loPI   C1A10975   6.838  13.039   5.479 -0.0639 -0.2381 -0.1340
  707loPI   C2A10976   6.932  13.160   5.950  0.1194 -0.2456 -0.1069
  707loPI   C3A10977   7.145  13.417   6.303  0.0772  0.4015  0.1028
  707loPI   C4A10978   7.240  13.718   6.663  0.2776 -0.1561  0.1669
  707loPI   C5A10979   7.464  13.709   7.140 -0.2576  0.2714  0.0050
  707loPI   C6A10980   7.361  13.324   7.324 -0.3268  0.2212 -0.1291
  707loPI   C1B10981   7.224  12.807   5.599 -0.1168 -0.1791  0.2438
  707loPI   C2B10982   7.614  12.726   5.762  0.2353 -0.0420 -0.1683
  707loPI   C3B10983   7.666  12.609   6.127 -0.1713  0.2041  0.3478
  707loPI   C4B10984   7.807  12.281   6.322  0.2132  0.3043 -0.0264
  708loPI    C110985  14.027  12.858   4.065 -0.1548  0.2541  0.0513
  708loPI    C210986  13.856  13.206   3.970 -0.0580  0.2574 -0.1148
  708loPI    C310987  14.093  13.021   3.706 -0.3155 -0.0637 -0.1276
  708loPI   PO410988  13.850  12.787   4.230  0.0392 -0.1625 -0.1124
  708loPI   GL110989  13.840  12.790   4.684  0.1518  0.2317  0.1926
  708loPI   GL210990  13.767  12.635   4.915 -0.0167 -0.1179  0.1016
  708loPI   C1A10991  13.865  13.112   5.015 -0.0366  0.0836  0.1540
  708loPI   C2A10992  13.928  13.154   5.498 -0.2188  0.2416  0.3458
  708loPI   C3A10993  14.126  13.207   5.948 -0.1910 -0.4626  0.0061
  708loPI   C4A10994  14.093  13.216   6.502 -0.0272  0.2363 -0.0167
  708loPI   C5A10995  14.157  13.237   6.905 -0.0457  0.2642  0.0359
  708loPI   C6A10996  14.289  13.070   7.294 -0.0950  0.0624  0.2715
  708loPI   C1B10997  13.759  12.729   5.302  0.0336 -0.0091  0.1178
  708loPI   C2B10998  13.567  12.917   5.700  0.0067 -0.0879  0.1316
  708loPI   C3B10999  13.412  13.245   5.910 -0.1132 -0.2447 -0.1514
  708loPI   C4B11000  13.235  13.585   6.059 -0.0590 -0.3165 -0.0276
  709loPI    C111001   3.193  11.673   4.228  0.1333 -0.1489  0.1197
  709loPI    C211002   3.507  11.512   4.039 -0.0888 -0.2125 -0.2031
  709loPI    C311003   3.157  11.550   3.849 -0.2328  0.0108  0.0988
  709loPI   PO411004   3.293  11.580   4.625 -0.0341  0.4881 -0.0402
  709loPI   GL111005   3.295  11.706   5.041  0.0021 -0.2597  0.1298
  709loPI   GL211006   3.219  11.369   5.139  0.1128 -0.1972  0.1201
  709loPI   C1A11007   3.557  11.752   5.387 -0.2722 -0.2061 -0.0451
  709loPI   C2A11008   3.801  11.942   5.798 -0.2273  0.4098  0.0596
  709loPI   C3A11009   3.923  12.051   6.289  0.0650 -0.1507 -0.1012
  709loPI   C4A11010   4.111  12.244   6.616  0.3055  0.0213  0.1584
  709loPI   C5A11011   4.246  12.311   7.049  0.2547 -0.1990  0.4849
  709loPI   C6A11012   4.126  12.547   7.326  0.3064  0.0700  0.1113
  709loPI   C1B11013   3.040  11.570   5.461  0.0380  0.2226 -0.1475
  709loPI   C2B11014   3.087  11.909   5.871  0.2267 -0.2912 -0.0047
  709loPI   C3B11015   3.030  12.172   6.304 -0.0858 -0.1637 -0.2136
  709loPI   C4B11016   2.943  11.977   6.701  0.1007 -0.1587  0.2685
  710loPI    C111017  15.863  14.989   4.084 -0.1925  0.2365  0.0971
  710loPI    C211018  15.847  14.621   3.928  0.1240  0.1426  0.2757
  710loPI    C311019  15.869  14.939   3.687  0.0619  0.0329  0.1233
  710loPI   PO411020  15.663  14.961   4.222 -0.0989  0.0520 -0.3756
  710loPI   GL111021  15.606  14.948   4.683 -0.0455  0.1182  0.0906
  710loPI   GL211022  15.423  14.968   4.919  0.0795  0.2214  0.0209
  710loPI   C1A11023  15.956  15.111   4.942  0.2740 -0.1200  0.1264
  710loPI   C2A11024  16.184  15.103   5.344 -0.1055  0.1810 -0.0382
  710loPI   C3A11025  16.545  14.993   5.531 -0.0784  0.0647  0.2160
  710loPI   C4A11026  16.652  14.991   6.005 -0.0841 -0.0454 -0.1201
  710loPI   C5A11027  16.692  14.889   6.416 -0.1260 -0.1503 -0.2759
  710loPI   C6A11028  16.820  14.804   6.867  0.3322 -0.1687 -0.1201
  710loPI   C1B11029  15.244  14.983   5.394  0.1739 -0.2745  0.2595
  710loPI   C2B11030  15.250  14.838   5.816  0.2289  0.0268 -0.0200
  710loPI   C3B11031  15.373  14.770   6.149 -0.0210 -0.0631  0.0519
  710loPI   C4B11032  15.518  14.498   6.593 -0.0129 -0.0541 -0.0786
  711loPI    C111033  16.022  14.155   4.343  0.0487 -0.0183  0.1942
  711loPI    C211034  16.405  14.176   4.454  0.0947 -0.1535  0.0636
  711loPI    C311035  16.311  14.110   4.070 -0.0612  0.1322  0.0504
  711loPI   PO411036  15.892  13.997   4.524 -0.4021 -0.2208 -0.3073
  711loPI   GL111037  15.869  13.723   4.894 -0.0141 -0.0695 -0.0283
  711loPI   GL211038  15.536  13.826   4.885 -0.3041  0.1398  0.0043
  711loPI   C1A11039  15.969  13.649   5.325 -0.1799  0.0216 -0.0235
  711loPI   C2A11040  15.986  13.563   5.791  0.2158 -0.0912 -0.1845
  711loPI   C3A11041  16.111  13.545   6.313 -0.1554 -0.2078  0.0688
  711loPI   C4A11042  15.991  13.768   6.710  0.0863 -0.1305  0.1719
  711loPI   C5A11043  15.728  13.734   6.993  0.0480  0.1296  0.1960
  711loPI   C6A11044  15.586  13.685   7.426  0.0878 -0.1704  0.0373
  711loPI   C1B11045  15.621  14.080   5.248  0.0145 -0.1174 -0.2322
  711loPI   C2B11046  15.805  14.169   5.649  0.2266  0.0142  0.0723
  711loPI   C3B11047  15.730  14.198   6.166  0.0104  0.0631 -0.1311
  711loPI   C4B11048  15.945  14.290   6.531  0.2464 -0.2487  0.0321
  712loPI    C111049   7.718   0.923   4.955 -0.0201 -0.3990  0.0636
  712loPI    C211050   7.415   0.752   5.152 -0.3599 -0.2206 -0.2908
  712loPI    C311051   7.341   0.992   4.841  0.1361  0.0693 -0.1954
  712loPI   PO411052   8.039   0.939   5.164 -0.0137 -0.1019  0.0507
  712loPI   GL111053   8.167   0.852   5.618  0.1581 -0.0615 -0.1889
  712loPI   GL211054   8.540   0.700   5.656 -0.1119 -0.2619  0.2675
  712loPI   C1A11055   8.191   0.718   6.048  0.0721 -0.1870 -0.2521
  712loPI   C2A11056   8.436   0.634   6.350  0.2469 -0.0044  0.0688
  712loPI   C3A11057   8.511   0.715   6.773 -0.0673 -0.1454  0.0794
  712loPI   C4A11058   8.366   0.618   7.132 -0.3233 -0.1546  0.0392
  712loPI   C5A11059   7.994   0.582   7.292 -0.0794  0.1838 -0.2239
  712loPI   C6A11060   7.696   0.530   7.581 -0.2977  0.0875  0.0901
  712loPI   C1B11061   8.658   0.388   5.783 -0.1302 -0.1999 -0.2659
  712loPI   C2B11062   8.390   0.189   6.107  0.0013  0.1499  0.1802
  712loPI   C3B11063   8.298   0.165   6.496 -0.2679  0.0386 -0.2140
  712loPI   C4B11064   8.361   0.199   6.915  0.2018 -0.2986 -0.0528
  713loPI    C111065  18.714   6.682   4.781 -0.0557  0.1856  0.0919
  713loPI    C211066  18.904   7.012   4.656  0.0104  0.0702 -0.1161
  713loPI    C311067  18.718   6.776   4.392  0.0351 -0.1047  0.0208
  713loPI   PO411068  18.655   6.789   5.078 -0.3098 -0.1840 -0.4814
  713loPI   GL111069  18.863   6.893   5.404 -0.2723 -0.3692 -0.0547
  713loPI   GL211070  19.055   6.745   5.649 -0.1197  0.1770 -0.0266
  713loPI   C1A11071  18.507   7.112   5.626  0.0692  0.0427  0.1830
  713loPI   C2A11072  18.084   7.051   5.875  0.2539  0.0507 -0.0018
  713loPI   C3A11073  17.927   7.028   6.314  0.0806  0.0237 -0.0656
  713loPI   C4A11074  17.971   7.106   6.709  0.1292  0.3351 -0.3234
  713loPI   C5A11075  18.397   7.108   6.900  0.1445  0.1810 -0.1547
  713loPI   C6A11076  18.376   7.521   6.997  0.0408 -0.0441  0.0717
  713loPI   C1B11077  19.043   6.799   6.003 -0.0832  0.2888  0.1513
  713loPI   C2B11078  19.096   7.111   6.395  0.0349  0.0235 -0.0690
  713loPI   C3B11079  18.748   7.371   6.587 -0.0125  0.5053 -0.2260
  713loPI   C4B11080  18.291   7.506   6.508 -0.0442  0.1765 -0.1431
  714loPI    C111081  10.349  14.483   4.423  0.2591  0.1473  0.1567
  714loPI    C211082  10.183  14.226   4.165 -0.0113  0.2310  0.2430
  714loPI    C311083  10.395  14.537   4.029 -0.1852  0.2965  0.1191
  714loPI   PO411084  10.473  14.400   4.581 -0.1756  0.0934 -0.0695
  714loPI   GL111085  10.514  14.178   4.949 -0.0396  0.1714  0.0521
  714loPI   GL211086  10.329  13.930   4.999 -0.4184 -0.1547  0.1861
  714loPI   C1A11087  10.681  14.334   5.357 -0.0733 -0.1196 -0.0363
  714loPI   C2A11088  10.653  14.512   5.754  0.1643 -0.0307  0.2215
  714loPI   C3A11089  10.819  14.952   6.017 -0.2336 -0.0897  0.1166
  714loPI   C4A11090  11.146  15.075   6.118  0.1965 -0.1359 -0.0253
  714loPI   C5A11091  11.472  15.426   6.237 -0.1196 -0.0890 -0.2441
  714loPI   C6A11092  11.691  15.475   6.677 -0.0009  0.2317  0.0109
  714loPI   C1B11093  10.037  13.827   5.358  0.0368 -0.3810  0.1059
  714loPI   C2B11094   9.886  13.858   5.738 -0.4505 -0.2294  0.0357
  714loPI   C3B11095   9.934  13.762   6.163  0.1057  0.0167  0.2252
  714loPI   C4B11096   9.882  13.855   6.607  0.1942  0.2877 -0.0755
  715loPI    C111097   3.951  14.943   4.541 -0.0267 -0.2211 -0.1314
  715loPI    C211098   4.155  14.630   4.396 -0.0977 -0.2902 -0.0830
  715loPI    C311099   3.919  14.845   4.155  0.2755 -0.0150 -0.2123
  715loPI   PO411100   4.056  15.011   4.794 -0.0157  0.0332  0.0591
  715loPI   GL111101   3.950  14.915   5.224  0.0491  0.5611 -0.0667
  715loPI   GL211102   3.707  14.650   5.022  0.1797  0.2719 -0.1912
  715loPI   C1A11103   3.969  14.978   5.619 -0.2223  0.4503  0.2158
  715loPI   C2A11104   4.115  15.044   5.966  0.2126  0.2691  0.0768
  715loPI   C3A11105   4.456  15.060   6.138 -0.5459 -0.4178 -0.1235
  715loPI   C4A11106   4.611  14.918   6.427  0.0484  0.0631 -0.4950
  715loPI   C5A11107   4.545  14.583   6.662  0.5001  0.1533 -0.1899
  715loPI   C6A11108   4.723  14.088   6.662  0.0560 -0.2584  0.1450
  715loPI   C1B11109   3.623  14.582   5.426 -0.1871  0.2721  0.1439
  715loPI   C2B11110   3.677  14.670   5.886 -0.3620  0.0996  0.0866
  715loPI   C3B11111   3.688  14.867   6.204  0.0756  0.1574 -0.1685
  715loPI   C4B11112   3.618  15.070   6.563 -0.0053  0.2780  0.1689
  716loPI    C111113   8.886  19.167   4.672  0.1474 -0.0781  0.1877
  716loPI    C211114   9.194  19.343   4.857  0.1787 -0.1256  0.1808
  716loPI    C311115   9.082  19.466   4.493  0.0187  0.0726  0.2952
  716loPI   PO411116   8.686  19.110   4.913 -0.0290 -0.0062  0.1875
  716loPI   GL111117   8.655  18.974   5.360 -0.0331 -0.0034 -0.0011
  716loPI   GL211118   8.269  19.078   5.441  0.0552  0.2913 -0.2324
  716loPI   C1A11119   8.700  18.655   5.648 -0.2465  0.0864  0.1097
  716loPI   C2A11120   8.959  18.486   6.024 -0.2573  0.1178 -0.2959
  716loPI   C3A11121   9.045  18.373   6.450 -0.0651  0.0990  0.0854
  716loPI   C4A11122   9.278  18.207   6.828  0.0482  0.0294 -0.1399
  716loPI   C5A11123   9.656  18.032   6.697 -0.0808  0.1635  0.2363
  716loPI   C6A11124  10.005  17.967   6.773 -0.1282  0.0847 -0.0445
  716loPI   C1B11125   8.218  18.830   5.760  0.4209  0.0040  0.0003
  716loPI   C2B11126   8.465  18.775   6.134  0.3358  0.2941 -0.0099
  716loPI   C3B11127   8.747  18.789   6.420 -0.1718 -0.0760  0.1995
  716loPI   C4B11128   8.840  18.969   6.790  0.2188  0.0232  0.0515
  717loPI    C111129  17.190  11.994   4.051  0.1286  0.0135  0.1957
  717loPI    C211130  17.075  11.974   3.669 -0.0284 -0.1329  0.2491
  717loPI    C311131  17.443  12.103   3.761 -0.0452  0.0571  0.0591
  717loPI   PO411132  16.919  12.057   4.157 -0.2879 -0.3504  0.4647
  717loPI   GL111133  16.702  12.288   4.553  0.2613 -0.1905  0.1786
  717loPI   GL211134  16.564  12.082   4.502 -0.1475 -0.0298  0.0718
  717loPI   C1A11135  16.515  12.392   5.022  0.0794  0.2912  0.3089
  717loPI   C2A11136  16.391  12.312   5.468 -0.0791 -0.0284  0.1439
  717loPI   C3A11137  16.407  12.574   5.809 -0.2382 -0.1516 -0.0588
  717loPI   C4A11138  16.372  12.620   6.218  0.0807  0.0301 -0.3835
  717loPI   C5A11139  16.249  12.578   6.667  0.0628 -0.0775  0.1759
  717loPI   C6A11140  16.274  12.403   7.104 -0.0206 -0.0866  0.0676
  717loPI   C1B11141  16.341  11.950   4.889 -0.1111  0.0235 -0.3161
  717loPI   C2B11142  16.442  11.894   5.247  0.0595  0.0043 -0.0218
  717loPI   C3B11143  16.541  11.813   5.589 -0.2244  0.0246 -0.3704
  717loPI   C4B11144  16.396  11.697   6.019  0.0800  0.1764  0.0740
  718loPI    C111145  17.380   5.398   4.980  0.0991  0.0689  0.1035
  718loPI    C211146  17.681   5.136   4.958  0.1616  0.1435  0.0676
  718loPI    C311147  17.671   5.451   4.711 -0.1270 -0.0456 -0.1690
  718loPI   PO411148  17.370   5.478   5.179 -0.3145  0.1395 -0.1830
  718loPI   GL111149  17.473   5.356   5.541  0.0983  0.0447 -0.1060
  718loPI   GL211150  17.607   5.094   5.435  0.2696  0.1330 -0.0919
  718loPI   C1A11151  17.324   5.312   5.906  0.0871  0.0287 -0.1277
  718loPI   C2A11152  17.094   5.131   6.372 -0.3271 -0.1449 -0.2236
  718loPI   C3A11153  17.380   5.224   6.690  0.0015  0.2386 -0.3557
  718loPI   C4A11154  17.402   5.001   7.094  0.2027 -0.1507  0.1686
  718loPI   C5A11155  17.674   4.828   7.464  0.1206 -0.0350  0.1418
  718loPI   C6A11156  17.934   4.651   7.775 -0.0194  0.1713  0.1459
  718loPI   C1B11157  17.800   5.091   5.872 -0.0400 -0.1492  0.2223
  718loPI   C2B11158  17.595   5.001   6.219 -0.0047 -0.0562  0.1684
  718loPI   C3B11159  17.598   4.759   6.700  0.1678 -0.4289  0.1530
  718loPI   C4B11160  17.647   4.489   7.074 -0.2069  0.0103 -0.1910
  719loPI    C111161  16.523  17.705   4.300  0.1436  0.0903  0.1187
  719loPI    C211162  16.808  17.523   4.088 -0.0746  0.0213 -0.1202
  719loPI    C311163  16.603  17.826   3.928  0.0158  0.2186  0.1323
  719loPI   PO411164  16.560  17.585   4.515  0.0820 -0.0613 -0.1789
  719loPI   GL111165  16.710  17.514   4.903 -0.5990  0.2151 -0.4529
  719loPI   GL211166  17.067  17.542   5.129  0.2505  0.0410 -0.2709
  719loPI   C1A11167  16.571  17.484   5.378 -0.2397 -0.0423  0.0197
  719loPI   C2A11168  16.670  17.188   5.744  0.0036  0.0635  0.1145
  719loPI   C3A11169  16.524  16.885   6.058 -0.0733  0.0819  0.1881
  719loPI   C4A11170  16.449  16.867   6.429 -0.4164  0.0758  0.1952
  719loPI   C5A11171  16.619  16.872   6.829  0.1910 -0.0562  0.0561
  719loPI   C6A11172  16.803  16.665   7.138  0.0124 -0.2710  0.0409
  719loPI   C1B11173  17.094  17.671   5.536 -0.1169  0.1760 -0.1350
  719loPI   C2B11174  17.023  17.710   5.882  0.1090 -0.2848  0.4715
  719loPI   C3B11175  16.730  17.974   6.120 -0.3755  0.2361  0.1535
  719loPI   C4B11176  16.391  17.762   6.461  0.1738 -0.0183 -0.0012
  720loPI    C111177  10.118  19.422   4.573  0.0265 -0.0535  0.0006
  720loPI    C211178  10.361  19.234   4.316  0.0212 -0.0454 -0.0103
  720loPI    C311179  10.460  19.595   4.457  0.0201 -0.0462 -0.0073
  720loPI   PO411180  10.079  19.239   4.800 -0.1527 -0.2980  0.1285
  720loPI   GL111181  10.177  19.385   5.179  0.0982  0.1196 -0.0457
  720loPI   GL211182  10.077  19.306   5.424 -0.0765  0.0097 -0.1448
  720loPI   C1A11183  10.445  19.582   5.586 -0.0111 -0.0997  0.0446
  720loPI   C2A11184  10.548  19.594   5.980 -0.1345 -0.2535  0.1682
  720loPI   C3A11185  10.456  19.713   6.403  0.0179 -0.1285 -0.0192
  720loPI   C4A11186  10.654  19.909   6.801 -0.0522 -0.3108 -0.0352
  720loPI   C5A11187  10.668  19.843   7.120 -0.1764  0.1848 -0.2032
  720loPI   C6A11188  10.784  19.947   7.480 -0.0551  0.0679 -0.0555
  720loPI   C1B11189  10.050  19.228   5.870 -0.2071 -0.0130  0.2255
  720loPI   C2B11190  10.189  19.251   6.328  0.1904 -0.2566  0.3231
  720loPI   C3B11191  10.285  19.446   6.755  0.1800  0.0035 -0.0118
  720loPI   C4B11192  10.148  19.642   7.185 -0.4021 -0.0885  0.1293
  721loPI    C111193  16.467   4.844   4.624 -0.0370 -0.1644 -0.1158
  721loPI    C211194  16.669   4.647   4.340  0.0104 -0.1434 -0.0968
  721loPI    C311195  16.405   4.929   4.238 -0.0668 -0.2252 -0.1246
  721loPI   PO411196  16.382   4.638   4.847 -0.3468  0.3608 -0.2283
  721loPI   GL111197  16.511   4.558   5.296 -0.0525 -0.2585  0.2815
  721loPI   GL211198  16.890   4.521   5.305 -0.1085  0.2994 -0.0369
  721loPI   C1A11199  16.449   4.476   5.616  0.3238  0.1846 -0.0873
  721loPI   C2A11200  16.182   4.489   5.973 -0.3806  0.0503  0.1808
  721loPI   C3A11201  16.268   4.686   6.341 -0.3852  0.0205  0.0236
  721loPI   C4A11202  16.248   4.715   6.696  0.1096  0.1238 -0.1919
  721loPI   C5A11203  15.917   4.717   6.999  0.1774 -0.2030  0.0078
  721loPI   C6A11204  15.702   4.340   7.244 -0.1306  0.2297  0.0308
  721loPI   C1B11205  16.977   4.312   5.643  0.0204  0.0896  0.0248
  721loPI   C2B11206  16.817   4.350   5.945 -0.1607  0.0494  0.2791
  721loPI   C3B11207  16.777   4.250   6.323  0.1467 -0.2047  0.0640
  721loPI   C4B11208  16.550   4.285   6.588 -0.1474 -0.0520  0.2514
  722loPI    C111209   1.866   1.635   4.628 -0.0048 -0.2255  0.1950
  722loPI    C211210   2.187   1.597   4.392 -0.0933 -0.0938  0.0516
  722loPI    C311211   2.026   1.958   4.455 -0.2024 -0.1568  0.1381
  722loPI   PO411212   1.899   1.356   4.782  0.4065  0.1392  0.2190
  722loPI   GL111213   1.933   1.020   5.136 -0.2755  0.2434  0.0100
  722loPI   GL211214   2.252   1.202   5.185  0.2747  0.1793 -0.3111
  722loPI   C1A11215   1.744   1.296   5.430 -0.1765 -0.0778  0.3177
  722loPI   C2A11216   1.744   1.202   5.866  0.0853 -0.3172  0.2049
  722loPI   C3A11217   1.775   0.929   6.298 -0.0225  0.1019 -0.2077
  722loPI   C4A11218   1.929   0.717   6.688 -0.0306 -0.2345 -0.0020
  722loPI   C5A11219   1.871   0.824   7.150 -0.0226  0.1998  0.1184
  722loPI   C6A11220   1.821   0.896   7.629  0.0725  0.1463 -0.2136
  722loPI   C1B11221   2.320   1.212   5.534  0.3089 -0.2944  0.0152
  722loPI   C2B11222   2.183   1.408   5.903 -0.0904 -0.0210 -0.0289
  722loPI   C3B11223   2.030   1.402   6.317  0.0818  0.0383 -0.4499
  722loPI   C4B11224   2.090   1.284   6.797 -0.0581  0.2780  0.1282
  723loPI    C111225   4.950  11.141   4.868  0.0150  0.0328 -0.1651
  723loPI    C211226   4.870  11.009   4.499  0.1140  0.1870 -0.2428
  723loPI    C311227   4.582  11.180   4.717  0.0193 -0.0328 -0.1930
  723loPI   PO411228   5.122  11.013   4.944 -0.0487 -0.0434  0.0616
  723loPI   GL111229   5.327  10.922   5.411 -0.3339  0.0069  0.0239
  723loPI   GL211230   5.172  11.264   5.386  0.1101  0.2621  0.0660
  723loPI   C1A11231   5.235  11.048   5.817 -0.1669  0.1304  0.0198
  723loPI   C2A11232   5.074  11.008   6.229 -0.2881  0.1939  0.0731
  723loPI   C3A11233   4.886  10.633   6.496 -0.1077 -0.1485  0.1183
  723loPI   C4A11234   4.637  10.599   6.805  0.2171  0.1754  0.0903
  723loPI   C5A11235   4.280  10.860   6.907 -0.0464  0.0970 -0.0440
  723loPI   C6A11236   3.943  11.065   6.997  0.2757  0.2677  0.2405
  723loPI   C1B11237   4.838  11.314   5.754 -0.2018  0.0618  0.1830
  723loPI   C2B11238   4.764  11.361   6.264 -0.2680  0.1891 -0.1594
  723loPI   C3B11239   4.703  11.160   6.784  0.3134 -0.0081  0.2736
  723loPI   C4B11240   4.530  11.164   7.181 -0.1579  0.0550 -0.5551
  724loPI    C111241   0.989   7.987   4.616  0.4399  0.2121  0.2146
  724loPI    C211242   0.733   8.143   4.352  0.0423 -0.0435  0.4384
  724loPI    C311243   1.106   8.053   4.240 -0.0751 -0.0131  0.0058
  724loPI   PO411244   0.808   7.773   4.741  0.2972  0.1372 -0.0129
  724loPI   GL111245   0.897   7.470   5.084  0.1417  0.1144 -0.0885
  724loPI   GL211246   0.635   7.604   5.211  0.0808  0.0002  0.2301
  724loPI   C1A11247   1.030   7.389   5.532 -0.0204 -0.1456 -0.2342
  724loPI   C2A11248   1.155   7.239   5.869  0.3901  0.0556 -0.1178
  724loPI   C3A11249   0.954   7.179   6.220 -0.1483 -0.2229  0.0681
  724loPI   C4A11250   1.032   7.336   6.653  0.0437  0.2247 -0.0461
  724loPI   C5A11251   1.032   7.649   6.849  0.1588 -0.2487  0.1072
  724loPI   C6A11252   0.712   7.945   6.910  0.3671 -0.3081  0.2893
  724loPI   C1B11253   0.370   7.449   5.379 -0.0590  0.0890 -0.0487
  724loPI   C2B11254   0.158   7.289   5.750  0.0307 -0.0300  0.4745
  724loPI   C3B11255   0.258   7.426   6.217 -0.2974  0.0575 -0.2209
  724loPI   C4B11256   0.713   7.674   6.404 -0.0710  0.2031 -0.2255
  725loPI    C111257  16.412  12.892   4.288 -0.0211 -0.0806  0.0204
  725loPI    C211258  16.645  12.953   3.968  0.0789 -0.0610  0.0964
  725loPI    C311259  16.396  13.240   4.092 -0.0633 -0.1204 -0.0475
  725loPI   PO411260  16.556  12.808   4.504 -0.2185  0.0515  0.3189
  725loPI   GL111261  16.424  12.886   4.948 -0.0065  0.0383 -0.0495
  725loPI   GL211262  16.546  13.147   4.920 -0.0924  0.1138 -0.2585
  725loPI   C1A11263  16.369  12.827   5.354 -0.3203  0.1570 -0.1632
  725loPI   C2A11264  16.632  13.027   5.675  0.0245  0.1093 -0.0122
  725loPI   C3A11265  16.574  13.101   6.120  0.0072  0.1367 -0.0073
  725loPI   C4A11266  16.420  13.152   6.564 -0.3844  0.0419  0.1108
  725loPI   C5A11267  16.369  13.335   6.902 -0.2013 -0.1520  0.0530
  725loPI   C6A11268  16.130  13.468   7.239  0.3387  0.0543 -0.4049
  725loPI   C1B11269  16.813  13.270   5.213  0.1282  0.0558 -0.1607
  725loPI   C2B11270  17.013  13.301   5.590 -0.3340  0.0595  0.1092
  725loPI   C3B11271  17.083  13.306   6.008 -0.0063  0.0267  0.0321
  725loPI   C4B11272  17.169  13.118   6.358  0.1928  0.3603 -0.1687
  726loPI    C111273   6.676   5.886   4.481  0.5977  0.3049  0.0526
  726loPI    C211274   6.837   5.562   4.310 -0.1502  0.0408 -0.1872
  726loPI    C311275   6.869   5.919   4.133  0.4894  0.0713 -0.0317
  726loPI   PO411276   6.711   5.935   4.675 -0.4979  0.1887  0.0261
  726loPI   GL111277   6.767   5.966   5.163  0.1415  0.0897  0.1717
  726loPI   GL211278   7.059   5.723   5.148 -0.1672  0.0754  0.2041
  726loPI   C1A11279   6.598   6.007   5.488 -0.2315  0.3079 -0.0924
  726loPI   C2A11280   6.298   5.814   5.724  0.0576  0.0250  0.1109
  726loPI   C3A11281   6.369   5.621   6.160 -0.0060  0.3609 -0.2103
  726loPI   C4A11282   6.561   5.636   6.577 -0.0317  0.0884 -0.3077
  726loPI   C5A11283   6.838   5.437   6.855  0.3066 -0.1011 -0.2989
  726loPI   C6A11284   6.859   5.212   7.292  0.1795  0.0401 -0.1517
  726loPI   C1B11285   6.860   5.600   5.539  0.6611  0.3674 -0.0040
  726loPI   C2B11286   6.750   5.455   5.835 -0.0230 -0.1699  0.3010
  726loPI   C3B11287   6.804   5.328   6.204  0.1581  0.1819 -0.2993
  726loPI   C4B11288   6.827   5.114   6.532 -0.0659 -0.0444  0.0555
  727loPI    C111289  19.057  17.085   4.395 -0.0313  0.0314  0.2192
  727loPI    C211290  18.991  17.380   4.132 -0.2276 -0.2802 -0.0899
  727loPI    C311291  19.277  17.109   4.061 -0.0335 -0.1574  0.2032
  727loPI   PO411292  19.032  17.175   4.604 -0.4755  0.0496 -0.3575
  727loPI   GL111293  18.917  17.108   5.006 -0.4352 -0.2112  0.0735
  727loPI   GL211294  18.572  16.982   5.062 -0.2146 -0.0273  0.0870
  727loPI   C1A11295  19.055  16.840   5.379 -0.2331 -0.2048  0.2892
  727loPI   C2A11296  19.475  16.743   5.468  0.0631 -0.0356 -0.1623
  727loPI   C3A11297  19.607  16.569   5.815  0.0620  0.1259 -0.4276
  727loPI   C4A11298  20.014  16.486   6.076 -0.1191 -0.1002  0.2614
  727loPI   C5A11299  20.125  16.093   6.330 -0.5510  0.0710 -0.0038
  727loPI   C6A11300  20.534  15.932   6.271 -0.1779  0.0529 -0.0700
  727loPI   C1B11301  18.502  16.888   5.389 -0.1450  0.0393  0.0441
  727loPI   C2B11302  18.680  16.825   5.748 -0.0530 -0.0279 -0.0471
  727loPI   C3B11303  18.832  16.799   6.196 -0.0474  0.0083 -0.1747
  727loPI   C4B11304  19.062  16.627   6.440 -0.2476 -0.1055  0.2487
  728loPI    C111305  13.350  12.156   4.369 -0.0578 -0.0836 -0.1895
  728loPI    C211306  13.714  12.315   4.410  0.0215 -0.2818 -0.1133
  728loPI    C311307  13.494  12.402   4.089 -0.0209  0.1419  0.0248
  728loPI   PO411308  13.386  11.917   4.516 -0.1254 -0.1616 -0.0435
  728loPI   GL111309  13.483  11.671   4.768 -0.1507  0.4241 -0.1910
  728loPI   GL211310  13.339  11.400   4.791  0.1810  0.3399 -0.2252
  728loPI   C1A11311  13.379  11.801   5.268  0.1321  0.1825 -0.2097
  728loPI   C2A11312  13.348  11.869   5.700 -0.2356 -0.1864  0.1326
  728loPI   C3A11313  13.394  12.116   6.119 -0.1305  0.0505  0.0798
  728loPI   C4A11314  13.275  12.170   6.525  0.1700 -0.3320  0.1339
  728loPI   C5A11315  13.027  12.304   6.804 -0.1106 -0.2237  0.1945
  728loPI   C6A11316  12.797  12.302   7.176  0.5606 -0.1465 -0.1971
  728loPI   C1B11317  13.217  11.297   5.136 -0.0199 -0.2841 -0.0135
  728loPI   C2B11318  13.014  10.964   5.156  0.3555  0.1327 -0.0558
  728loPI   C3B11319  12.917  10.953   5.631 -0.1726  0.1421  0.0170
  728loPI   C4B11320  13.366  10.794   5.823  0.1840  0.0129  0.0988
  729loPI    C111321   8.180  17.496   4.500 -0.1845  0.0294  0.1160
  729loPI    C211322   8.406  17.783   4.662 -0.1661  0.1782 -0.1660
  729loPI    C311323   8.543  17.573   4.351 -0.0872 -0.2951  0.1774
  729loPI   PO411324   8.039  17.448   4.784 -0.2664 -0.1807 -0.0891
  729loPI   GL111325   8.121  17.531   5.270  0.0640 -0.1279 -0.2179
  729loPI   GL211326   8.316  17.738   5.145  0.1394 -0.0970 -0.1680
  729loPI   C1A11327   7.939  17.409   5.533  0.1980  0.0513 -0.0850
  729loPI   C2A11328   7.980  17.487   5.916 -0.0915  0.0379 -0.4961
  729loPI   C3A11329   7.981  17.445   6.356  0.2222  0.0818  0.0347
  729loPI   C4A11330   7.980  17.418   6.807 -0.3983 -0.1411 -0.0354
  729loPI   C5A11331   8.419  17.443   7.088 -0.0091  0.2483  0.0617
  729loPI   C6A11332   8.833  17.488   7.252 -0.1982 -0.0416  0.0704
  729loPI   C1B11333   8.288  17.855   5.602 -0.0385  0.2975 -0.1384
  729loPI   C2B11334   8.276  17.909   6.029  0.4497  0.0718 -0.2969
  729loPI   C3B11335   8.231  17.901   6.376 -0.3047 -0.2484  0.2192
  729loPI   C4B11336   8.341  17.903   6.820 -0.1009  0.3084 -0.2327
  730loPI    C111337   5.136  12.378   4.686  0.0687 -0.1032  0.1774
  730loPI    C211338   4.929  12.113   4.470  0.1041  0.0259 -0.0173
  730loPI    C311339   5.166  12.378   4.287  0.5239 -0.1852  0.2057
  730loPI   PO411340   5.016  12.507   4.896 -0.1618  0.2209 -0.1473
  730loPI   GL111341   4.923  12.563   5.377 -0.0167 -0.2084  0.0105
  730loPI   GL211342   4.795  12.293   5.393  0.1876 -0.4017  0.2561
  730loPI   C1A11343   4.921  12.736   5.718  0.1110  0.1928  0.0420
  730loPI   C2A11344   4.800  12.814   6.172  0.2490  0.3104 -0.0355
  730loPI   C3A11345   4.832  12.770   6.606 -0.0884  0.2541 -0.0098
  730loPI   C4A11346   4.928  12.647   6.986  0.1592  0.3130  0.3456
  730loPI   C5A11347   5.000  12.847   7.401  0.0179 -0.0516  0.0029
  730loPI   C6A11348   4.836  13.041   7.747  0.3483 -0.2066  0.0137
  730loPI   C1B11349   4.781  12.317   5.910  0.1866 -0.2642  0.2157
  730loPI   C2B11350   4.987  12.345   6.280 -0.1599  0.1207 -0.0396
  730loPI   C3B11351   5.214  12.371   6.666  0.2373  0.1741 -0.3320
  730loPI   C4B11352   5.653  12.243   6.834  0.0739  0.1241 -0.1308
  731loPI    C111353  17.392  18.279   4.468  0.2811  0.2654  0.3107
  731loPI    C211354  17.686  18.530   4.369  0.3862 -0.0224 -0.1341
  731loPI    C311355  17.438  18.392   4.088 -0.1348  0.1566  0.2230
  731loPI   PO411356  17.530  18.097   4.627 -0.0664 -0.1320  0.0207
  731loPI   GL111357  17.785  18.189   4.889 -0.1162  0.0864 -0.0808
  731loPI   GL211358  17.611  18.434   5.050 -0.2927  0.1225 -0.1390
  731loPI   C1A11359  17.904  18.247   5.392  0.0427 -0.2035 -0.0612
  731loPI   C2A11360  17.777  18.160   5.840  0.3092 -0.2459  0.0080
  731loPI   C3A11361  17.465  18.002   5.936  0.0206  0.0510  0.0863
  731loPI   C4A11362  17.292  18.054   6.296 -0.1703 -0.0312  0.4371
  731loPI   C5A11363  17.352  17.759   6.577 -0.1444 -0.0399 -0.2257
  731loPI   C6A11364  17.380  17.633   6.943 -0.1811  0.0159 -0.0488
  731loPI   C1B11365  17.755  18.679   5.546  0.1651 -0.3729  0.0499
  731loPI   C2B11366  17.903  18.665   5.929  0.2151 -0.0834 -0.0215
  731loPI   C3B11367  17.661  18.417   6.254 -0.0676  0.1549 -0.2183
  731loPI   C4B11368  17.539  18.480   6.703  0.0718 -0.3081  0.0176
  732loPI    C111369  12.611   3.164   4.597  0.0435  0.0294 -0.0422
  732loPI    C211370  12.472   3.361   4.278  0.2039  0.0044 -0.1287
  732loPI    C311371  12.627   2.995   4.235  0.4712  0.1083 -0.0646
  732loPI   PO411372  12.426   3.359   4.810 -0.0396 -0.0205  0.0001
  732loPI   GL111373  12.287   3.263   5.164 -0.1236 -0.0305 -0.2134
  732loPI   GL211374  11.981   3.295   5.376 -0.1019  0.1111 -0.0713
  732loPI   C1A11375  12.648   3.129   5.403 -0.2869  0.1563 -0.1004
  732loPI   C2A11376  12.632   2.973   5.786 -0.0587 -0.0134  0.0865
  732loPI   C3A11377  12.579   2.915   6.145  0.2057 -0.2144 -0.2691
  732loPI   C4A11378  12.639   2.664   6.447 -0.3160 -0.0997 -0.4352
  732loPI   C5A11379  12.694   2.619   6.918  0.0248  0.1248 -0.0599
  732loPI   C6A11380  12.566   2.411   7.333 -0.2004 -0.1130 -0.0431
  732loPI   C1B11381  12.134   3.018   5.696 -0.1695  0.2518  0.3232
  732loPI   C2B11382  12.055   2.965   6.174 -0.0840 -0.1415  0.0333
  732loPI   C3B11383  11.738   2.742   6.584 -0.1916 -0.0275 -0.3071
  732loPI   C4B11384  11.431   2.389   6.710 -0.1774 -0.3210 -0.2352
  733loPI    C111385  16.615   7.681   4.577 -0.1378  0.0821  0.0422
  733loPI    C211386  16.937   7.515   4.407 -0.1040  0.0556  0.1313
  733loPI    C311387  16.589   7.524   4.210 -0.1378 -0.2334  0.1738
  733loPI   PO411388  16.655   7.872   4.641 -0.1745  0.1539 -0.0340
  733loPI   GL111389  16.734   8.079   5.144 -0.0192  0.2934  0.0870
  733loPI   GL211390  16.521   7.852   5.167  0.0765  0.0218 -0.1782
  733loPI   C1A11391  16.732   8.217   5.549 -0.0440 -0.3451  0.1738
  733loPI   C2A11392  16.504   8.274   5.906  0.0316  0.2724  0.1635
  733loPI   C3A11393  16.539   8.268   6.321 -0.0320  0.0256 -0.2695
  733loPI   C4A11394  16.600   7.975   6.789  0.1140  0.0632  0.1519
  733loPI   C5A11395  16.366   7.923   7.115 -0.0102  0.2540  0.1448
  733loPI   C6A11396  16.178   7.540   7.327 -0.1918  0.0871 -0.0431
  733loPI   C1B11397  16.455   7.802   5.490  0.2643  0.1662 -0.3642
  733loPI   C2B11398  16.508   7.765   5.895  0.0724 -0.0204 -0.1597
  733loPI   C3B11399  16.959   7.997   5.971  0.3451  0.2429  0.2314
  733loPI   C4B11400  17.026   8.337   6.053 -0.4139 -0.1402 -0.1895
  734loPI    C111401  14.791  18.809   4.870  0.0402  0.0209 -0.0444
  734loPI    C211402  15.021  18.872   4.549  0.0811  0.0911 -0.0017
  734loPI    C311403  14.649  18.733   4.504  0.0046  0.3221 -0.0959
  734loPI   PO411404  14.962  18.690   5.022 -0.0707  0.0479  0.0068
  734loPI   GL111405  14.928  18.683   5.369 -0.0220  0.1721  0.3194
  734loPI   GL211406  15.024  18.376   5.510  0.0220 -0.2598  0.0007
  734loPI   C1A11407  15.192  18.858   5.684 -0.2270 -0.2574  0.1912
  734loPI   C2A11408  15.399  18.797   6.133  0.2209  0.1244 -0.1331
  734loPI   C3A11409  15.455  18.770   6.519  0.1104  0.1120  0.1248
  734loPI   C4A11410  15.552  18.477   6.866  0.1361 -0.0833  0.1697
  734loPI   C5A11411  15.821  18.659   7.185  0.3711  0.1819  0.1252
  734loPI   C6A11412  16.052  19.033   7.257 -0.0754  0.0217  0.2537
  734loPI   C1B11413  14.978  17.981   5.640 -0.0266 -0.0631 -0.2095
  734loPI   C2B11414  14.788  17.594   5.344  0.0382 -0.1763 -0.3796
  734loPI   C3B11415  14.431  17.280   5.422 -0.0232  0.1250 -0.0420
  734loPI   C4B11416  14.089  16.955   5.465  0.1494 -0.2603  0.0332
  735loPI    C111417  13.354  19.450   4.726 -0.0077 -0.0164  0.0400
  735loPI    C211418  13.746  19.517   4.681  0.0367 -0.2812  0.0168
  735loPI    C311419  13.560  19.252   4.446 -0.1249 -0.2692  0.1294
  735loPI   PO411420  13.286  19.428   5.020  0.0144 -0.0138  0.1762
  735loPI   GL111421  13.091  19.479   5.316  0.0048  0.1425  0.0290
  735loPI   GL211422  12.860  19.540   5.395  0.2003  0.0114 -0.1688
  735loPI   C1A11423  13.150  19.801   5.770  0.3991  0.1532 -0.0512
  735loPI   C2A11424  13.329  19.757   6.139 -0.1278  0.0257 -0.0872
  735loPI   C3A11425  13.214  19.768   6.549  0.0058 -0.0004 -0.2810
  735loPI   C4A11426  12.967  19.870   6.921  0.2972  0.0143 -0.0713
  735loPI   C5A11427  12.625  20.091   7.152 -0.2003  0.0405  0.3731
  735loPI   C6A11428  12.244  20.042   7.214 -0.0525  0.4734  0.1295
  735loPI   C1B11429  12.739  19.455   5.815 -0.1645  0.4620  0.1454
  735loPI   C2B11430  12.291  19.594   6.104 -0.1230  0.2274 -0.0660
  735loPI   C3B11431  11.907  19.692   6.110  0.0021  0.0028  0.1065
  735loPI   C4B11432  11.476  19.772   5.887 -0.2288  0.2317  0.1845
  736loPI    C111433  12.001  16.977   4.533 -0.1760  0.0916  0.0471
  736loPI    C211434  11.636  16.827   4.600 -0.0799 -0.0960  0.1586
  736loPI    C311435  11.750  16.916   4.227 -0.3003  0.1253  0.1414
  736loPI   PO411436  11.995  17.149   4.681  0.0015 -0.2117  0.3788
  736loPI   GL111437  11.837  16.889   5.109 -0.1569 -0.1665  0.0564
  736loPI   GL211438  12.159  16.912   5.183 -0.4379  0.2474  0.1026
  736loPI   C1A11439  11.682  17.181   5.315  0.1006  0.4320  0.0541
  736loPI   C2A11440  11.600  17.316   5.753  0.1669  0.0208  0.1254
  736loPI   C3A11441  11.894  17.380   6.154  0.2096  0.0645 -0.3479
  736loPI   C4A11442  11.946  17.767   6.311 -0.1436  0.0034 -0.0329
  736loPI   C5A11443  11.693  18.050   6.573 -0.1521 -0.0062 -0.5079
  736loPI   C6A11444  11.444  18.105   6.949 -0.3680  0.3883 -0.0596
  736loPI   C1B11445  12.212  17.048   5.507 -0.2904 -0.0616  0.1258
  736loPI   C2B11446  12.101  17.035   5.758 -0.0186  0.0899 -0.2602
  736loPI   C3B11447  12.216  16.895   6.094 -0.0684  0.2637 -0.2288
  736loPI   C4B11448  12.007  16.760   6.448 -0.0516  0.1743  0.2324
  737loPI    C111449  13.958  18.878   5.057 -0.1781 -0.1006 -0.0040
  737loPI    C211450  14.233  18.803   4.776  0.0036  0.2685  0.0690
  737loPI    C311451  13.913  19.027   4.689 -0.0374  0.2248  0.1066
  737loPI   PO411452  14.130  18.996   5.286 -0.1818 -0.2311  0.0326
  737loPI   GL111453  14.201  18.799   5.602 -0.0697 -0.0197 -0.1924
  737loPI   GL211454  14.518  18.810   5.651  0.1429  0.1928  0.1768
  737loPI   C1A11455  14.335  18.863   6.155  0.1043 -0.1570  0.1755
  737loPI   C2A11456  14.056  19.118   6.487 -0.2115 -0.0322 -0.0548
  737loPI   C3A11457  14.130  19.423   6.895  0.0660 -0.0418 -0.1119
  737loPI   C4A11458  14.008  19.369   7.320 -0.1715 -0.0352  0.1519
  737loPI   C5A11459  13.840  19.083   7.657 -0.1171  0.0421 -0.1069
  737loPI   C6A11460  13.568  18.844   7.488  0.1048  0.2282 -0.5152
  737loPI   C1B11461  14.799  18.746   5.953  0.0714  0.1590 -0.1295
  737loPI   C2B11462  15.130  18.413   6.031  0.1224 -0.1998 -0.3737
  737loPI   C3B11463  14.965  18.033   6.172 -0.2644 -0.1473  0.1248
  737loPI   C4B11464  14.772  17.652   6.268  0.3663  0.1558  0.0673
  738loPI    C111465  10.628  14.889   4.286  0.0790 -0.1842 -0.2442
  738loPI    C211466  10.880  14.586   4.358  0.1394 -0.0970 -0.0830
  738loPI    C311467  10.888  14.774   4.005  0.3284 -0.0688 -0.0646
  738loPI   PO411468  10.614  15.008   4.590 -0.3214  0.1258 -0.0603
  738loPI   GL111469  10.550  14.788   4.954  0.0951  0.0377 -0.1939
  738loPI   GL211470  10.351  14.687   5.072 -0.3214  0.0562 -0.0300
  738loPI   C1A11471  10.877  14.787   5.274 -0.1534 -0.0018 -0.0132
  738loPI   C2A11472  11.159  14.877   5.647  0.1434 -0.3098  0.0333
  738loPI   C3A11473  11.550  14.992   5.836 -0.2185  0.0996 -0.1432
  738loPI   C4A11474  11.618  14.967   6.344  0.3239 -0.2949 -0.3059
  738loPI   C5A11475  11.529  14.966   6.790  0.0518  0.0572  0.2824
  738loPI   C6A11476  11.582  14.818   7.208 -0.2915 -0.2340 -0.2962
  738loPI   C1B11477  10.405  14.827   5.515 -0.4307 -0.0760  0.1047
  738loPI   C2B11478  10.713  15.140   5.554 -0.0613 -0.0768  0.0168
  738loPI   C3B11479  10.675  15.605   5.705 -0.3488  0.4648  0.0291
  738loPI   C4B11480  10.685  16.027   5.869  0.0568  0.1709 -0.2820
  739loPI    C111481   0.120   0.062   4.889  0.0069 -0.1802  0.0081
  739loPI    C211482   0.173   0.269   4.551  0.1829 -0.1713  0.0405
  739loPI    C311483   0.141  -0.129   4.539 -0.0287 -0.1542 -0.0084
  739loPI   PO411484  -0.110   0.220   5.013  0.0869  0.0922 -0.0241
  739loPI   GL111485  -0.431   0.413   5.173 -0.0335 -0.3086 -0.0130
  739loPI   GL211486  -0.598   0.084   5.154 -0.1186 -0.1832 -0.4696
  739loPI   C1A11487  -0.415   0.597   5.430  0.0743 -0.0403 -0.0789
  739loPI   C2A11488   0.017   0.590   5.677 -0.4527  0.2633  0.3261
  739loPI   C3A11489   0.258   0.485   6.049  0.1119 -0.3805  0.3049
  739loPI   C4A11490   0.303   0.614   6.480 -0.1898 -0.0888  0.1135
  739loPI   C5A11491   0.522   0.675   6.943  0.1829 -0.0914 -0.0582
  739loPI   C6A11492   0.426   0.929   7.186  0.0062  0.0569 -0.0014
  739loPI   C1B11493  -0.647   0.078   5.512  0.0398  0.4801  0.1620
  739loPI   C2B11494  -0.457   0.315   5.845 -0.2095  0.3358 -0.3243
  739loPI   C3B11495  -0.620   0.531   6.284 -0.2951  0.0426 -0.1719
  739loPI   C4B11496  -0.328   0.723   6.666  0.1402  0.0346  0.2122
  740loPI    C111497   4.983  14.200   4.370  0.2327 -0.1064  0.1922
  740loPI    C211498   5.074  14.446   4.067 -0.2670 -0.0928  0.0436
  740loPI    C311499   4.923  14.083   3.992  0.0470 -0.2760  0.2725
  740loPI   PO411500   4.939  14.355   4.628 -0.0822 -0.0589 -0.0152
  740loPI   GL111501   5.059  14.261   4.980 -0.0303 -0.0274  0.0852
  740loPI   GL211502   4.736  14.366   5.061  0.0206  0.1066  0.2807
  740loPI   C1A11503   5.000  13.938   5.350 -0.0772  0.0873  0.3252
  740loPI   C2A11504   4.739  13.631   5.704  0.4674 -0.0054  0.2689
  740loPI   C3A11505   4.498  13.633   6.168  0.1831  0.0878  0.0002
  740loPI   C4A11506   4.285  13.726   6.558  0.1989  0.2912 -0.2162
  740loPI   C5A11507   4.303  13.835   7.010  0.4798 -0.3481 -0.2290
  740loPI   C6A11508   4.012  14.053   7.138  0.1699 -0.2454 -0.0606
  740loPI   C1B11509   4.595  14.277   5.519 -0.2168  0.1110  0.4082
  740loPI   C2B11510   4.493  14.062   5.873 -0.2389 -0.0672  0.2255
  740loPI   C3B11511   4.328  14.129   6.239  0.1450 -0.1287 -0.1701
  740loPI   C4B11512   4.232  14.169   6.689 -0.3454 -0.4829  0.1106
  741loPI    C111513   0.435  17.213   4.778 -0.0008 -0.4036  0.1039
  741loPI    C211514   0.420  16.966   4.463 -0.3010 -0.1532 -0.0847
  741loPI    C311515   0.493  17.355   4.408  0.2155 -0.1985  0.2142
  741loPI   PO411516   0.642  17.152   4.913 -0.2632  0.0999  0.2715
  741loPI   GL111517   0.713  17.297   5.375 -0.2293 -0.0840 -0.0710
  741loPI   GL211518   0.362  17.137   5.314  0.1602 -0.1416  0.1054
  741loPI   C1A11519   0.697  17.253   5.844 -0.2156 -0.0695  0.3059
  741loPI   C2A11520   0.753  17.329   6.346 -0.1250  0.1578 -0.2572
  741loPI   C3A11521   0.946  17.486   6.586  0.0162  0.2638 -0.0571
  741loPI   C4A11522   0.962  17.470   7.044  0.0315  0.2510  0.0571
  741loPI   C5A11523   0.792  17.806   7.380 -0.0818 -0.1351  0.2032
  741loPI   C6A11524   0.675  18.180   7.242 -0.2583 -0.2953  0.0379
  741loPI   C1B11525   0.261  17.481   5.702  0.1489  0.0535  0.0238
  741loPI   C2B11526   0.287  17.754   5.939  0.0986 -0.0645 -0.0809
  741loPI   C3B11527   0.000  17.860   6.276 -0.1727  0.1282  0.0247
  741loPI   C4B11528  -0.135  17.716   6.610 -0.1703 -0.1955  0.2262
  742loPI    C111529  16.496  11.749   4.155  0.1204  0.2592 -0.0478
  742loPI    C211530  16.594  11.911   3.803  0.1326  0.2228 -0.0613
  742loPI    C311531  16.825  11.627   3.963  0.0500  0.1378 -0.0921
  742loPI   PO411532  16.207  11.560   4.270 -0.0355 -0.0019  0.0917
  742loPI   GL111533  16.096  11.476   4.832 -0.4443  0.3159  0.1643
  742loPI   GL211534  16.452  11.447   4.709 -0.2932 -0.0077 -0.0520
  742loPI   C1A11535  15.885  11.800   5.071  0.0037 -0.1224 -0.1091
  742loPI   C2A11536  15.965  11.969   5.388  0.0667  0.4042  0.0214
  742loPI   C3A11537  16.033  12.060   5.807 -0.1354  0.1738  0.1671
  742loPI   C4A11538  16.199  12.150   6.269 -0.2167  0.0592 -0.0429
  742loPI   C5A11539  16.475  12.133   6.649  0.0126  0.2743  0.0491
  742loPI   C6A11540  16.549  11.823   7.041  0.1587 -0.4367  0.2462
  742loPI   C1B11541  16.632  11.451   5.013 -0.0012 -0.2436 -0.1616
  742loPI   C2B11542  16.983  11.616   5.295  0.1868 -0.0116 -0.3038
  742loPI   C3B11543  16.982  11.802   5.722 -0.0011  0.1158  0.0988
  742loPI   C4B11544  16.873  11.585   6.105  0.0609  0.0181 -0.0254
  743loPI    C111545   2.292  14.770   4.101 -0.0718 -0.1255 -0.1195
  743loPI    C211546   2.468  14.659   3.759  0.1155  0.1650 -0.1209
  743loPI    C311547   2.621  14.959   3.975 -0.0674  0.0598  0.1611
  743loPI   PO411548   2.252  14.537   4.250  0.2487 -0.3174  0.2965
  743loPI   GL111549   2.004  14.587   4.571 -0.1939  0.1940  0.0096
  743loPI   GL211550   2.333  14.479   4.714 -0.0068  0.1330  0.0386
  743loPI   C1A11551   1.969  14.647   5.028 -0.0304  0.2045  0.0604
  743loPI   C2A11552   1.824  14.728   5.386  0.1862  0.0210  0.2032
  743loPI   C3A11553   1.799  14.971   5.809 -0.0570  0.0356  0.0001
  743loPI   C4A11554   1.693  15.146   6.230  0.1081 -0.5656  0.0423
  743loPI   C5A11555   1.514  15.147   6.692 -0.2266 -0.2671  0.4136
  743loPI   C6A11556   1.363  15.233   7.068 -0.0756  0.0107  0.0436
  743loPI   C1B11557   2.489  14.712   4.909  0.1503 -0.0004  0.3438
  743loPI   C2B11558   2.389  14.790   5.348  0.0434  0.0015 -0.1209
  743loPI   C3B11559   2.176  14.722   5.674 -0.2373 -0.0079  0.0245
  743loPI   C4B11560   2.180  14.789   6.112  0.1558  0.1983  0.1719
  744loPI    C111561   3.458   9.109   4.737 -0.0540 -0.1047  0.0797
  744loPI    C211562   3.175   9.391   4.711  0.0995  0.0431 -0.0047
  744loPI    C311563   3.127   9.041   4.522  0.0818  0.1607 -0.2211
  744loPI   PO411564   3.618   9.254   5.009  0.0478 -0.0509 -0.1127
  744loPI   GL111565   3.824   9.306   5.396 -0.4009 -0.3576 -0.1060
  744loPI   GL211566   4.050   9.116   5.477  0.2591  0.0315  0.3331
  744loPI   C1A11567   3.806   8.979   5.883 -0.1759  0.0921  0.1531
  744loPI   C2A11568   3.870   9.129   6.163  0.0553  0.1422  0.2403
  744loPI   C3A11569   3.880   9.091   6.584 -0.0428 -0.2373  0.1607
  744loPI   C4A11570   3.685   8.947   6.935 -0.0583 -0.2361  0.4846
  744loPI   C5A11571   3.278   9.042   6.975  0.2839  0.0164 -0.0918
  744loPI   C6A11572   2.930   8.840   6.933 -0.0030 -0.0107  0.2235
  744loPI   C1B11573   4.265   9.340   5.863 -0.0833 -0.0266 -0.0395
  744loPI   C2B11574   4.311   9.345   6.352  0.1963  0.2412  0.0071
  744loPI   C3B11575   4.518   9.382   6.769 -0.0041 -0.0505 -0.2817
  744loPI   C4B11576   4.672   9.162   7.200 -0.0294  0.2214  0.0413
  745loPI    C111577  17.322  13.428   4.380  0.0300  0.1688 -0.1056
  745loPI    C211578  17.285  13.683   4.686  0.0194  0.0687 -0.0232
  745loPI    C311579  17.131  13.776   4.329 -0.2357  0.0536  0.0804
  745loPI   PO411580  17.585  13.305   4.395  0.2690  0.1716  0.0358
  745loPI   GL111581  17.743  13.185   4.781  0.1983  0.4172  0.3756
  745loPI   GL211582  17.638  13.452   5.032 -0.0643 -0.1354  0.1288
  745loPI   C1A11583  17.826  13.047   5.263 -0.0517 -0.1786  0.2499
  745loPI   C2A11584  17.919  13.198   5.647 -0.0002  0.2760 -0.3332
  745loPI   C3A11585  18.004  13.042   6.055  0.0925 -0.4481 -0.1518
  745loPI   C4A11586  18.196  12.913   6.455 -0.0527  0.0563  0.0400
  745loPI   C5A11587  18.178  13.030   6.836  0.3315 -0.0502  0.2676
  745loPI   C6A11588  18.263  12.742   7.149 -0.1180  0.1484 -0.1498
  745loPI   C1B11589  17.502  13.436   5.443  0.1268  0.0596 -0.2056
  745loPI   C2B11590  17.546  13.486   5.902  0.0597 -0.2545  0.1233
  745loPI   C3B11591  17.599  13.408   6.302 -0.1717  0.0929  0.0746
  745loPI   C4B11592  17.650  13.016   6.560 -0.0130 -0.1345  0.0490
  746loPI    C111593   7.052   4.679   4.665  0.0809  0.2737 -0.0734
  746loPI    C211594   7.299   4.457   4.442 -0.1251  0.0942 -0.1270
  746loPI    C311595   6.915   4.492   4.339 -0.1835  0.1530  0.1035
  746loPI   PO411596   7.006   4.570   4.951 -0.0402 -0.0127 -0.3894
  746loPI   GL111597   6.646   4.557   5.217  0.1209 -0.1241  0.1908
  746loPI   GL211598   6.840   4.682   5.413 -0.0238  0.1272  0.2863
  746loPI   C1A11599   6.398   4.499   5.482 -0.1374  0.0277 -0.0477
  746loPI   C2A11600   6.196   4.594   5.897  0.0142 -0.1792  0.1296
  746loPI   C3A11601   6.234   4.717   6.390  0.0977  0.1723 -0.2088
  746loPI   C4A11602   6.217   4.693   6.858 -0.3723 -0.0634  0.3779
  746loPI   C5A11603   6.326   4.683   7.204  0.0743  0.0064  0.3359
  746loPI   C6A11604   6.356   4.265   7.472 -0.2209  0.0563 -0.1257
  746loPI   C1B11605   6.603   4.824   5.764 -0.0027 -0.0604 -0.5008
  746loPI   C2B11606   6.788   4.795   6.152  0.1658  0.3422  0.0572
  746loPI   C3B11607   6.744   4.564   6.491  0.1611 -0.0338  0.0234
  746loPI   C4B11608   6.638   4.404   6.945  0.2808  0.1458 -0.0204
  747loPI    C111609   6.102   6.689   4.839 -0.0200  0.1437  0.1382
  747loPI    C211610   6.088   6.936   4.525  0.1739 -0.2522 -0.1932
  747loPI    C311611   5.820   6.641   4.559  0.0032 -0.0645  0.1484
  747loPI   PO411612   6.124   6.896   5.060  0.1764 -0.1069 -0.3454
  747loPI   GL111613   6.176   6.914   5.538  0.3344  0.0212  0.0545
  747loPI   GL211614   6.338   6.616   5.381  0.2908 -0.1718 -0.0340
  747loPI   C1A11615   6.264   7.176   5.865 -0.0062 -0.1385  0.0620
  747loPI   C2A11616   6.408   7.412   6.237  0.0090  0.2225 -0.0743
  747loPI   C3A11617   6.706   7.583   6.272  0.0609  0.2358 -0.0367
  747loPI   C4A11618   6.963   7.701   6.575 -0.1271  0.0551  0.1760
  747loPI   C5A11619   7.075   7.829   6.940 -0.2262 -0.0491 -0.0624
  747loPI   C6A11620   7.353   8.100   7.281 -0.0834  0.0238 -0.3263
  747loPI   C1B11621   6.575   6.437   5.701 -0.0013  0.0368 -0.2617
  747loPI   C2B11622   6.485   6.200   5.963  0.1244 -0.0386  0.2526
  747loPI   C3B11623   6.070   6.004   6.092  0.0464  0.0345  0.3161
  747loPI   C4B11624   5.685   5.979   5.769 -0.0392  0.0249 -0.0022
  748loPI    C111625   5.632   1.458   4.810 -0.2102 -0.0637  0.2029
  748loPI    C211626   5.350   1.697   4.656  0.0537  0.0700 -0.0833
  748loPI    C311627   5.511   1.408   4.432  0.3356  0.1690 -0.0130
  748loPI   PO411628   5.678   1.598   5.044  0.2537 -0.1281 -0.1581
  748loPI   GL111629   5.708   1.444   5.396  0.2391  0.0232 -0.0649
  748loPI   GL211630   5.519   1.195   5.444 -0.1185 -0.2374 -0.0949
  748loPI   C1A11631   5.934   1.552   5.752  0.0727 -0.0305 -0.2411
  748loPI   C2A11632   5.916   1.402   6.237 -0.0525  0.3854 -0.2012
  748loPI   C3A11633   5.819   1.257   6.742  0.2364 -0.0852 -0.1019
  748loPI   C4A11634   5.730   1.428   7.104 -0.0218  0.0731  0.0206
  748loPI   C5A11635   5.470   1.559   7.307  0.2235  0.4890 -0.0032
  748loPI   C6A11636   5.008   1.392   7.294 -0.3900 -0.0387  0.0925
  748loPI   C1B11637   5.491   1.194   5.906 -0.0048 -0.0408  0.1484
  748loPI   C2B11638   5.496   1.153   6.317  0.0837 -0.0102  0.1081
  748loPI   C3B11639   5.361   0.878   6.659 -0.0823  0.0676  0.0546
  748loPI   C4B11640   5.116   1.054   7.001 -0.4966  0.1901 -0.0412
  749loPI    C111641  18.844   6.282   5.119 -0.0278  0.0455  0.2100
  749loPI    C211642  18.763   5.899   5.038 -0.1273  0.0712  0.1863
  749loPI    C311643  18.715   6.177   4.755 -0.0263  0.0971  0.1945
  749loPI   PO411644  18.964   6.279   5.410 -0.0345  0.0079 -0.0261
  749loPI   GL111645  18.927   6.270   5.820  0.0103  0.0774  0.2225
  749loPI   GL211646  19.233   6.021   5.837  0.3460 -0.0929  0.0570
  749loPI   C1A11647  18.947   6.144   6.291 -0.1519  0.0805  0.3891
  749loPI   C2A11648  18.983   5.884   6.513 -0.2237 -0.2366 -0.2028
  749loPI   C3A11649  19.136   5.684   6.873  0.0811 -0.1539  0.0597
  749loPI   C4A11650  19.483   5.569   7.162 -0.1677  0.0972 -0.1422
  749loPI   C5A11651  19.835   5.706   7.199  0.1728  0.1193 -0.2706
  749loPI   C6A11652  20.312   5.574   7.378 -0.0445 -0.1916  0.1679
  749loPI   C1B11653  19.472   5.901   6.207 -0.0198 -0.0930 -0.0137
  749loPI   C2B11654  19.430   5.961   6.567 -0.1434  0.0582 -0.1567
  749loPI   C3B11655  19.566   6.021   6.881 -0.0377  0.0023 -0.1632
  749loPI   C4B11656  19.612   6.224   7.356  0.1706 -0.2336 -0.1643
  750loPI    C111657  18.118   5.706   4.886 -0.1206 -0.2170 -0.0032
  750loPI    C211658  18.311   5.908   4.601 -0.1676  0.0626  0.1587
  750loPI    C311659  18.436   5.544   4.708  0.0579  0.0977  0.0212
  750loPI   PO411660  18.146   5.884   5.152  0.2659  0.1849  0.0845
  750loPI   GL111661  18.507   5.940   5.425  0.1839 -0.2979 -0.0528
  750loPI   GL211662  18.798   5.757   5.517  0.1461 -0.1132 -0.3779
  750loPI   C1A11663  18.353   6.066   5.859 -0.0649 -0.2932 -0.3282
  750loPI   C2A11664  18.373   6.291   6.223  0.1026 -0.1734  0.2646
  750loPI   C3A11665  18.487   6.354   6.654 -0.0309 -0.0393 -0.0002
  750loPI   C4A11666  18.543   5.987   6.852 -0.1763 -0.0311 -0.1319
  750loPI   C5A11667  18.272   5.732   7.012 -0.3214 -0.0517  0.1578
  750loPI   C6A11668  18.135   5.545   7.284  0.2680  0.1128  0.0402
  750loPI   C1B11669  18.777   5.797   5.953 -0.2208 -0.3246 -0.0522
  750loPI   C2B11670  18.563   5.698   6.263  0.0631  0.2533  0.0969
  750loPI   C3B11671  18.145   5.812   6.411 -0.1015  0.0416 -0.0098
  750loPI   C4B11672  17.712   5.993   6.614 -0.2364 -0.0361 -0.2442
  751loPI    C111673  14.000   5.897   4.941 -0.4153 -0.1813 -0.0829
  751loPI    C211674  13.825   6.196   5.142  0.5469  0.1059  0.3919
  751loPI    C311675  13.957   6.256   4.769  0.0091 -0.0004  0.1736
  751loPI   PO411676  14.167   5.822   5.090  0.0125 -0.1973 -0.3106
  751loPI   GL111677  14.278   6.098   5.389 -0.1508  0.1349 -0.3065
  751loPI   GL211678  14.146   6.246   5.581  0.0413  0.0249  0.0879
  751loPI   C1A11679  14.511   5.880   5.810  0.2244 -0.1530  0.1559
  751loPI   C2A11680  14.619   6.007   6.251 -0.2054 -0.2486 -0.1392
  751loPI   C3A11681  14.641   6.339   6.540 -0.4612  0.1045  0.0941
  751loPI   C4A11682  14.682   6.285   7.017 -0.0732  0.3199 -0.3374
  751loPI   C5A11683  14.743   6.427   7.445  0.2129 -0.3541  0.0084
  751loPI   C6A11684  14.847   6.161   7.812 -0.1420 -0.0861 -0.1276
  751loPI   C1B11685  14.005   6.225   5.963 -0.2047  0.0779  0.1069
  751loPI   C2B11686  14.047   6.064   6.380 -0.1251  0.0893 -0.2668
  751loPI   C3B11687  13.945   5.808   6.630  0.1436 -0.0059 -0.3914
  751loPI   C4B11688  13.685   5.484   6.907 -0.0505  0.0890  0.1261
  752loPI    C111689  19.392  18.053   4.459 -0.0995 -0.0795  0.1658
  752loPI    C211690  19.171  18.268   4.205 -0.2542 -0.0743  0.3036
  752loPI    C311691  19.505  18.089   4.077 -0.1007  0.2813  0.1965
  752loPI   PO411692  19.429  18.152   4.676 -0.1759 -0.0340  0.1046
  752loPI   GL111693  19.363  18.116   5.131  0.4696 -0.1928  0.2288
  752loPI   GL211694  19.403  18.347   5.389  0.0682 -0.3210  0.0165
  752loPI   C1A11695  19.059  17.979   5.433  0.1849  0.0780 -0.0479
  752loPI   C2A11696  18.891  17.779   5.816 -0.2054 -0.2379 -0.2132
  752loPI   C3A11697  18.908  17.707   6.274  0.0137 -0.0031  0.1513
  752loPI   C4A11698  18.958  17.937   6.766 -0.2838  0.2338  0.1062
  752loPI   C5A11699  18.844  18.312   7.101 -0.1988  0.3073 -0.3777
  752loPI   C6A11700  18.485  18.538   7.277 -0.2883 -0.1231  0.1991
  752loPI   C1B11701  19.267  18.513   5.797  0.3695 -0.1871  0.3434
  752loPI   C2B11702  19.607  18.515   6.171  0.0079 -0.0011  0.1474
  752loPI   C3B11703  19.657  18.392   6.531 -0.0494  0.0191 -0.2244
  752loPI   C4B11704  19.369  18.215   6.856 -0.2186  0.0742 -0.1513
  753loPI    C111705  16.184   9.798   4.349 -0.0667  0.0468 -0.0763
  753loPI    C211706  15.847   9.775   4.134 -0.0720 -0.5179 -0.0218
  753loPI    C311707  16.178   9.591   4.007  0.2000 -0.0401 -0.0304
  753loPI   PO411708  16.122   9.684   4.572  0.0172 -0.3298 -0.2022
  753loPI   GL111709  16.028   9.833   5.086  0.1770 -0.2629  0.0944
  753loPI   GL211710  16.069   9.515   5.088 -0.3100  0.2029  0.2091
  753loPI   C1A11711  16.317  10.047   5.387  0.3441 -0.1989 -0.0609
  753loPI   C2A11712  16.507   9.846   5.830  0.2271  0.0014 -0.0139
  753loPI   C3A11713  16.295   9.557   6.225  0.1527 -0.3130  0.0197
  753loPI   C4A11714  16.363   9.195   6.516  0.2755  0.2212 -0.1552
  753loPI   C5A11715  16.717   9.131   6.698  0.2318  0.1053 -0.0195
  753loPI   C6A11716  17.081   9.331   6.954  0.0680  0.1241 -0.1471
  753loPI   C1B11717  16.416   9.436   5.411 -0.0460 -0.0571  0.0982
  753loPI   C2B11718  16.525   9.341   5.798 -0.1142  0.2355 -0.2539
  753loPI   C3B11719  16.809   9.271   6.098  0.0124 -0.1136  0.2096
  753loPI   C4B11720  17.077   9.410   6.426 -0.1749 -0.0347  0.1385
  754loPI    C111721  10.423   9.575   4.774  0.0890 -0.1600  0.0442
  754loPI    C211722  10.428   9.183   4.696  0.0931 -0.1011 -0.2629
  754loPI    C311723  10.508   9.446   4.405  0.0999  0.1281 -0.0568
  754loPI   PO411724  10.507   9.606   4.927 -0.0821  0.1025 -0.1321
  754loPI   GL111725  10.741   9.689   5.337  0.0990  0.2860 -0.2213
  754loPI   GL211726  10.530   9.934   5.423 -0.4759  0.2071  0.2680
  754loPI   C1A11727  10.885   9.887   5.781 -0.0067  0.3892  0.1092
  754loPI   C2A11728  10.869   9.912   6.248 -0.1720  0.2086 -0.0979
  754loPI   C3A11729  10.812  10.163   6.503 -0.0858 -0.2034 -0.1703
  754loPI   C4A11730  10.977  10.184   6.943  0.0375  0.0277  0.1264
  754loPI   C5A11731  11.417  10.075   7.241 -0.0217 -0.0734 -0.0489
  754loPI   C6A11732  11.502   9.626   7.375 -0.0333 -0.0469 -0.2736
  754loPI   C1B11733  10.421   9.889   5.935 -0.0302  0.0818  0.2713
  754loPI   C2B11734  10.373   9.887   6.359  0.0453 -0.1216  0.1217
  754loPI   C3B11735  10.429  10.078   6.804  0.0781 -0.4246 -0.4088
  754loPI   C4B11736  10.201  10.303   7.129  0.1620 -0.1656 -0.0255
  755loPI    C111737  13.231   1.245   4.916 -0.0378  0.1326 -0.1504
  755loPI    C211738  12.848   1.136   4.879 -0.0415  0.0339  0.1476
  755loPI    C311739  13.080   0.962   5.155  0.2542  0.0041 -0.1133
  755loPI   PO411740  13.170   1.511   5.015 -0.0458 -0.1401  0.0040
  755loPI   GL111741  13.090   1.706   5.306  0.1508  0.1775 -0.3628
  755loPI   GL211742  12.797   1.605   5.385 -0.0813 -0.0468  0.1605
  755loPI   C1A11743  12.969   1.924   5.708 -0.1880 -0.1973  0.0957
  755loPI   C2A11744  13.009   2.101   6.115  0.1627 -0.1834  0.1223
  755loPI   C3A11745  13.365   2.059   6.283 -0.5007 -0.1163 -0.2878
  755loPI   C4A11746  13.774   2.027   6.588  0.0925 -0.0743  0.3152
  755loPI   C5A11747  13.959   2.222   6.954  0.0805  0.3458 -0.1553
  755loPI   C6A11748  13.927   2.535   7.179 -0.1006  0.1962 -0.6106
  755loPI   C1B11749  12.960   1.372   5.684 -0.1205  0.1873  0.0154
  755loPI   C2B11750  12.968   1.180   6.037 -0.2487  0.1240  0.0551
  755loPI   C3B11751  12.915   1.165   6.414 -0.2772 -0.2480 -0.3034
  755loPI   C4B11752  13.083   1.366   6.785 -0.0024  0.0739 -0.2093
  756loPI    C111753  14.180   6.678   4.955  0.1364  0.0348  0.0198
  756loPI    C211754  13.790   6.765   4.987  0.1555  0.1138  0.0396
  756loPI    C311755  13.955   6.712   4.626  0.1426  0.1551  0.0278
  756loPI   PO411756  14.224   6.517   5.176 -0.0892 -0.2787  0.0580
  756loPI   GL111757  14.612   6.601   5.459  0.0763  0.0518 -0.1116
  756loPI   GL211758  14.300   6.790   5.575 -0.0957  0.1454  0.0063
  756loPI   C1A11759  14.542   6.384   5.886  0.1281  0.0275 -0.0452
  756loPI   C2A11760  14.296   6.500   6.216 -0.1677 -0.0130 -0.1438
  756loPI   C3A11761  14.250   6.573   6.703  0.1974  0.2774  0.3664
  756loPI   C4A11762  14.406   6.684   7.089  0.0563 -0.0762 -0.1467
  756loPI   C5A11763  14.444   6.786   7.465 -0.1965 -0.0625  0.1719
  756loPI   C6A11764  14.328   7.011   7.807  0.1602 -0.2206 -0.0006
  756loPI   C1B11765  14.183   7.009   5.911  0.0514  0.2223  0.1262
  756loPI   C2B11766  14.267   7.117   6.328 -0.1979  0.0660  0.3632
  756loPI   C3B11767  14.431   7.236   6.699  0.0048  0.1064  0.2294
  756loPI   C4B11768  14.602   7.151   7.087 -0.0191  0.1388 -0.4212
  757loPI    C111769  12.315   4.831   4.933 -0.0293 -0.1687  0.0498
  757loPI    C211770  12.271   4.838   4.535  0.1783 -0.0872  0.0270
  757loPI    C311771  11.959   4.750   4.770 -0.0130  0.1312 -0.1416
  757loPI   PO411772  12.499   5.052   4.902 -0.0568  0.1225  0.2260
  757loPI   GL111773  12.729   5.211   5.231  0.2079  0.0618 -0.1726
  757loPI   GL211774  13.015   5.313   5.425  0.2915  0.1391 -0.2414
  757loPI   C1A11775  12.429   4.970   5.562  0.0665 -0.2223 -0.0816
  757loPI   C2A11776  12.250   4.604   5.591 -0.0109  0.1678 -0.0712
  757loPI   C3A11777  12.262   4.330   5.966 -0.2424  0.3507 -0.3673
  757loPI   C4A11778  12.106   3.824   5.883 -0.0191 -0.1217  0.0193
  757loPI   C5A11779  12.083   3.501   6.244  0.0016 -0.0929 -0.0055
  757loPI   C6A11780  12.205   3.223   6.562  0.3785 -0.2145 -0.1512
  757loPI   C1B11781  12.687   5.394   5.681 -0.0184 -0.0841 -0.0120
  757loPI   C2B11782  12.438   5.295   5.987  0.5280  0.4729 -0.1369
  757loPI   C3B11783  12.498   5.075   6.264  0.3590  0.1400 -0.0976
  757loPI   C4B11784  12.506   4.945   6.736  0.0200  0.1450 -0.1991
  758loPI    C111785   3.329   1.683   4.668  0.1131 -0.0113 -0.1229
  758loPI    C211786   3.547   1.964   4.485  0.1678  0.0055 -0.0325
  758loPI    C311787   3.551   1.588   4.349 -0.1257  0.1043 -0.3272
  758loPI   PO411788   3.414   1.648   4.915  0.0249 -0.0249 -0.0940
  758loPI   GL111789   3.359   1.863   5.220 -0.2474 -0.0406  0.2362
  758loPI   GL211790   3.537   2.141   5.374 -0.0705  0.1112 -0.2725
  758loPI   C1A11791   3.308   1.670   5.595  0.1695  0.1216 -0.1467
  758loPI   C2A11792   3.267   1.403   5.941 -0.0902  0.0539 -0.3245
  758loPI   C3A11793   3.226   1.277   6.410 -0.2819  0.3147  0.0611
  758loPI   C4A11794   3.537   1.383   6.809  0.4802 -0.2650  0.2804
  758loPI   C5A11795   3.863   1.496   6.904 -0.0572  0.0725 -0.3307
  758loPI   C6A11796   3.972   1.407   7.349  0.1973 -0.2083  0.1443
  758loPI   C1B11797   3.614   2.172   5.800  0.0737  0.0570  0.0560
  758loPI   C2B11798   3.432   1.906   6.114 -0.1568  0.1240  0.4940
  758loPI   C3B11799   3.028   1.725   6.276 -0.1737 -0.0951  0.0300
  758loPI   C4B11800   2.948   1.502   6.788 -0.2562  0.0462  0.0840
  759loPI    C111801   4.805   8.887   4.734  0.1291  0.1351  0.0444
  759loPI    C211802   4.475   9.085   4.625  0.0719  0.0113 -0.0082
  759loPI    C311803   4.713   8.925   4.346  0.1710  0.0913  0.0301
  759loPI   PO411804   4.894   9.068   4.925  0.0360  0.1248 -0.0971
  759loPI   GL111805   5.012   8.986   5.336 -0.1077  0.3132 -0.1070
  759loPI   GL211806   4.869   8.689   5.298 -0.0029 -0.0362 -0.0697
  759loPI   C1A11807   5.086   8.641   5.750 -0.2633 -0.1864  0.2066
  759loPI   C2A11808   5.184   8.614   6.235 -0.0114 -0.0376  0.2789
  759loPI   C3A11809   5.214   8.345   6.503  0.2477  0.0977  0.2688
  759loPI   C4A11810   5.271   7.892   6.602 -0.2032 -0.3310  0.2879
  759loPI   C5A11811   5.100   7.568   6.812 -0.0115 -0.0343  0.0009
  759loPI   C6A11812   5.350   7.087   6.765 -0.1171  0.1491 -0.4608
  759loPI   C1B11813   4.650   8.432   5.593  0.0869 -0.0073 -0.1122
  759loPI   C2B11814   4.690   8.406   6.110  0.2286 -0.0623  0.1014
  759loPI   C3B11815   4.628   8.533   6.493 -0.0147  0.0189 -0.0234
  759loPI   C4B11816   4.823   8.912   6.625  0.0952  0.0957  0.1671
  760loPI    C111817  14.742   0.020   5.049  0.1905 -0.0755  0.1305
  760loPI    C211818  15.018   0.219   4.838 -0.1699  0.2803 -0.0194
  760loPI    C311819  14.656   0.150   4.681 -0.1630 -0.2114  0.1605
  760loPI   PO411820  14.901  -0.022   5.297  0.2627 -0.0622  0.2973
  760loPI   GL111821  15.099   0.094   5.664 -0.0633  0.1791  0.2016
  760loPI   GL211822  15.355   0.428   5.641 -0.0723  0.2820 -0.0595
  760loPI   C1A11823  15.285  -0.228   5.920  0.1664 -0.1284  0.2171
  760loPI   C2A11824  15.153  -0.282   6.301 -0.0667  0.0638 -0.1508
  760loPI   C3A11825  15.205  -0.298   6.695 -0.0523  0.0484  0.1587
  760loPI   C4A11826  15.091  -0.127   7.037  0.1991  0.1226  0.3789
  760loPI   C5A11827  15.048   0.104   7.369  0.1142 -0.2199 -0.1777
  760loPI   C6A11828  15.246   0.439   7.710 -0.0733  0.4104 -0.3353
  760loPI   C1B11829  15.339   0.735   6.047 -0.0665  0.3230  0.2658
  760loPI   C2B11830  15.644   0.804   6.343  0.1039  0.0563 -0.1007
  760loPI   C3B11831  15.900   1.284   6.373  0.0035 -0.1467  0.2770
  760loPI   C4B11832  16.017   1.695   6.465 -0.1969  0.2013 -0.0634
  761loPI    C111833  18.225  18.250   4.701 -0.1244 -0.1368  0.2060
  761loPI    C211834  18.302  18.414   4.344  0.3361 -0.3445  0.2026
  761loPI    C311835  18.069  18.090   4.369  0.1025 -0.1852  0.1205
  761loPI   PO411836  18.483  18.241   4.822  0.0083  0.2603 -0.2302
  761loPI   GL111837  18.691  18.347   5.256 -0.3974 -0.0245  0.0309
  761loPI   GL211838  18.479  18.068   5.347 -0.1011 -0.0567 -0.0371
  761loPI   C1A11839  18.754  18.375   5.679 -0.0111  0.0754 -0.0702
  761loPI   C2A11840  18.792  18.265   6.091 -0.1411 -0.0682  0.0939
  761loPI   C3A11841  18.633  18.083   6.444 -0.1479  0.1537 -0.2922
  761loPI   C4A11842  18.353  18.118   6.786 -0.0970 -0.0827 -0.0583
  761loPI   C5A11843  18.068  18.345   7.040 -0.3203 -0.0204 -0.1657
  761loPI   C6A11844  17.597  18.268   7.134 -0.1945  0.1265  0.3524
  761loPI   C1B11845  18.365  18.035   5.841 -0.1814 -0.0778  0.0290
  761loPI   C2B11846  18.189  18.318   6.219  0.1218 -0.1163  0.0471
  761loPI   C3B11847  17.897  17.930   6.456 -0.2082 -0.0278 -0.1962
  761loPI   C4B11848  17.782  17.494   6.706  0.1654  0.0237 -0.0876
  762loPI    C111849   3.824  11.245   4.739  0.2020 -0.0272 -0.0610
  762loPI    C211850   3.806  11.637   4.814 -0.0626 -0.0081 -0.2099
  762loPI    C311851   3.762  11.503   4.440  0.2716 -0.1655 -0.1965
  762loPI   PO411852   3.651  11.191   5.003 -0.1830 -0.0782  0.2308
  762loPI   GL111853   3.814  11.372   5.272  0.1402  0.1348  0.0146
  762loPI   GL211854   4.013  10.961   5.299 -0.0309 -0.2390  0.1700
  762loPI   C1A11855   3.789  11.447   5.759  0.3431  0.0628  0.0242
  762loPI   C2A11856   3.827  11.478   6.218  0.0523 -0.2261  0.4283
  762loPI   C3A11857   3.754  11.452   6.578  0.0171  0.4062  0.0096
  762loPI   C4A11858   3.692  11.549   6.987  0.1303  0.2368  0.0320
  762loPI   C5A11859   3.593  11.282   7.297 -0.2284 -0.1647  0.1139
  762loPI   C6A11860   3.559  10.823   7.273  0.0906 -0.0197 -0.0836
  762loPI   C1B11861   3.781  10.931   5.633  0.1390 -0.1965 -0.0075
  762loPI   C2B11862   3.563  11.030   5.974 -0.0116 -0.2725 -0.2501
  762loPI   C3B11863   3.572  11.047   6.368  0.2293 -0.0390 -0.0534
  762loPI   C4B11864   3.457  10.908   6.751 -0.1821 -0.2709  0.2150
  763loPI    C111865  14.812   4.463   4.689 -0.0925 -0.0694  0.0411
  763loPI    C211866  14.960   4.424   4.319  0.0923 -0.1420  0.1216
  763loPI    C311867  15.144   4.660   4.584 -0.0642 -0.0562  0.1549
  763loPI   PO411868  14.704   4.126   4.714 -0.2395 -0.1902 -0.1598
  763loPI   GL111869  14.702   4.050   5.163 -0.3498 -0.1353  0.0856
  763loPI   GL211870  14.525   4.098   5.399 -0.0713 -0.3463 -0.1150
  763loPI   C1A11871  14.797   3.593   5.490 -0.0348 -0.0023 -0.0376
  763loPI   C2A11872  14.943   3.582   5.927 -0.0006 -0.2667  0.4246
  763loPI   C3A11873  15.200   3.880   6.194  0.1457  0.0298 -0.0637
  763loPI   C4A11874  15.223   3.844   6.628 -0.0644  0.2399  0.2040
  763loPI   C5A11875  15.669   3.899   6.907 -0.3263  0.3235  0.2324
  763loPI   C6A11876  16.057   3.953   7.116  0.2645  0.0799  0.2509
  763loPI   C1B11877  14.647   3.997   5.846 -0.0871 -0.0017  0.1087
  763loPI   C2B11878  14.462   3.915   6.194 -0.0655 -0.0415  0.2987
  763loPI   C3B11879  14.369   3.784   6.574  0.1247  0.0676 -0.0658
  763loPI   C4B11880  14.298   3.459   6.809 -0.1866  0.0445 -0.2393
  764loPI    C111881  18.929   4.444   4.748 -0.0286  0.1526 -0.0087
  764loPI    C211882  18.549   4.480   4.629 -0.1347  0.0592  0.2921
  764loPI    C311883  18.847   4.533   4.367 -0.3568 -0.0212  0.0181
  764loPI   PO411884  18.853   4.186   4.940 -0.0841  0.0394 -0.2649
  764loPI   GL111885  18.920   4.174   5.369 -0.1894 -0.0968 -0.1042
  764loPI   GL211886  19.148   3.807   5.225  0.1131 -0.2811  0.3870
  764loPI   C1A11887  18.932   4.164   5.829 -0.0263 -0.1186  0.0083
  764loPI   C2A11888  18.890   4.161   6.357 -0.1482 -0.4295  0.0565
  764loPI   C3A11889  18.877   4.383   6.763  0.3097  0.1851  0.0891
  764loPI   C4A11890  18.966   4.701   7.003 -0.2245  0.2278 -0.1306
  764loPI   C5A11891  18.978   5.103   7.308  0.0088 -0.0492 -0.2860
  764loPI   C6A11892  18.960   5.481   7.338 -0.2514  0.1309  0.0234
  764loPI   C1B11893  19.271   3.767   5.606 -0.0954 -0.3447 -0.2875
  764loPI   C2B11894  19.209   3.662   6.026 -0.1620  0.0648 -0.2667
  764loPI   C3B11895  19.034   3.327   6.279 -0.1299 -0.6168 -0.1516
  764loPI   C4B11896  19.058   3.236   6.785  0.1105 -0.2050  0.0409
  765loPI    C111897  10.530  13.917   4.421  0.2433  0.0695 -0.1123
  765loPI    C211898  10.723  14.159   4.167  0.0639  0.1135 -0.2086
  765loPI    C311899  10.507  13.853   4.027 -0.0969  0.1823 -0.1132
  765loPI   PO411900  10.628  13.864   4.601 -0.2107  0.1006 -0.0316
  765loPI   GL111901  10.821  13.695   4.982  0.1099 -0.3331 -0.2058
  765loPI   GL211902  11.039  13.808   4.936 -0.1585 -0.0353 -0.1119
  765loPI   C1A11903  10.601  13.787   5.406 -0.3863 -0.0854 -0.0918
  765loPI   C2A11904  10.403  14.012   5.643  0.1656  0.0027 -0.1131
  765loPI   C3A11905  10.388  14.010   6.039  0.1166 -0.5408  0.3154
  765loPI   C4A11906  10.376  14.090   6.457  0.4857 -0.0045 -0.2182
  765loPI   C5A11907  10.240  14.023   6.905  0.0967 -0.0534 -0.1528
  765loPI   C6A11908   9.965  14.174   7.026 -0.0533 -0.2587 -0.1152
  765loPI   C1B11909  11.115  13.903   5.357  0.2900 -0.2978 -0.1183
  765loPI   C2B11910  11.149  14.249   5.683 -0.2676 -0.0278  0.1542
  765loPI   C3B11911  11.216  14.525   6.007 -0.1189  0.0565  0.0484
  765loPI   C4B11912  11.249  14.644   6.416  0.2037 -0.1233  0.1341
  766loPI    C111913   8.249  16.598   4.516  0.1603 -0.1975  0.1022
  766loPI    C211914   7.927  16.412   4.370 -0.0029 -0.1051  0.3389
  766loPI    C311915   8.201  16.562   4.121 -0.3178  0.1245  0.1238
  766loPI   PO411916   8.334  16.458   4.691  0.1287 -0.2035 -0.0991
  766loPI   GL111917   8.638  16.486   5.079 -0.4449  0.3546 -0.0249
  766loPI   GL211918   8.946  16.353   5.172  0.2404  0.0747  0.4186
  766loPI   C1A11919   8.615  16.616   5.468 -0.0975  0.0044  0.2429
  766loPI   C2A11920   8.809  17.044   5.751 -0.0465  0.0264  0.2173
  766loPI   C3A11921   9.157  17.285   5.644  0.1489 -0.2309 -0.2280
  766loPI   C4A11922   9.373  17.345   5.399 -0.0953 -0.1141 -0.0308
  766loPI   C5A11923   9.519  17.003   5.217  0.0993 -0.3845 -0.1360
  766loPI   C6A11924   9.563  16.543   5.130 -0.3067  0.0856  0.0208
  766loPI   C1B11925   9.301  16.271   5.468 -0.0563  0.0249  0.2160
  766loPI   C2B11926   9.513  16.234   5.913  0.3141 -0.2130  0.0592
  766loPI   C3B11927   9.321  16.396   6.247 -0.0160 -0.1635 -0.1317
  766loPI   C4B11928   8.996  16.407   6.554  0.3167 -0.0943  0.0763
  767loPI    C111929  14.902  12.160   4.044  0.1062  0.2118  0.0470
  767loPI    C211930  14.560  12.093   3.848  0.0250  0.0166  0.2510
  767loPI    C311931  14.838  12.332   3.689  0.1334 -0.4513 -0.2940
  767loPI   PO411932  14.884  12.241   4.303  0.0229 -0.1580  0.2373
  767loPI   GL111933  14.960  12.327   4.780  0.0447  0.0074 -0.0098
  767loPI   GL211934  15.055  12.544   4.682 -0.2218 -0.0214 -0.2023
  767loPI   C1A11935  15.033  12.112   5.149 -0.0131  0.0183 -0.3150
  767loPI   C2A11936  15.158  12.040   5.595  0.0327 -0.2297 -0.3492
  767loPI   C3A11937  15.162  11.701   5.938  0.2110 -0.0105  0.0012
  767loPI   C4A11938  15.176  11.783   6.467 -0.1799 -0.2435 -0.1097
  767loPI   C5A11939  15.449  11.880   6.785  0.3326 -0.2376 -0.0317
  767loPI   C6A11940  15.503  12.369   6.928 -0.0719  0.2504  0.1764
  767loPI   C1B11941  15.444  12.423   4.911 -0.1876  0.0798  0.3608
  767loPI   C2B11942  15.513  12.165   5.227 -0.1633 -0.1684 -0.0776
  767loPI   C3B11943  15.613  12.266   5.634  0.1808  0.0758 -0.0454
  767loPI   C4B11944  15.548  12.017   5.923 -0.1047  0.0459  0.0641
  768loPI    C111945  11.202  16.438   4.594 -0.0436  0.0618 -0.0987
  768loPI    C211946  10.854  16.447   4.791  0.2544  0.1960  0.4426
  768loPI    C311947  10.972  16.111   4.608 -0.2244  0.1959  0.1172
  768loPI   PO411948  11.475  16.439   4.846  0.1340 -0.0617  0.0772
  768loPI   GL111949  11.694  16.438   5.231  0.0469 -0.0237  0.0921
  768loPI   GL211950  11.418  16.750   5.291  0.1721 -0.0403  0.1748
  768loPI   C1A11951  11.553  16.299   5.613  0.0891 -0.1127 -0.0184
  768loPI   C2A11952  11.478  16.438   6.036  0.0735 -0.4081  0.1937
  768loPI   C3A11953  11.504  16.477   6.523 -0.0899  0.2867 -0.3216
  768loPI   C4A11954  11.350  16.704   6.994 -0.1646  0.0320 -0.4004
  768loPI   C5A11955  10.950  16.731   6.998 -0.3177 -0.1503 -0.2148
  768loPI   C6A11956  10.600  17.080   6.746  0.0647 -0.2288 -0.0809
  768loPI   C1B11957  11.638  16.779   5.628  0.1498 -0.3510 -0.0040
  768loPI   C2B11958  11.732  16.869   6.079  0.2027  0.2313 -0.0329
  768loPI   C3B11959  11.614  17.059   6.483  0.0941  0.3152 -0.0989
  768loPI   C4B11960  11.586  17.174   6.922  0.1101  0.0645 -0.1380
  769loPI    C111961   2.153  15.527   4.372  0.2927 -0.0066 -0.1380
  769loPI    C211962   1.824  15.450   4.586  0.3565  0.1925  0.0356
  769loPI    C311963   1.800  15.488   4.188  0.2324 -0.1538  0.0067
  769loPI   PO411964   2.294  15.634   4.465 -0.1303  0.1260 -0.1401
  769loPI   GL111965   2.489  15.456   4.810 -0.0506  0.2555 -0.1253
  769loPI   GL211966   2.187  15.565   4.958  0.0952 -0.3256  0.1724
  769loPI   C1A11967   2.601  15.179   5.200 -0.1018 -0.0620  0.1635
  769loPI   C2A11968   2.663  15.115   5.651  0.1499  0.1884  0.2499
  769loPI   C3A11969   2.610  15.189   6.095  0.2664 -0.2960 -0.1613
  769loPI   C4A11970   2.880  15.322   6.437  0.0877 -0.1853 -0.0103
  769loPI   C5A11971   2.756  15.300   6.887 -0.1947 -0.0139 -0.1235
  769loPI   C6A11972   2.341  15.140   6.984  0.1274  0.1468 -0.2243
  769loPI   C1B11973   2.132  15.825   5.301  0.0073  0.0529  0.2796
  769loPI   C2B11974   2.023  15.893   5.735 -0.0984  0.0681 -0.2038
  769loPI   C3B11975   1.977  16.089   6.097  0.1014 -0.3660 -0.0558
  769loPI   C4B11976   2.247  16.062   6.461  0.0965 -0.0127 -0.0104
  770loPI    C111977  14.884   5.474   5.020 -0.1038 -0.1438 -0.0685
  770loPI    C211978  14.659   5.800   5.080 -0.2866 -0.2774 -0.0194
  770loPI    C311979  14.760   5.692   4.709 -0.1668 -0.1262 -0.0315
  770loPI   PO411980  14.792   5.337   5.221  0.2015 -0.0080 -0.0005
  770loPI   GL111981  14.825   5.375   5.708 -0.0749  0.1989 -0.2122
  770loPI   GL211982  15.204   5.487   5.552 -0.0299 -0.1509  0.1412
  770loPI   C1A11983  14.660   5.438   6.136 -0.1186  0.1575 -0.4029
  770loPI   C2A11984  14.340   5.604   6.444 -0.0656  0.1206  0.2558
  770loPI   C3A11985  14.479   5.871   6.754  0.1760  0.0350 -0.2776
  770loPI   C4A11986  14.145   6.173   6.988  0.3307 -0.1965  0.0815
  770loPI   C5A11987  13.770   6.117   7.096 -0.0225 -0.1979 -0.1759
  770loPI   C6A11988  13.386   6.390   7.050  0.1422 -0.1395 -0.0225
  770loPI   C1B11989  15.266   5.305   5.957 -0.1347 -0.0816  0.0524
  770loPI   C2B11990  15.339   5.117   6.317 -0.1432 -0.0781  0.0670
  770loPI   C3B11991  15.052   4.786   6.570 -0.0611 -0.2211 -0.4008
  770loPI   C4B11992  14.892   4.471   6.681 -0.2340  0.2223 -0.0627
  771loPI    C111993  18.716  13.343   4.379  0.3971  0.2577  0.0014
  771loPI    C211994  18.647  13.166   4.027 -0.0774  0.1715  0.1297
  771loPI    C311995  19.023  13.224   4.152  0.0929 -0.0252 -0.2724
  771loPI   PO411996  18.569  13.242   4.576 -0.0166  0.1836 -0.1474
  771loPI   GL111997  18.230  13.169   4.936 -0.1369 -0.1198 -0.3533
  771loPI   GL211998  18.192  13.477   5.118  0.0652 -0.0366 -0.3446
  771loPI   C1A11999  18.429  12.904   5.262  0.3703  0.1526  0.0685
  771loPI   C2A12000  18.685  12.693   5.675  0.1205 -0.0901  0.2076
  771loPI   C3A12001  18.985  12.613   5.922  0.1659  0.1902 -0.2564
  771loPI   C4A12002  19.357  12.489   5.989 -0.0285 -0.0989  0.0713
  771loPI   C5A12003  19.517  12.248   6.273 -0.0296  0.0177  0.0526
  771loPI   C6A12004  19.858  11.986   6.279  0.3368  0.0892 -0.1362
  771loPI   C1B12005  18.352  13.383   5.403 -0.1659 -0.0862  0.0039
  771loPI   C2B12006  18.429  13.138   5.734 -0.1891 -0.0266 -0.4480
  771loPI   C3B12007  18.650  12.960   6.070  0.1043 -0.0163  0.1038
  771loPI   C4B12008  18.723  12.722   6.473 -0.0229 -0.0608  0.1347
  772loPI    C112009  19.464  11.777   4.501 -0.0622  0.0008  0.1822
  772loPI    C212010  19.493  11.860   4.111  0.1039  0.0503  0.2042
  772loPI    C312011  19.733  11.585   4.275 -0.2254 -0.2498  0.1961
  772loPI   PO412012  19.266  11.587   4.600 -0.1554 -0.0675 -0.0236
  772loPI   GL112013  19.288  11.374   4.949 -0.2047 -0.0860  0.1635
  772loPI   GL212014  18.898  11.468   4.960  0.2661  0.0785  0.2853
  772loPI   C1A12015  19.222  11.331   5.392  0.2614  0.3117 -0.1794
  772loPI   C2A12016  19.140  11.427   5.839  0.2483  0.2163 -0.1733
  772loPI   C3A12017  18.860  11.501   6.299  0.0749  0.0647  0.1438
  772loPI   C4A12018  18.561  11.327   6.628 -0.0598  0.0674  0.1471
  772loPI   C5A12019  18.212  11.568   6.849 -0.1079 -0.2763  0.2345
  772loPI   C6A12020  17.888  11.694   7.242 -0.0948 -0.1502 -0.2697
  772loPI   C1B12021  18.845  11.150   5.134 -0.1278  0.0378  0.2802
  772loPI   C2B12022  18.682  11.104   5.600 -0.0458 -0.2641  0.0186
  772loPI   C3B12023  18.739  11.026   5.964 -0.3210  0.0025 -0.0386
  772loPI   C4B12024  18.724  10.909   6.333 -0.3204  0.4226  0.1508
  773loPI    C112025  18.182   1.565   4.684  0.1437  0.3006 -0.0573
  773loPI    C212026  18.211   1.272   4.414  0.0706  0.0095  0.2443
  773loPI    C312027  17.995   1.598   4.331  0.1386 -0.0257 -0.0882
  773loPI   PO412028  18.136   1.400   4.879 -0.1939 -0.3362 -0.1731
  773loPI   GL112029  18.042   1.532   5.179 -0.2257 -0.1348  0.1389
  773loPI   GL212030  17.793   1.735   5.313 -0.0650 -0.0369  0.2196
  773loPI   C1A12031  18.106   1.318   5.546 -0.2345  0.0940 -0.0358
  773loPI   C2A12032  18.351   1.267   6.006 -0.3081  0.1181  0.1872
  773loPI   C3A12033  18.350   1.164   6.454 -0.1160  0.3071  0.1432
  773loPI   C4A12034  18.313   1.220   6.863  0.1269 -0.2783  0.2354
  773loPI   C5A12035  18.115   1.362   7.102 -0.0711 -0.0552 -0.1442
  773loPI   C6A12036  17.997   1.638   7.356  0.1513 -0.1464 -0.3245
  773loPI   C1B12037  17.859   1.778   5.702 -0.4538 -0.2248  0.1153
  773loPI   C2B12038  17.884   1.976   6.112  0.1373  0.1126 -0.0267
  773loPI   C3B12039  17.986   2.090   6.473  0.2027 -0.2276  0.0882
  773loPI   C4B12040  17.961   2.292   6.822 -0.0132 -0.0567  0.3216
  774loPI    C112041   2.376  11.314   4.604  0.0359  0.0751  0.0434
  774loPI    C212042   2.081  11.243   4.343 -0.0446 -0.1535  0.1935
  774loPI    C312043   2.448  11.098   4.275  0.0583  0.2019 -0.0356
  774loPI   PO412044   2.266  11.498   4.741  0.0907  0.0470 -0.0922
  774loPI   GL112045   2.157  11.547   5.081 -0.0341 -0.2332  0.0846
  774loPI   GL212046   1.786  11.712   5.116  0.2034  0.0127  0.2363
  774loPI   C1A12047   2.130  11.529   5.507 -0.0484 -0.1534  0.0744
  774loPI   C2A12048   2.179  11.479   5.849 -0.0089  0.1648  0.3368
  774loPI   C3A12049   2.322  11.452   6.206  0.0702 -0.0715 -0.1757
  774loPI   C4A12050   2.514  11.667   6.585 -0.0321 -0.1096  0.1572
  774loPI   C5A12051   2.694  11.655   6.924 -0.0690  0.0416 -0.2664
  774loPI   C6A12052   2.690  11.396   7.273  0.1676 -0.2284 -0.2548
  774loPI   C1B12053   1.704  11.735   5.644  0.4856  0.1988  0.3346
  774loPI   C2B12054   1.747  11.631   6.054  0.1026  0.2178 -0.5006
  774loPI   C3B12055   1.555  11.798   6.450 -0.1958 -0.1876 -0.1798
  774loPI   C4B12056   1.536  11.972   6.854  0.0607  0.2661  0.0363
  775loPI    C112057  10.295  15.416   4.726 -0.1952 -0.1509 -0.0161
  775loPI    C212058  10.200  15.776   4.874 -0.1852 -0.1938  0.0955
  775loPI    C312059  10.005  15.633   4.556 -0.0903 -0.0272 -0.0392
  775loPI   PO412060  10.368  15.273   4.990 -0.2516 -0.2243  0.2207
  775loPI   GL112061  10.121  15.126   5.223 -0.0361  0.3964 -0.3302
  775loPI   GL212062  10.136  15.474   5.350 -0.1350  0.0951  0.0946
  775loPI   C1A12063   9.928  14.850   5.524  0.0062  0.1144 -0.2932
  775loPI   C2A12064   9.910  14.833   6.019  0.0378  0.1626 -0.2551
  775loPI   C3A12065   9.860  14.811   6.486 -0.1629 -0.0175 -0.0385
  775loPI   C4A12066   9.851  15.100   6.874  0.1654  0.1151  0.0433
  775loPI   C5A12067   9.514  15.119   7.210  0.3947  0.1609  0.2273
  775loPI   C6A12068   9.105  15.295   7.311 -0.1735 -0.0534  0.0106
  775loPI   C1B12069  10.277  15.236   5.800 -0.1067  0.1752  0.2160
  775loPI   C2B12070  10.390  14.936   6.170 -0.4050  0.1663 -0.1941
  775loPI   C3B12071  10.299  14.607   6.415 -0.0562 -0.0500  0.3372
  775loPI   C4B12072  10.563  14.511   6.839 -0.0577 -0.1214  0.0676
  776loPI    C112073  15.596  19.208   4.825 -0.1580 -0.0964 -0.0679
  776loPI    C212074  15.408  19.492   4.614 -0.0173 -0.0051 -0.0719
  776loPI    C312075  15.479  19.134   4.450  0.1431  0.0849 -0.2012
  776loPI   PO412076  15.721  19.351   4.938  0.3168  0.2230  0.0299
  776loPI   GL112077  15.878  19.445   5.470  0.0291  0.1662  0.2185
  776loPI   GL212078  15.698  19.568   5.559  0.1854 -0.1723 -0.1502
  776loPI   C1A12079  16.113  19.593   5.838  0.2206 -0.1992  0.2615
  776loPI   C2A12080  16.387  19.639   6.204  0.0935 -0.2554  0.2318
  776loPI   C3A12081  16.134  19.499   6.444  0.2537 -0.0406  0.2222
  776loPI   C4A12082  16.042  19.463   6.927 -0.0039  0.1250 -0.1100
  776loPI   C5A12083  16.153  19.613   7.399  0.0178 -0.1987 -0.1178
  776loPI   C6A12084  16.378  19.547   7.754  0.0968 -0.0095 -0.3896
  776loPI   C1B12085  15.657  19.626   5.934 -0.0991 -0.2684 -0.3495
  776loPI   C2B12086  15.344  19.750   6.135  0.2075 -0.0344 -0.1262
  776loPI   C3B12087  15.391  19.948   6.555 -0.1945  0.4986 -0.0236
  776loPI   C4B12088  15.413  19.925   7.099 -0.0070  0.0059  0.1043
  777loPI    C112089   0.568  17.704   4.741 -0.0978 -0.0462  0.0681
  777loPI    C212090   0.171  17.652   4.733 -0.1358  0.2454 -0.0862
  777loPI    C312091   0.356  17.825   4.424  0.1732 -0.2859 -0.2105
  777loPI   PO412092   0.595  17.669   5.043 -0.0338  0.2139 -0.3963
  777loPI   GL112093   0.424  17.931   5.405 -0.2743 -0.2525 -0.1410
  777loPI   GL212094   0.684  17.755   5.630 -0.3254 -0.0408 -0.0335
  777loPI   C1A12095   0.724  18.201   5.734  0.0991 -0.2265  0.2170
  777loPI   C2A12096   0.858  18.498   5.996  0.1182  0.2666  0.2275
  777loPI   C3A12097   0.668  18.502   6.443  0.2633 -0.3143  0.1421
  777loPI   C4A12098   0.836  18.509   6.885 -0.0397  0.1601  0.1006
  777loPI   C5A12099   0.804  18.660   7.369  0.2459  0.1836 -0.1629
  777loPI   C6A12100   0.797  19.055   7.423 -0.2176  0.0724 -0.1007
  777loPI   C1B12101   0.820  17.746   6.043 -0.1071 -0.2323  0.0274
  777loPI   C2B12102   0.918  18.049   6.366 -0.0149  0.1350  0.3328
  777loPI   C3B12103   0.907  17.987   6.805 -0.0723 -0.0278 -0.1378
  777loPI   C4B12104   1.174  17.947   7.046  0.0815  0.3312 -0.3110
  778loPI    C112105   8.148   6.015   4.840  0.0335 -0.1534 -0.0505
  778loPI    C212106   8.116   6.381   4.681 -0.1075 -0.1324  0.0249
  778loPI    C312107   8.278   6.084   4.468 -0.1715 -0.0724 -0.1086
  778loPI   PO412108   8.214   6.048   5.088 -0.2555  0.0023  0.1550
  778loPI   GL112109   8.170   5.752   5.447  0.0335  0.0594  0.2576
  778loPI   GL212110   8.183   5.930   5.651 -0.0605 -0.2876 -0.0136
  778loPI   C1A12111   7.698   5.740   5.568  0.0824 -0.0772 -0.0879
  778loPI   C2A12112   7.686   5.886   6.029 -0.0461 -0.1654  0.3220
  778loPI   C3A12113   7.732   5.994   6.407  0.0501 -0.1066 -0.2574
  778loPI   C4A12114   7.663   5.945   6.887  0.1863  0.0024  0.1115
  778loPI   C5A12115   7.356   5.815   7.217 -0.0706  0.1400  0.2825
  778loPI   C6A12116   7.181   5.762   7.640 -0.1572 -0.1989  0.2038
  778loPI   C1B12117   8.141   5.755   5.993  0.0765 -0.3230  0.1344
  778loPI   C2B12118   8.425   5.759   6.388  0.4872  0.1853 -0.1218
  778loPI   C3B12119   8.715   5.438   6.541  0.2248  0.0302 -0.0763
  778loPI   C4B12120   8.859   5.199   6.876 -0.1590  0.1687  0.0456
  779loPI    C112121   3.764   7.645   4.921  0.0287  0.1633 -0.0781
  779loPI    C212122   3.705   7.955   4.676 -0.0707  0.1374 -0.0873
  779loPI    C312123   3.393   7.775   4.850 -0.0220 -0.0256 -0.1664
  779loPI   PO412124   3.953   7.773   5.093 -0.2091 -0.1569  0.0469
  779loPI   GL112125   4.113   7.612   5.470  0.1072 -0.1952  0.1089
  779loPI   GL212126   4.302   7.441   5.334  0.1517  0.0183  0.0458
  779loPI   C1A12127   4.260   7.723   5.875  0.1789 -0.4270  0.4940
  779loPI   C2A12128   4.483   7.911   6.246  0.1565  0.0146  0.1038
  779loPI   C3A12129   4.725   8.027   6.626  0.0799  0.0905  0.0118
  779loPI   C4A12130   4.930   8.352   6.915  0.1532  0.0722 -0.1524
  779loPI   C5A12131   5.051   8.490   7.354 -0.0289  0.0477  0.0158
  779loPI   C6A12132   5.190   8.363   7.776 -0.0866 -0.0096  0.4731
  779loPI   C1B12133   4.593   7.370   5.646  0.0991  0.0041  0.0266
  779loPI   C2B12134   4.657   7.137   5.982 -0.2067 -0.3114 -0.0832
  779loPI   C3B12135   4.698   6.932   6.363  0.0304  0.0949  0.1713
  779loPI   C4B12136   4.815   7.099   6.750 -0.1290 -0.2871  0.4089
  780loPI    C112137  12.447  11.753   4.332 -0.2569 -0.0262  0.0043
  780loPI    C212138  12.222  11.441   4.441  0.1972 -0.2400  0.3688
  780loPI    C312139  12.527  11.389   4.187 -0.2316  0.0736 -0.2378
  780loPI   PO412140  12.486  11.896   4.619  0.3819  0.0542 -0.0409
  780loPI   GL112141  12.533  12.364   4.950 -0.1335  0.0748 -0.0315
  780loPI   GL212142  12.653  12.629   4.951  0.0004 -0.0552 -0.1942
  780loPI   C1A12143  12.618  12.051   5.288 -0.2623  0.1046  0.2121
  780loPI   C2A12144  12.944  12.094   5.605  0.3277  0.2071 -0.3109
  780loPI   C3A12145  12.949  12.479   5.851  0.2051 -0.0556  0.0832
  780loPI   C4A12146  12.978  12.795   6.259 -0.1240  0.3236 -0.1600
  780loPI   C5A12147  13.085  13.173   6.386 -0.0260 -0.1043 -0.1239
  780loPI   C6A12148  13.116  13.430   6.730 -0.1206  0.1915 -0.1466
  780loPI   C1B12149  12.332  12.562   5.337  0.1516 -0.0950  0.3944
  780loPI   C2B12150  12.491  12.379   5.706  0.1592  0.0633 -0.0754
  780loPI   C3B12151  12.415  12.521   6.172  0.1478  0.0474 -0.1540
  780loPI   C4B12152  12.190  12.331   6.562 -0.3492 -0.1994  0.2374
  781loPI    C112153  15.689   5.755   4.737  0.2375 -0.3016  0.3273
  781loPI    C212154  16.078   5.697   4.670  0.1492 -0.2142 -0.3173
  781loPI    C312155  15.806   5.518   4.438 -0.1997 -0.2586  0.1136
  781loPI   PO412156  15.695   5.902   4.938  0.3525  0.5968 -0.2796
  781loPI   GL112157  15.767   6.031   5.405 -0.0762 -0.0583 -0.1530
  781loPI   GL212158  15.485   5.885   5.389 -0.1108 -0.4475 -0.0298
  781loPI   C1A12159  15.894   6.299   5.698  0.2226 -0.0246 -0.2830
  781loPI   C2A12160  15.877   6.295   6.046 -0.1890  0.1064  0.2743
  781loPI   C3A12161  15.943   6.237   6.492  0.1532  0.0851 -0.3549
  781loPI   C4A12162  15.970   5.910   6.920 -0.0981 -0.1914  0.1648
  781loPI   C5A12163  15.926   5.830   7.258  0.0042 -0.0631 -0.0464
  781loPI   C6A12164  16.216   5.582   7.498  0.1597 -0.1888 -0.0020
  781loPI   C1B12165  15.486   5.995   5.860 -0.1966  0.0040  0.0657
  781loPI   C2B12166  15.465   5.935   6.283  0.0280  0.0340 -0.2131
  781loPI   C3B12167  15.448   6.051   6.733 -0.0007  0.0848 -0.2074
  781loPI   C4B12168  15.455   5.880   7.169  0.0968 -0.1105 -0.2426
  782loPI    C112169  18.040   3.735   5.091 -0.1645 -0.2733 -0.0645
  782loPI    C212170  18.276   3.433   5.206  0.1700  0.0415  0.0958
  782loPI    C312171  18.333   3.607   4.851  0.0495 -0.0088  0.0511
  782loPI   PO412172  17.842   3.695   5.219  0.0885 -0.1094  0.2112
  782loPI   GL112173  17.773   3.722   5.568 -0.0683  0.1171 -0.0777
  782loPI   GL212174  17.881   3.317   5.547 -0.0799 -0.2220  0.0044
  782loPI   C1A12175  17.521   3.740   5.776 -0.0726 -0.0815 -0.1225
  782loPI   C2A12176  17.370   3.578   6.098 -0.1175  0.1569 -0.2837
  782loPI   C3A12177  17.123   3.595   6.344  0.0689  0.1034  0.0690
  782loPI   C4A12178  17.018   3.516   6.723  0.3739  0.1988 -0.3868
  782loPI   C5A12179  16.877   3.623   7.142  0.1487  0.0802 -0.0635
  782loPI   C6A12180  16.973   3.934   7.374  0.1768  0.0184 -0.0225
  782loPI   C1B12181  17.689   3.202   6.016  0.1507  0.2914  0.3441
  782loPI   C2B12182  17.650   3.404   6.474  0.0943 -0.0665  0.1872
  782loPI   C3B12183  17.478   3.666   6.709 -0.1902 -0.1281 -0.1691
  782loPI   C4B12184  17.484   3.639   7.233  0.3099 -0.3583  0.1897
  783loPI    C112185  14.925   0.891   4.910 -0.2665 -0.0272 -0.0775
  783loPI    C212186  14.668   0.614   4.780 -0.3849  0.0231  0.0467
  783loPI    C312187  15.019   0.663   4.595 -0.4752 -0.0276 -0.1412
  783loPI   PO412188  14.760   0.922   5.195 -0.1281 -0.1284  0.2093
  783loPI   GL112189  14.421   0.894   5.476  0.1922  0.0790 -0.1164
  783loPI   GL212190  14.576   1.237   5.482  0.3097 -0.2187  0.1111
  783loPI   C1A12191  14.372   0.968   5.832 -0.2728 -0.0668 -0.0696
  783loPI   C2A12192  14.300   1.215   6.104 -0.0817 -0.0955 -0.1835
  783loPI   C3A12193  14.379   1.206   6.556  0.2240  0.3168 -0.0201
  783loPI   C4A12194  14.376   1.109   6.998 -0.0668  0.2221  0.0422
  783loPI   C5A12195  14.141   0.903   7.374  0.0339  0.0336 -0.2173
  783loPI   C6A12196  14.095   0.629   7.679 -0.2909 -0.1222 -0.1564
  783loPI   C1B12197  14.793   1.305   5.840 -0.1513  0.0161 -0.1936
  783loPI   C2B12198  14.775   1.185   6.285 -0.2734  0.0963  0.3434
  783loPI   C3B12199  14.952   1.129   6.816  0.0695 -0.0289  0.1671
  783loPI   C4B12200  15.084   1.059   7.207 -0.1295 -0.0206 -0.0327
  784loPI    C112201  15.574  10.388   4.371  0.1909 -0.0091 -0.0174
  784loPI    C212202  15.184  10.353   4.289  0.1357  0.0462  0.2139
  784loPI    C312203  15.402  10.633   4.105  0.1043 -0.0902 -0.0371
  784loPI   PO412204  15.542  10.471   4.662 -0.0158  0.0135  0.2074
  784loPI   GL112205  15.529  10.451   5.090 -0.3333  0.0323  0.1676
  784loPI   GL212206  15.841  10.286   5.027 -0.1449  0.0513  0.0551
  784loPI   C1A12207  15.130  10.391   5.310  0.0628  0.2377 -0.2263
  784loPI   C2A12208  15.016  10.315   5.759 -0.1015  0.0005 -0.1588
  784loPI   C3A12209  14.744  10.494   6.014  0.0842 -0.2265 -0.0847
  784loPI   C4A12210  14.859  10.708   6.432 -0.0548  0.2224 -0.2170
  784loPI   C5A12211  15.283  10.869   6.551  0.0039 -0.0899  0.0808
  784loPI   C6A12212  15.629  10.868   6.405 -0.0812  0.0340 -0.1674
  784loPI   C1B12213  15.861  10.499   5.394 -0.0162  0.0359  0.1178
  784loPI   C2B12214  16.037  10.926   5.512 -0.3587  0.2399  0.3453
  784loPI   C3B12215  16.486  11.070   5.656  0.0458  0.0707 -0.0805
  784loPI   C4B12216  16.600  11.197   5.909 -0.1457  0.2227  0.0416
  785loPI    C112217  10.055  13.591   3.956  0.2106  0.0262  0.0046
  785loPI    C212218   9.982  13.936   3.767 -0.0698 -0.0416 -0.0146
  785loPI    C312219   9.704  13.648   3.774  0.1416 -0.2477  0.0474
  785loPI   PO412220  10.048  13.604   4.247  0.1646 -0.0122 -0.0110
  785loPI   GL112221   9.895  13.449   4.613 -0.2105  0.1400  0.0324
  785loPI   GL212222  10.309  13.427   4.673  0.2961  0.1622  0.0490
  785loPI   C1A12223   9.811  13.120   5.012 -0.2608  0.0397 -0.0253
  785loPI   C2A12224   9.852  13.322   5.493  0.0633  0.0041  0.0383
  785loPI   C3A12225   9.811  13.231   6.024  0.1354 -0.0311 -0.0995
  785loPI   C4A12226   9.994  13.379   6.459  0.1224  0.0314 -0.1224
  785loPI   C5A12227  10.077  13.185   6.874  0.0356 -0.2121  0.1132
  785loPI   C6A12228   9.901  12.959   7.241  0.0059 -0.1113 -0.0008
  785loPI   C1B12229  10.209  13.449   5.127  0.0382  0.1376 -0.0843
  785loPI   C2B12230  10.319  13.484   5.679 -0.0290  0.1104 -0.0860
  785loPI   C3B12231  10.545  13.545   6.095  0.2750  0.1945 -0.3345
  785loPI   C4B12232  10.450  13.613   6.560 -0.1951 -0.0861 -0.1670
  786loPI    C112233  19.098   3.588   4.664  0.0110 -0.1626 -0.0856
  786loPI    C212234  19.411   3.396   4.823  0.1572  0.2380  0.1237
  786loPI    C312235  19.465   3.742   4.629 -0.0716 -0.0415 -0.4640
  786loPI   PO412236  18.932   3.732   4.788 -0.1812 -0.1077 -0.1413
  786loPI   GL112237  18.640   3.762   5.186 -0.0601  0.2907  0.0757
  786loPI   GL212238  18.451   4.009   5.313 -0.0011  0.0667  0.1353
  786loPI   C1A12239  18.804   3.663   5.581 -0.2731 -0.0399 -0.0648
  786loPI   C2A12240  18.722   3.694   6.011 -0.1597 -0.0454  0.1336
  786loPI   C3A12241  18.721   3.718   6.491  0.0861 -0.2561  0.2168
  786loPI   C4A12242  18.393   3.789   6.755  0.0266  0.1196 -0.1092
  786loPI   C5A12243  18.332   3.720   7.115 -0.0447 -0.1977 -0.2320
  786loPI   C6A12244  18.718   3.849   7.476  0.0995 -0.1065  0.0356
  786loPI   C1B12245  18.228   3.779   5.670 -0.3055  0.0853  0.2744
  786loPI   C2B12246  18.112   3.556   5.946  0.1977  0.2111  0.2032
  786loPI   C3B12247  18.183   3.627   6.316  0.2016 -0.1687  0.1658
  786loPI   C4B12248  18.115   3.315   6.694 -0.2241  0.1432  0.1005
  787loPI    C112249   1.692   4.213   4.851 -0.0887  0.4268  0.1017
  787loPI    C212250   1.921   4.101   5.159 -0.0938  0.0760 -0.0170
  787loPI    C312251   2.079   4.315   4.860  0.0695 -0.1226 -0.0752
  787loPI   PO412252   1.378   4.069   4.933  0.0734  0.0930 -0.1300
  787loPI   GL112253   1.180   4.067   5.264 -0.0817  0.1262  0.1563
  787loPI   GL212254   1.380   4.251   5.357  0.2598 -0.0053 -0.1352
  787loPI   C1A12255   1.049   4.167   5.632 -0.3176 -0.1300  0.0040
  787loPI   C2A12256   0.817   4.417   5.984 -0.3671 -0.0778 -0.0028
  787loPI   C3A12257   0.831   4.771   6.146 -0.3210  0.2474  0.1613
  787loPI   C4A12258   1.180   4.983   6.390  0.0160 -0.1018 -0.3151
  787loPI   C5A12259   1.137   5.249   6.695  0.0017 -0.0481  0.0994
  787loPI   C6A12260   1.139   5.462   7.070 -0.1385  0.2353  0.2349
  787loPI   C1B12261   1.551   4.219   5.739 -0.0311 -0.0413 -0.2993
  787loPI   C2B12262   1.608   4.041   6.115  0.1066 -0.1856  0.1649
  787loPI   C3B12263   1.610   4.082   6.538 -0.1079 -0.0284 -0.1504
  787loPI   C4B12264   1.322   4.054   6.860  0.0634  0.0679  0.1307
  788loPI    C112265   6.665  16.444   4.496  0.3703 -0.2010  0.0357
  788loPI    C212266   6.914  16.747   4.417  0.1040  0.0127 -0.0004
  788loPI    C312267   6.645  16.633   4.144 -0.1158  0.0597  0.1935
  788loPI   PO412268   6.640  16.428   4.801  0.2165  0.1369 -0.2440
  788loPI   GL112269   6.536  16.675   5.261 -0.3621 -0.0222 -0.0242
  788loPI   GL212270   6.360  16.343   5.274 -0.0960  0.0053 -0.1124
  788loPI   C1A12271   6.701  16.652   5.680 -0.2968  0.0872 -0.0361
  788loPI   C2A12272   6.880  16.811   6.054 -0.1707  0.0230  0.3829
  788loPI   C3A12273   6.972  16.859   6.519  0.2732 -0.1274 -0.0102
  788loPI   C4A12274   7.198  16.590   7.011  0.2391 -0.1843  0.1335
  788loPI   C5A12275   7.451  16.423   7.325 -0.1958 -0.1613 -0.0070
  788loPI   C6A12276   7.658  16.458   7.747  0.1369 -0.0584  0.0139
  788loPI   C1B12277   6.268  16.336   5.804 -0.0384  0.2077  0.1442
  788loPI   C2B12278   6.202  16.440   6.348  0.0326  0.2342  0.0645
  788loPI   C3B12279   6.287  16.157   6.724 -0.2111  0.0722  0.3996
  788loPI   C4B12280   6.218  16.219   7.042  0.2862  0.0538 -0.0427
  789loPI    C112281  15.528   1.870   5.039 -0.0056  0.1600 -0.0496
  789loPI    C212282  15.445   1.481   4.994 -0.0575  0.1199  0.3604
  789loPI    C312283  15.488   1.715   4.672 -0.1755 -0.1919  0.1134
  789loPI   PO412284  15.785   1.867   5.272 -0.0659  0.0437  0.2412
  789loPI   GL112285  15.960   1.717   5.654 -0.1247  0.0242  0.2983
  789loPI   GL212286  16.070   1.476   5.528  0.0334  0.1269  0.1532
  789loPI   C1A12287  15.951   1.980   6.090  0.1062  0.0856 -0.0816
  789loPI   C2A12288  16.129   2.234   6.447 -0.0562  0.1363 -0.4195
  789loPI   C3A12289  16.119   2.012   6.863  0.1453  0.1003  0.0757
  789loPI   C4A12290  16.175   1.616   7.011 -0.2725 -0.3500  0.0869
  789loPI   C5A12291  16.032   1.214   6.916 -0.1458 -0.0310  0.0724
  789loPI   C6A12292  15.840   0.845   6.943  0.2544 -0.0179 -0.6452
  789loPI   C1B12293  16.159   1.465   5.972  0.2272  0.1997 -0.1764
  789loPI   C2B12294  16.483   1.332   6.340 -0.0297 -0.0152 -0.3180
  789loPI   C3B12295  16.609   1.288   6.823  0.3242  0.1211 -0.2727
  789loPI   C4B12296  16.515   1.304   7.190  0.3302  0.0379  0.0826
  790loPI    C112297   2.309   0.811   4.822 -0.1782 -0.0829 -0.0681
  790loPI    C212298   2.583   0.889   4.542  0.0586 -0.0996  0.1553
  790loPI    C312299   2.273   1.136   4.592  0.1316  0.0201  0.0242
  790loPI   PO412300   2.278   0.468   4.801  0.2021  0.0171  0.1919
  790loPI   GL112301   1.967   0.205   4.956  0.3673  0.1372 -0.0506
  790loPI   GL212302   1.814   0.454   5.015 -0.2615 -0.2270  0.1546
  790loPI   C1A12303   2.125   0.034   5.394 -0.1339  0.0574  0.1838
  790loPI   C2A12304   2.111  -0.076   5.833  0.0875  0.1338  0.0628
  790loPI   C3A12305   2.124  -0.084   6.243  0.0946 -0.1898  0.3895
  790loPI   C4A12306   2.121  -0.235   6.580  0.1574  0.3263 -0.1904
  790loPI   C5A12307   2.078  -0.381   6.884  0.0961  0.3978 -0.0067
  790loPI   C6A12308   2.394  -0.562   7.017  0.1376  0.2471  0.1695
  790loPI   C1B12309   1.805   0.426   5.423 -0.2539 -0.1905 -0.4077
  790loPI   C2B12310   1.990   0.854   5.650  0.0458  0.2101 -0.0799
  790loPI   C3B12311   2.275   0.965   6.008 -0.1623 -0.2303  0.3794
  790loPI   C4B12312   2.704   1.160   5.880 -0.0555 -0.1081 -0.1392
  791loPI    C112313  18.187  17.567   4.516  0.0198  0.0125  0.0220
  791loPI    C212314  18.077  17.650   4.140  0.0538 -0.1331 -0.0207
  791loPI    C312315  18.366  17.381   4.210  0.0929 -0.0588  0.1074
  791loPI   PO412316  17.908  17.698   4.646 -0.2211 -0.1580 -0.3721
  791loPI   GL112317  17.812  17.705   5.090 -0.1393  0.0861 -0.0187
  791loPI   GL212318  17.533  17.781   5.130 -0.1310 -0.0485 -0.0017
  791loPI   C1A12319  17.878  17.772   5.592  0.1175  0.2249  0.0036
  791loPI   C2A12320  18.090  17.620   5.969  0.0319 -0.2414 -0.3081
  791loPI   C3A12321  18.425  17.656   6.260 -0.0325 -0.0557  0.3378
  791loPI   C4A12322  18.507  17.521   6.701  0.0872 -0.1509  0.3578
  791loPI   C5A12323  18.644  17.566   7.026 -0.1456 -0.1676  0.2661
  791loPI   C6A12324  18.992  17.705   7.198 -0.1809 -0.4787  0.0503
  791loPI   C1B12325  17.437  18.040   5.430 -0.0778  0.3800  0.0465
  791loPI   C2B12326  17.358  18.422   5.562  0.1062  0.0997 -0.2513
  791loPI   C3B12327  17.297  18.547   5.937 -0.1923 -0.1748  0.0258
  791loPI   C4B12328  17.473  18.885   6.197 -0.1680 -0.2963 -0.0658
  792loPI    C112329   0.616  14.305   3.973  0.1629 -0.1586 -0.1895
  792loPI    C212330   0.899  14.567   4.079  0.0176 -0.0175 -0.1460
  792loPI    C312331   1.001  14.224   3.901  0.2380 -0.0969  0.1248
  792loPI   PO412332   0.494  14.335   4.272 -0.0018  0.2671  0.3075
  792loPI   GL112333   0.748  14.223   4.646  0.0401  0.1468  0.1469
  792loPI   GL212334   0.539  14.553   4.657 -0.0408 -0.2016 -0.0669
  792loPI   C1A12335   0.431  14.168   4.956 -0.5941  0.2175  0.4582
  792loPI   C2A12336   0.530  14.162   5.411 -0.1332  0.0004  0.2910
  792loPI   C3A12337   0.750  14.184   5.745 -0.3266 -0.0809 -0.2121
  792loPI   C4A12338   0.914  14.345   6.185  0.0510  0.0288  0.0157
  792loPI   C5A12339   0.701  14.301   6.662  0.0341  0.0695 -0.2301
  792loPI   C6A12340   0.528  14.169   6.976  0.0745 -0.1713 -0.1148
  792loPI   C1B12341   0.778  14.506   5.066  0.0993 -0.3665  0.3491
  792loPI   C2B12342   1.015  14.690   5.301 -0.1185  0.0132  0.1602
  792loPI   C3B12343   1.355  14.510   5.584 -0.1664 -0.1967 -0.1441
  792loPI   C4B12344   1.749  14.471   5.799  0.2614  0.0081  0.0266
  793loPI    C112345  10.601  17.690   4.450 -0.0330 -0.0549 -0.0495
  793loPI    C212346  10.233  17.598   4.322 -0.1527  0.2050  0.0996
  793loPI    C312347  10.467  17.838   4.104 -0.0533  0.0062 -0.0155
  793loPI   PO412348  10.677  17.691   4.635  0.1823 -0.1984  0.2161
  793loPI   GL112349  10.576  17.837   5.059 -0.2746 -0.1318 -0.1035
  793loPI   GL212350  10.329  17.621   5.225  0.0127  0.0479 -0.0005
  793loPI   C1A12351  10.753  18.221   5.136 -0.2386  0.1207 -0.0075
  793loPI   C2A12352  10.721  18.497   5.461 -0.3030  0.1155  0.0965
  793loPI   C3A12353  10.678  18.592   5.907 -0.0785 -0.1715 -0.1237
  793loPI   C4A12354  10.646  18.667   6.275 -0.4571  0.0784  0.1270
  793loPI   C5A12355  10.228  18.827   6.492 -0.1293 -0.0408  0.1638
  793loPI   C6A12356   9.995  18.939   6.918  0.2730  0.0958  0.1489
  793loPI   C1B12357  10.414  17.468   5.651  0.2195  0.0857 -0.1428
  793loPI   C2B12358  10.693  17.578   6.019  0.0917 -0.0207 -0.1140
  793loPI   C3B12359  10.963  17.791   6.281 -0.1979 -0.2696  0.0301
  793loPI   C4B12360  11.247  18.075   6.457  0.1193  0.1818 -0.3275
  794loPI    C112361   7.411  17.026   4.342  0.0559  0.0167 -0.2943
  794loPI    C212362   7.634  17.279   4.557 -0.0760  0.0893 -0.2420
  794loPI    C312363   7.462  17.402   4.217 -0.0179  0.0269 -0.2941
  794loPI   PO412364   7.438  16.730   4.472  0.0195  0.0406  0.2096
  794loPI   GL112365   7.379  16.489   4.908  0.1025  0.0612  0.2574
  794loPI   GL212366   7.083  16.651   4.929 -0.2635  0.2989  0.3429
  794loPI   C1A12367   7.504  16.428   5.290  0.3185  0.1482 -0.1053
  794loPI   C2A12368   7.696  16.502   5.730  0.1710 -0.1355  0.2884
  794loPI   C3A12369   7.987  16.476   6.101 -0.2609  0.1607 -0.1598
  794loPI   C4A12370   7.959  16.542   6.508  0.1711 -0.3022 -0.1998
  794loPI   C5A12371   8.266  16.604   6.853  0.0985  0.0813  0.0598
  794loPI   C6A12372   8.431  16.484   7.298  0.2775 -0.1533  0.2158
  794loPI   C1B12373   7.127  16.818   5.377  0.1209 -0.1045 -0.1127
  794loPI   C2B12374   7.235  17.063   5.770 -0.2546 -0.1478  0.1182
  794loPI   C3B12375   7.322  17.166   6.241  0.0291  0.2180 -0.1444
  794loPI   C4B12376   7.591  17.234   6.563  0.4136 -0.0518 -0.1149
  795loPI    C112377   5.776   3.735   4.579  0.3383 -0.0035 -0.2389
  795loPI    C212378   5.462   3.488   4.558  0.2111  0.1341 -0.0095
  795loPI    C312379   5.488   3.800   4.309 -0.0169  0.3257  0.2017
  795loPI   PO412380   5.809   3.768   4.910 -0.0890  0.2351 -0.1022
  795loPI   GL112381   5.625   3.472   5.116  0.0995  0.2025 -0.1577
  795loPI   GL212382   5.765   3.284   5.432 -0.1336 -0.2254  0.3441
  795loPI   C1A12383   5.580   3.765   5.510  0.1194 -0.3192 -0.0151
  795loPI   C2A12384   5.822   3.786   5.864 -0.0665  0.0763 -0.2363
  795loPI   C3A12385   6.150   3.945   6.183  0.2014  0.1510 -0.0847
  795loPI   C4A12386   6.367   3.874   6.597 -0.1400  0.4164  0.1166
  795loPI   C5A12387   6.741   3.996   6.782 -0.0847  0.3330  0.0775
  795loPI   C6A12388   7.157   3.802   6.899  0.1854 -0.1619  0.1702
  795loPI   C1B12389   5.572   3.306   5.845  0.0658  0.0292 -0.1232
  795loPI   C2B12390   5.458   3.538   6.180 -0.3516 -0.0390  0.0009
  795loPI   C3B12391   5.687   3.868   6.408  0.1777  0.2312  0.0383
  795loPI   C4B12392   5.902   3.866   6.805  0.2748  0.1731 -0.2550
  796loPI    C112393  14.804  16.872   4.751 -0.1005  0.0364 -0.0073
  796loPI    C212394  14.867  16.642   4.431  0.0162  0.0544  0.0025
  796loPI    C312395  14.583  16.923   4.421 -0.0257  0.0099 -0.0614
  796loPI   PO412396  14.804  16.834   4.998 -0.0956 -0.0110 -0.2848
  796loPI   GL112397  14.875  16.775   5.340 -0.1453  0.1164  0.0968
  796loPI   GL212398  14.930  17.131   5.374  0.2730  0.2026  0.1030
  796loPI   C1A12399  14.748  16.708   5.778  0.1092 -0.0335 -0.0157
  796loPI   C2A12400  14.583  16.689   6.230  0.0070 -0.0671 -0.0796
  796loPI   C3A12401  14.179  16.836   6.351  0.1198  0.3617  0.0101
  796loPI   C4A12402  13.982  17.119   6.749  0.0738 -0.1086  0.1293
  796loPI   C5A12403  13.831  17.354   7.149 -0.0783 -0.3670 -0.2887
  796loPI   C6A12404  13.486  17.376   7.454 -0.0188 -0.1214 -0.2970
  796loPI   C1B12405  15.118  17.074   5.893 -0.1888 -0.1719  0.3180
  796loPI   C2B12406  14.975  17.171   6.259 -0.1276 -0.1219  0.0781
  796loPI   C3B12407  15.049  17.278   6.636 -0.1236 -0.1380 -0.0597
  796loPI   C4B12408  14.738  17.596   6.769  0.1611 -0.0787 -0.0023
  797loPI    C112409   4.292   0.262   4.574 -0.1379 -0.2460  0.0267
  797loPI    C212410   4.249   0.658   4.532 -0.1086 -0.2229  0.2050
  797loPI    C312411   4.034   0.408   4.305 -0.1519 -0.1053  0.1152
  797loPI   PO412412   4.292   0.274   4.827 -0.2961  0.1037  0.3225
  797loPI   GL112413   4.402   0.321   5.207 -0.0334 -0.0096  0.3578
  797loPI   GL212414   4.277  -0.053   5.270 -0.0266  0.0746  0.2779
  797loPI   C1A12415   4.587   0.150   5.581  0.0366  0.0752  0.0997
  797loPI   C2A12416   4.840   0.163   6.023 -0.1961  0.1320  0.0870
  797loPI   C3A12417   4.922   0.001   6.438 -0.1092  0.3116  0.1152
  797loPI   C4A12418   4.793  -0.107   6.850 -0.0751  0.0340  0.1341
  797loPI   C5A12419   4.362  -0.080   7.014 -0.1158 -0.0318 -0.2342
  797loPI   C6A12420   4.029  -0.062   7.358 -0.2749 -0.0361  0.0600
  797loPI   C1B12421   4.153  -0.159   5.745  0.2591  0.1875 -0.1364
  797loPI   C2B12422   4.116  -0.190   6.108  0.2687  0.1226 -0.4060
  797loPI   C3B12423   3.865  -0.233   6.477  0.0185  0.1775 -0.2318
  797loPI   C4B12424   3.866  -0.244   6.817 -0.1729  0.0311  0.3713
  798loPI    C112425  12.653  14.906   4.523 -0.0245  0.1310 -0.1001
  798loPI    C212426  12.685  14.783   4.144 -0.2224 -0.2392 -0.0017
  798loPI    C312427  12.356  14.697   4.355  0.0336 -0.3453  0.3636
  798loPI   PO412428  12.768  15.137   4.500 -0.1824 -0.1779  0.1345
  798loPI   GL112429  13.097  15.218   4.782  0.2381 -0.0357 -0.3385
  798loPI   GL212430  12.811  15.071   5.054 -0.1244  0.2143  0.3602
  798loPI   C1A12431  13.315  15.085   5.235 -0.0652 -0.0624  0.1651
  798loPI   C2A12432  13.374  14.906   5.497 -0.1626  0.2458 -0.1656
  798loPI   C3A12433  13.128  14.599   5.784 -0.2004  0.0735 -0.0057
  798loPI   C4A12434  13.278  14.400   6.196  0.1025  0.1048  0.4623
  798loPI   C5A12435  13.300  14.433   6.614  0.0625  0.3634 -0.1768
  798loPI   C6A12436  13.290  14.177   6.982 -0.0970  0.0168 -0.0631
  798loPI   C1B12437  12.839  14.930   5.530 -0.0897 -0.3843 -0.0289
  798loPI   C2B12438  12.576  14.823   5.883 -0.1240 -0.0612  0.1302
  798loPI   C3B12439  12.463  14.731   6.213  0.3119 -0.0781  0.2013
  798loPI   C4B12440  12.165  14.455   6.364 -0.0967  0.2721  0.1426
  799loPI    C112441   2.718   9.670   4.658 -0.0349  0.2613 -0.0671
  799loPI    C212442   2.869   9.442   4.366 -0.3106 -0.1030  0.0661
  799loPI    C312443   2.663   9.773   4.276  0.0786  0.0923 -0.1304
  799loPI   PO412444   2.868   9.715   4.844  0.2146 -0.1948  0.0665
  799loPI   GL112445   2.993  10.060   5.116 -0.2279 -0.2542  0.1334
  799loPI   GL212446   3.315  10.093   5.251 -0.0134  0.2553  0.0423
  799loPI   C1A12447   2.917   9.830   5.498  0.1398  0.1279 -0.1724
  799loPI   C2A12448   2.791   9.814   5.921 -0.1223  0.2599  0.0703
  799loPI   C3A12449   2.704   9.961   6.243  0.0358  0.0958  0.1799
  799loPI   C4A12450   2.431   9.980   6.563  0.0797  0.2850 -0.1393
  799loPI   C5A12451   2.220   9.997   7.001 -0.0745  0.0135 -0.2859
  799loPI   C6A12452   1.957  10.051   7.298  0.2097 -0.0352 -0.2668
  799loPI   C1B12453   3.339  10.063   5.565  0.0999 -0.0653 -0.0378
  799loPI   C2B12454   3.264   9.689   5.866 -0.0847  0.1953 -0.1713
  799loPI   C3B12455   3.210   9.668   6.267  0.1210  0.1624  0.1121
  799loPI   C4B12456   2.967   9.677   6.562 -0.2374  0.0514 -0.0164
  800loPI    C112457  13.480   5.804   4.812  0.0990  0.2519 -0.1627
  800loPI    C212458  13.450   6.202   4.790 -0.2349  0.2517  0.1800
  800loPI    C312459  13.173   5.971   4.617 -0.0220  0.1633 -0.0497
  800loPI   PO412460  13.550   5.745   5.057 -0.0879  0.1615 -0.0796
  800loPI   GL112461  13.320   5.704   5.476  0.0680 -0.2163 -0.2658
  800loPI   GL212462  13.550   5.458   5.596 -0.1344 -0.0242 -0.0721
  800loPI   C1A12463  13.116   5.594   5.848 -0.2221 -0.0537 -0.0906
  800loPI   C2A12464  12.950   5.416   6.206 -0.3092  0.0240  0.1293
  800loPI   C3A12465  12.861   5.201   6.602 -0.4037 -0.0411 -0.0640
  800loPI   C4A12466  12.858   5.068   7.049  0.0734  0.1018  0.2075
  800loPI   C5A12467  12.679   4.871   7.406  0.1185 -0.0709 -0.2287
  800loPI   C6A12468  12.594   4.764   7.908 -0.2026 -0.2374  0.0638
  800loPI   C1B12469  13.819   5.081   5.847 -0.0557 -0.1390  0.3865
  800loPI   C2B12470  14.129   4.734   5.894 -0.0432 -0.0341  0.0423
  800loPI   C3B12471  14.555   4.609   6.128  0.0503 -0.1700 -0.0681
  800loPI   C4B12472  14.796   4.378   6.195 -0.0426  0.1308  0.3472
  801loPI    C112473  15.411  13.997   4.400  0.0363 -0.1296 -0.0988
  801loPI    C212474  15.236  13.824   4.085  0.0580 -0.1432 -0.1034
  801loPI    C312475  15.562  14.051   4.034  0.1058 -0.2069 -0.0818
  801loPI   PO412476  15.144  14.078   4.548  0.0285  0.3811  0.2437
  801loPI   GL112477  15.018  13.886   4.925  0.1910  0.2217 -0.0119
  801loPI   GL212478  15.001  14.199   5.092  0.1317 -0.1051  0.4145
  801loPI   C1A12479  15.204  13.708   5.236 -0.1343  0.2835 -0.1046
  801loPI   C2A12480  15.502  13.725   5.603 -0.0858  0.1422 -0.0773
  801loPI   C3A12481  15.544  13.715   6.089 -0.1377 -0.0119  0.0565
  801loPI   C4A12482  15.671  13.430   6.433  0.0325 -0.2817  0.0211
  801loPI   C5A12483  15.928  13.154   6.686 -0.0303  0.1504  0.0432
  801loPI   C6A12484  16.084  12.946   6.997 -0.2695 -0.0081 -0.2993
  801loPI   C1B12485  15.083  14.052   5.507 -0.5871  0.0222  0.4341
  801loPI   C2B12486  14.987  13.925   5.955 -0.1925 -0.4343  0.3696
  801loPI   C3B12487  15.089  13.868   6.338 -0.3277  0.1084  0.0449
  801loPI   C4B12488  15.553  13.974   6.605 -0.0982 -0.1513  0.0466
  802loPI    C112489   1.482   0.583   4.532  0.2379  0.1587  0.0931
  802loPI    C212490   1.286   0.548   4.185  0.1816  0.0844  0.1323
  802loPI    C312491   1.639   0.734   4.196  0.0903  0.2639  0.0702
  802loPI   PO412492   1.426   0.439   4.718  0.3257 -0.2121  0.0434
  802loPI   GL112493   1.322   0.340   5.118 -0.0037  0.3199  0.0844
  802loPI   GL212494   1.549   0.076   5.217  0.3057  0.3117 -0.0096
  802loPI   C1A12495   1.256   0.390   5.522  0.0324  0.2687 -0.0087
  802loPI   C2A12496   1.173   0.362   5.917  0.2615  0.1994  0.0180
  802loPI   C3A12497   1.212   0.213   6.356  0.0952  0.0515 -0.0340
  802loPI   C4A12498   1.435   0.321   6.750  0.2288 -0.1907 -0.1108
  802loPI   C5A12499   1.452   0.533   7.049 -0.1375  0.1702  0.1255
  802loPI   C6A12500   1.408   0.611   7.515 -0.0491  0.0859 -0.1573
  802loPI   C1B12501   1.537   0.018   5.585 -0.2456  0.1842 -0.0562
  802loPI   C2B12502   1.656   0.192   5.971 -0.1765  0.0948  0.2468
  802loPI   C3B12503   1.740   0.183   6.371  0.1642  0.0360  0.1687
  802loPI   C4B12504   1.672  -0.157   6.746 -0.1985 -0.3673  0.1202
  803loPI    C112505   9.970  18.369   4.614 -0.1440 -0.0281 -0.0598
  803loPI    C212506  10.201  18.154   4.369  0.1235  0.1848  0.0008
  803loPI    C312507   9.979  18.453   4.223 -0.0833  0.0085 -0.0507
  803loPI   PO412508  10.116  18.417   4.826 -0.0906 -0.3555  0.2228
  803loPI   GL112509  10.282  18.401   5.155  0.1446  0.0902  0.2124
  803loPI   GL212510  10.137  18.067   5.334 -0.2069 -0.1271 -0.3770
  803loPI   C1A12511  10.302  18.405   5.619 -0.0867 -0.2219 -0.0371
  803loPI   C2A12512  10.266  18.342   6.065  0.3739  0.1398  0.1002
  803loPI   C3A12513  10.086  18.283   6.377 -0.0111 -0.1262  0.3411
  803loPI   C4A12514   9.997  18.422   6.892 -0.0827 -0.2296  0.0280
  803loPI   C5A12515  10.057  18.407   7.353 -0.1448  0.1263 -0.0440
  803loPI   C6A12516   9.794  18.067   7.489  0.0738 -0.3302 -0.4568
  803loPI   C1B12517  10.422  17.970   5.690 -0.2200  0.2436 -0.0685
  803loPI   C2B12518  10.698  18.078   5.952  0.1464  0.1343  0.0175
  803loPI   C3B12519  10.640  18.190   6.329  0.0802  0.1659 -0.1916
  803loPI   C4B12520  10.443  18.437   6.702 -0.0655 -0.1147 -0.2613
  804loPI    C112521   5.338   9.158   4.754 -0.5607  0.3058  0.1781
  804loPI    C212522   5.477   9.499   4.598 -0.2043  0.0719 -0.0304
  804loPI    C312523   5.405   9.186   4.361 -0.0930 -0.1436  0.2161
  804loPI   PO412524   5.534   9.102   5.078 -0.2019 -0.0753 -0.0987
  804loPI   GL112525   5.461   8.817   5.393 -0.0661 -0.0497 -0.2828
  804loPI   GL212526   5.770   8.952   5.453 -0.0368 -0.0317 -0.0679
  804loPI   C1A12527   5.536   8.911   5.925  0.5007 -0.1669  0.1473
  804loPI   C2A12528   5.503   9.266   6.268  0.0117  0.3927  0.1398
  804loPI   C3A12529   5.092   9.353   6.523 -0.1919  0.1102 -0.0457
  804loPI   C4A12530   4.915   9.643   6.846 -0.4557 -0.1457 -0.0203
  804loPI   C5A12531   4.641   9.672   7.216 -0.3145 -0.4846  0.0701
  804loPI   C6A12532   4.456   9.934   7.446 -0.1169  0.3089 -0.2041
  804loPI   C1B12533   6.013   8.965   5.831 -0.1058 -0.1366  0.2403
  804loPI   C2B12534   5.870   8.926   6.240  0.0525 -0.2989 -0.1522
  804loPI   C3B12535   5.652   8.943   6.669  0.0778 -0.1020 -0.2455
  804loPI   C4B12536   5.306   8.711   6.806 -0.1538  0.3268  0.0500
  805loPI    C112537  16.958  17.945   4.573 -0.0182  0.0408 -0.3408
  805loPI    C212538  17.218  17.803   4.304  0.2878  0.2602 -0.1678
  805loPI    C312539  16.981  18.112   4.211 -0.2428 -0.2203 -0.4793
  805loPI   PO412540  17.065  17.970   4.886  0.1980 -0.0948 -0.2915
  805loPI   GL112541  16.747  18.052   5.339  0.4540 -0.3704  0.0198
  805loPI   GL212542  16.927  18.266   5.354  0.0842  0.0560 -0.2377
  805loPI   C1A12543  16.447  17.976   5.689  0.1651 -0.0054 -0.0487
  805loPI   C2A12544  16.171  18.141   6.067  0.3085 -0.0064  0.0917
  805loPI   C3A12545  15.940  18.007   6.457 -0.1616 -0.0866  0.1794
  805loPI   C4A12546  15.639  17.929   6.753  0.0463 -0.0938 -0.0025
  805loPI   C5A12547  15.696  18.107   7.182  0.1688  0.1169  0.2969
  805loPI   C6A12548  15.637  18.231   7.602  0.1737  0.2888 -0.0287
  805loPI   C1B12549  16.975  18.241   5.808  0.1318  0.0223  0.0199
  805loPI   C2B12550  16.989  18.399   6.240  0.0603  0.3873  0.2274
  805loPI   C3B12551  17.091  18.710   6.421 -0.0100  0.0440 -0.2438
  805loPI   C4B12552  17.395  19.058   6.651  0.3946  0.1403  0.1172
  806loPI    C112553   3.646  19.275   4.469  0.0501 -0.0608 -0.0723
  806loPI    C212554   3.497  19.250   4.099  0.0453  0.0665 -0.0794
  806loPI    C312555   3.603  19.605   4.248  0.2435 -0.0097 -0.0354
  806loPI   PO412556   3.598  19.095   4.632  0.2930  0.3634 -0.0385
  806loPI   GL112557   3.661  18.907   5.103  0.0047  0.0589  0.2250
  806loPI   GL212558   4.000  19.061   5.144  0.7122 -0.0084 -0.1388
  806loPI   C1A12559   3.491  19.126   5.412 -0.2904  0.1728 -0.0962
  806loPI   C2A12560   3.645  19.241   5.897  0.2242  0.1308 -0.2937
  806loPI   C3A12561   3.408  19.123   6.350  0.1959 -0.0067 -0.1744
  806loPI   C4A12562   3.315  19.040   6.694 -0.0087  0.0329 -0.1484
  806loPI   C5A12563   3.437  19.119   7.080  0.1250  0.0976 -0.2061
  806loPI   C6A12564   3.519  19.021   7.516 -0.1716 -0.1404  0.0121
  806loPI   C1B12565   4.284  18.918   5.479 -0.0553  0.0668  0.1711
  806loPI   C2B12566   4.297  18.914   5.892  0.0474 -0.2075 -0.4974
  806loPI   C3B12567   4.428  18.764   6.316  0.0726  0.1962 -0.2933
  806loPI   C4B12568   4.631  18.589   6.663  0.0983 -0.2158  0.5090
  807loPI    C112569   6.688   8.060   4.904  0.0850  0.1511  0.0012
  807loPI    C212570   6.702   7.891   5.266  0.2295  0.1353 -0.0113
  807loPI    C312571   6.364   7.880   5.053  0.1906  0.0053  0.0567
  807loPI   PO412572   6.804   8.334   4.948  0.0771  0.1099  0.0425
  807loPI   GL112573   7.111   8.428   5.224 -0.0114  0.7024  0.3758
  807loPI   GL212574   7.037   8.700   5.316  0.1259 -0.0649 -0.3774
  807loPI   C1A12575   6.926   8.143   5.576  0.0293 -0.1587  0.0582
  807loPI   C2A12576   6.836   7.940   5.966 -0.0025  0.2068 -0.1020
  807loPI   C3A12577   6.627   8.051   6.374 -0.3610 -0.3375  0.1155
  807loPI   C4A12578   6.444   7.730   6.700  0.0397  0.0794  0.2815
  807loPI   C5A12579   6.088   7.646   6.866 -0.0587  0.5639  0.1741
  807loPI   C6A12580   5.645   7.742   7.063 -0.1366  0.1071  0.2006
  807loPI   C1B12581   6.965   8.608   5.777 -0.2106  0.1246  0.0980
  807loPI   C2B12582   6.886   8.532   6.242  0.2523 -0.0646  0.0850
  807loPI   C3B12583   6.631   8.476   6.583 -0.3888  0.0572  0.3942
  807loPI   C4B12584   6.522   8.573   6.967 -0.0060  0.2585  0.2993
  808loPI    C112585   5.333  13.879   4.593 -0.0517  0.2930 -0.2496
  808loPI    C212586   4.971  13.817   4.751  0.1220 -0.1324 -0.0004
  808loPI    C312587   5.048  13.698   4.377  0.0220 -0.0901 -0.0350
  808loPI   PO412588   5.442  13.935   4.875  0.2458  0.0034 -0.1025
  808loPI   GL112589   5.625  13.831   5.336  0.1396  0.2129  0.1530
  808loPI   GL212590   5.775  13.686   5.556  0.1672 -0.1980 -0.0142
  808loPI   C1A12591   5.477  14.238   5.584 -0.2206 -0.1150  0.1841
  808loPI   C2A12592   5.547  14.528   5.866  0.0994  0.2705 -0.3766
  808loPI   C3A12593   5.523  14.812   6.288  0.3415 -0.2861 -0.0848
  808loPI   C4A12594   5.837  14.923   6.672  0.0986 -0.0521  0.1838
  808loPI   C5A12595   5.907  15.172   7.049 -0.0000  0.1293  0.3122
  808loPI   C6A12596   6.285  15.390   7.187 -0.2306  0.3148 -0.2695
  808loPI   C1B12597   6.118  13.673   5.875 -0.0631  0.2212 -0.0432
  808loPI   C2B12598   6.157  13.332   6.244 -0.0445  0.1167 -0.1915
  808loPI   C3B12599   6.076  13.560   6.568 -0.1155  0.1404 -0.1940
  808loPI   C4B12600   6.053  13.660   7.032 -0.0822 -0.1541 -0.4143
  809loPI    C112601  19.172  13.424   4.555 -0.1102  0.2480 -0.1100
  809loPI    C212602  18.957  13.734   4.423 -0.0143  0.2082 -0.3648
  809loPI    C312603  19.357  13.754   4.426 -0.0152  0.2254 -0.0329
  809loPI   PO412604  19.041  13.396   4.833  0.0049 -0.1115  0.2349
  809loPI   GL112605  18.665  13.305   5.100 -0.0864  0.1642 -0.0822
  809loPI   GL212606  18.784  13.568   5.280  0.2640  0.2110 -0.3113
  809loPI   C1A12607  18.861  13.076   5.383  0.0970 -0.1680  0.1262
  809loPI   C2A12608  19.127  13.070   5.818  0.0863  0.1605 -0.3657
  809loPI   C3A12609  19.285  13.107   6.211 -0.0325 -0.0386  0.2449
  809loPI   C4A12610  19.553  13.332   6.516 -0.0525  0.2473  0.0536
  809loPI   C5A12611  19.595  13.731   6.822 -0.2313 -0.0610  0.2001
  809loPI   C6A12612  19.271  13.866   7.093 -0.4460  0.1137  0.4931
  809loPI   C1B12613  19.164  13.508   5.490 -0.0437  0.1164  0.0139
  809loPI   C2B12614  19.308  13.859   5.734  0.1130 -0.0017 -0.1974
  809loPI   C3B12615  19.444  14.045   6.131 -0.1588 -0.0176  0.1375
  809loPI   C4B12616  19.368  14.177   6.513  0.0358  0.0190  0.0155
  810loPI    C112617   3.035   8.096   4.650 -0.2575 -0.1520  0.0858
  810loPI    C212618   3.170   7.795   4.424 -0.1470 -0.1190  0.1070
  810loPI    C312619   3.346   8.153   4.405 -0.1957 -0.0910  0.1776
  810loPI   PO412620   2.914   7.962   4.823 -0.1658  0.1596 -0.2014
  810loPI   GL112621   2.846   7.914   5.204  0.0276  0.1630 -0.2454
  810loPI   GL212622   3.027   7.717   5.285 -0.0011 -0.1456  0.0971
  810loPI   C1A12623   2.881   8.296   5.685  0.0467  0.1963 -0.1405
  810loPI   C2A12624   3.013   8.343   6.154  0.3269 -0.0876 -0.0190
  810loPI   C3A12625   3.122   8.513   6.623 -0.1240 -0.1911  0.3086
  810loPI   C4A12626   3.399   8.489   6.916  0.0239  0.1655  0.1170
  810loPI   C5A12627   3.560   8.254   7.216  0.2310 -0.2403 -0.2120
  810loPI   C6A12628   3.637   8.410   7.599  0.1542  0.0793  0.1468
  810loPI   C1B12629   3.133   7.527   5.772  0.0927  0.2156 -0.1897
  810loPI   C2B12630   2.982   7.327   6.091  0.0414 -0.0580  0.3482
  810loPI   C3B12631   2.625   7.522   6.296 -0.5232 -0.0776 -0.1235
  810loPI   C4B12632   2.700   7.838   6.580  0.1676  0.1229  0.0097
  811loPI    C112633   9.200   6.436   4.586  0.0022 -0.1331 -0.0640
  811loPI    C212634   9.438   6.599   4.310 -0.2638  0.0778 -0.1726
  811loPI    C312635   9.301   6.227   4.260 -0.1285  0.0327 -0.2126
  811loPI   PO412636   9.288   6.672   4.828 -0.0789  0.4303 -0.2552
  811loPI   GL112637   9.226   6.613   5.264  0.2020 -0.1197 -0.0344
  811loPI   GL212638   9.252   6.254   5.303  0.0536  0.0346 -0.2443
  811loPI   C1A12639   9.480   6.599   5.577 -0.0198 -0.0008 -0.2256
  811loPI   C2A12640   9.386   6.689   6.017 -0.2905 -0.2644 -0.2836
  811loPI   C3A12641   9.265   6.583   6.350  0.2075 -0.2815  0.2987
  811loPI   C4A12642   9.165   6.154   6.581 -0.0667  0.2423  0.1156
  811loPI   C5A12643   9.312   5.796   6.777 -0.0878 -0.2551 -0.1247
  811loPI   C6A12644   9.237   5.499   7.140  0.1854 -0.1862  0.2503
  811loPI   C1B12645   9.160   5.954   5.596 -0.1242 -0.1848  0.1115
  811loPI   C2B12646   9.185   5.594   5.730 -0.1917 -0.0024 -0.2364
  811loPI   C3B12647   9.030   5.241   6.000  0.2799  0.4145 -0.1228
  811loPI   C4B12648   8.979   5.066   6.352  0.0404 -0.3222 -0.1893
  812loPI    C112649   0.484   3.833   4.603  0.2157  0.0276 -0.0644
  812loPI    C212650   0.760   3.584   4.456 -0.1501 -0.3625 -0.1088
  812loPI    C312651   0.485   3.743   4.214  0.0557  0.0625 -0.0733
  812loPI   PO412652   0.413   3.719   4.820  0.1423 -0.2324 -0.1281
  812loPI   GL112653   0.115   3.717   5.151  0.1566 -0.0079  0.1083
  812loPI   GL212654   0.266   3.361   5.122  0.0502 -0.2572 -0.3182
  812loPI   C1A12655   0.222   3.774   5.556 -0.0020 -0.1084 -0.0735
  812loPI   C2A12656   0.162   3.674   5.997  0.2844 -0.0445  0.0180
  812loPI   C3A12657   0.270   3.687   6.497 -0.0523  0.1829 -0.0000
  812loPI   C4A12658   0.059   3.569   6.837 -0.1176  0.0043  0.1195
  812loPI   C5A12659  -0.154   3.430   7.107 -0.0354 -0.3686 -0.1190
  812loPI   C6A12660  -0.373   3.228   7.300  0.0687 -0.0232 -0.0584
  812loPI   C1B12661   0.113   3.281   5.607  0.1057 -0.0541  0.1202
  812loPI   C2B12662   0.017   3.233   6.037  0.3609 -0.4065  0.2262
  812loPI   C3B12663  -0.020   3.221   6.481 -0.2050  0.0276  0.1441
  812loPI   C4B12664  -0.043   2.978   6.806 -0.2299  0.0064 -0.1702
  813loPI    C112665  19.153   9.131   4.394 -0.0751  0.1607 -0.2703
  813loPI    C212666  18.961   8.957   4.089  0.1721 -0.0459 -0.3110
  813loPI    C312667  19.275   8.776   4.258  0.0012  0.0374  0.1082
  813loPI   PO412668  19.030   9.151   4.626 -0.1473 -0.2351 -0.1111
  813loPI   GL112669  18.967   8.861   5.067  0.2021  0.1328  0.0272
  813loPI   GL212670  18.741   9.180   4.988  0.0900  0.0813 -0.0513
  813loPI   C1A12671  19.178   9.265   5.292 -0.3348 -0.1681 -0.2714
  813loPI   C2A12672  19.257   9.453   5.586  0.0508 -0.0299  0.0256
  813loPI   C3A12673  19.126   9.625   5.969 -0.2673  0.0801 -0.2317
  813loPI   C4A12674  19.093   9.728   6.313  0.0781 -0.1676  0.0200
  813loPI   C5A12675  18.727   9.723   6.551  0.1497 -0.3281  0.0025
  813loPI   C6A12676  18.324   9.821   6.622  0.4499  0.0147 -0.3655
  813loPI   C1B12677  18.682   9.342   5.350  0.1879 -0.1040 -0.2510
  813loPI   C2B12678  18.526   9.479   5.745  0.1040 -0.1242 -0.0890
  813loPI   C3B12679  18.484   9.660   6.122 -0.0436 -0.0035 -0.0319
  813loPI   C4B12680  18.355   9.327   6.380  0.2981  0.3418 -0.1161
  814loPI    C112681   2.011   0.013   4.405  0.1216  0.1549  0.2119
  814loPI    C212682   1.925   0.390   4.506  0.0692  0.1790  0.0793
  814loPI    C312683   1.698   0.198   4.238  0.1221  0.0680  0.1136
  814loPI   PO412684   1.972  -0.184   4.541  0.1080  0.1077 -0.1891
  814loPI   GL112685   1.975  -0.291   4.952  0.1141 -0.0677 -0.0202
  814loPI   GL212686   2.100  -0.591   4.985  0.1433  0.0752 -0.1176
  814loPI   C1A12687   1.833  -0.346   5.360  0.0947 -0.1516  0.0703
  814loPI   C2A12688   1.673  -0.413   5.745  0.0026 -0.0891  0.0316
  814loPI   C3A12689   1.379  -0.236   5.964 -0.1971  0.2239 -0.0273
  814loPI   C4A12690   1.293  -0.260   6.459 -0.2023 -0.2318  0.3797
  814loPI   C5A12691   1.140  -0.177   6.892  0.1734 -0.1017 -0.0358
  814loPI   C6A12692   1.123  -0.478   7.046  0.1402  0.3158 -0.1419
  814loPI   C1B12693   2.266  -0.648   5.465  0.0609 -0.2803  0.0545
  814loPI   C2B12694   2.119  -0.598   5.802  0.0448  0.2110 -0.0628
  814loPI   C3B12695   1.936  -0.901   5.996  0.1910  0.0437 -0.2527
  814loPI   C4B12696   1.737  -1.117   6.214 -0.1493  0.0509 -0.2256
  815loPI    C112697   6.410  15.373   4.645  0.0002  0.3008  0.1912
  815loPI    C212698   6.040  15.521   4.680 -0.0706  0.1474  0.1018
  815loPI    C312699   6.302  15.693   4.432 -0.0337  0.3461  0.2756
  815loPI   PO412700   6.477  15.238   4.856 -0.1022 -0.2504 -0.1956
  815loPI   GL112701   6.322  15.417   5.235 -0.2639 -0.2957  0.0644
  815loPI   GL212702   6.491  15.649   5.169 -0.0139 -0.2861  0.1277
  815loPI   C1A12703   6.330  15.540   5.742  0.1004  0.0395 -0.2395
  815loPI   C2A12704   6.332  15.819   5.946 -0.0478  0.2826 -0.2309
  815loPI   C3A12705   6.453  15.758   6.410 -0.1857 -0.1033  0.2854
  815loPI   C4A12706   6.502  15.650   6.891 -0.1625 -0.2560  0.2789
  815loPI   C5A12707   6.525  15.854   7.252 -0.1106 -0.1568  0.1068
  815loPI   C6A12708   6.338  16.172   7.548  0.0497 -0.1604  0.0446
  815loPI   C1B12709   6.189  15.877   5.448  0.2511  0.0119  0.1597
  815loPI   C2B12710   5.760  15.780   5.764 -0.2035 -0.0453  0.0966
  815loPI   C3B12711   5.457  15.790   6.023 -0.0757 -0.0032  0.2092
  815loPI   C4B12712   5.333  16.090   6.409 -0.2818 -0.0228 -0.0450
  816loPI    C112713   0.830   2.674   4.654  0.1756  0.1597 -0.0495
  816loPI    C212714   1.223   2.731   4.608  0.1981 -0.0516 -0.1340
  816loPI    C312715   0.996   2.641   4.291  0.0987 -0.0303 -0.0691
  816loPI   PO412716   0.790   2.702   4.979 -0.0853 -0.2495 -0.0888
  816loPI   GL112717   0.947   2.489   5.307  0.1687  0.0530 -0.1347
  816loPI   GL212718   0.821   2.177   5.460 -0.0471 -0.3355  0.0925
  816loPI   C1A12719   0.930   2.583   5.820 -0.0816 -0.1856  0.2007
  816loPI   C2A12720   0.893   2.934   6.081 -0.2687  0.0852  0.0619
  816loPI   C3A12721   0.867   3.072   6.591 -0.2797 -0.2259  0.2144
  816loPI   C4A12722   0.915   3.122   7.004  0.0899  0.2126  0.2094
  816loPI   C5A12723   0.662   3.329   7.336 -0.1248 -0.0283  0.0287
  816loPI   C6A12724   0.436   3.415   7.690  0.0680 -0.0720  0.2405
  816loPI   C1B12725   0.630   2.052   5.876 -0.1333 -0.1528 -0.2852
  816loPI   C2B12726   0.623   2.071   6.334  0.0732 -0.0511  0.0859
  816loPI   C3B12727   0.758   2.175   6.731  0.0941 -0.0354  0.0902
  816loPI   C4B12728   0.564   2.111   7.185 -0.0988 -0.3143  0.3437
  817loPI    C112729  18.223   2.456   5.080 -0.0368 -0.1651 -0.0277
  817loPI    C212730  18.305   2.557   4.702 -0.1807  0.2848  0.0553
  817loPI    C312731  18.481   2.752   5.004 -0.1266 -0.0192  0.2239
  817loPI   PO412732  18.200   2.166   5.072  0.0624  0.2681 -0.0478
  817loPI   GL112733  18.212   2.056   5.451  0.0526 -0.2504  0.1711
  817loPI   GL212734  18.332   1.739   5.513 -0.1262 -0.3623  0.0551
  817loPI   C1A12735  18.031   2.314   5.716  0.1059  0.0951 -0.2366
  817loPI   C2A12736  17.818   2.456   6.108  0.0010 -0.1153  0.3048
  817loPI   C3A12737  17.678   2.753   6.385  0.2844  0.0407 -0.0304
  817loPI   C4A12738  17.633   2.728   6.879 -0.2626 -0.1828 -0.0701
  817loPI   C5A12739  17.418   2.881   7.291  0.0672  0.1351 -0.1065
  817loPI   C6A12740  17.096   2.961   7.625  0.2197 -0.4435  0.1945
  817loPI   C1B12741  18.306   1.780   5.931 -0.3265 -0.1459 -0.1342
  817loPI   C2B12742  18.359   1.682   6.356 -0.2863 -0.0500 -0.1199
  817loPI   C3B12743  18.266   1.794   6.777  0.2026  0.2302 -0.2831
  817loPI   C4B12744  18.303   2.017   7.113  0.2592 -0.0426  0.0915
  818loPI    C112745   4.617   6.175   4.650 -0.1708  0.4963  0.2449
  818loPI    C212746   4.999   6.150   4.765 -0.0283  0.1706 -0.2677
  818loPI    C312747   4.851   6.500   4.641  0.0700  0.3214  0.0316
  818loPI   PO412748   4.532   6.108   4.854  0.2841  0.0826 -0.4669
  818loPI   GL112749   4.387   6.019   5.270 -0.0411  0.1069  0.1464
  818loPI   GL212750   4.567   6.183   5.509  0.0482  0.1629  0.0503
  818loPI   C1A12751   4.231   5.843   5.707  0.0607  0.0613  0.2370
  818loPI   C2A12752   4.310   6.012   6.180  0.3433 -0.0508  0.2612
  818loPI   C3A12753   4.270   6.028   6.559  0.0435 -0.0733  0.0119
  818loPI   C4A12754   4.284   6.040   7.056 -0.0581 -0.2272  0.2207
  818loPI   C5A12755   4.483   5.677   7.280  0.2058 -0.0601  0.0506
  818loPI   C6A12756   4.838   5.689   7.249  0.0842  0.1289  0.1185
  818loPI   C1B12757   4.504   6.332   5.835  0.1414  0.0178 -0.0245
  818loPI   C2B12758   4.652   6.390   6.265  0.0020 -0.2835  0.0057
  818loPI   C3B12759   4.838   6.263   6.667 -0.0839  0.0852  0.1716
  818loPI   C4B12760   5.144   6.021   6.886  0.1277  0.1520  0.1223
  819loPI    C112761   0.487   8.729   4.593 -0.0846  0.2891  0.2977
  819loPI    C212762   0.632   9.100   4.630  0.2101  0.2187 -0.0834
  819loPI    C312763   0.775   8.856   4.347 -0.0411 -0.1597  0.1058
  819loPI   PO412764   0.308   8.685   4.892  0.0297  0.0542  0.0861
  819loPI   GL112765  -0.073   8.654   5.197 -0.2314  0.1006 -0.1990
  819loPI   GL212766   0.213   8.723   5.391  0.0276 -0.2717 -0.1112
  819loPI   C1A12767  -0.377   8.735   5.489 -0.0049  0.1996  0.1551
  819loPI   C2A12768  -0.683   9.068   5.802 -0.0563  0.1918  0.2570
  819loPI   C3A12769  -0.691   9.211   6.194  0.1412  0.2011  0.2648
  819loPI   C4A12770  -0.549   9.274   6.609  0.2753  0.0880 -0.1884
  819loPI   C5A12771  -0.482   9.034   7.058  0.2676  0.1843 -0.1752
  819loPI   C6A12772  -0.237   8.841   7.327  0.0868  0.0121 -0.0171
  819loPI   C1B12773  -0.024   9.016   5.650  0.3288 -0.0131  0.1584
  819loPI   C2B12774  -0.229   9.159   6.044  0.2149  0.1487  0.2987
  819loPI   C3B12775  -0.040   9.227   6.382  0.1514 -0.0851  0.3938
  819loPI   C4B12776   0.068   9.486   6.753 -0.2698 -0.1079 -0.2559
  820loPI    C112777  11.169  10.244   4.660  0.0129  0.1943 -0.0154
  820loPI    C212778  11.463  10.396   4.435  0.0386  0.0611 -0.0726
  820loPI    C312779  11.093  10.545   4.408  0.0577  0.0947 -0.1486
  820loPI   PO412780  11.193  10.229   4.922  0.1423 -0.1344 -0.0849
  820loPI   GL112781  11.298  10.332   5.221 -0.0146  0.0285  0.1345
  820loPI   GL212782  11.051  10.177   5.364 -0.0644  0.0987 -0.3795
  820loPI   C1A12783  11.431  10.686   5.482  0.1297  0.3176 -0.1172
  820loPI   C2A12784  11.435  10.959   5.722 -0.0434  0.0865 -0.1396
  820loPI   C3A12785  11.681  11.147   6.144  0.4046  0.1984  0.1382
  820loPI   C4A12786  11.595  11.249   6.656 -0.1785 -0.2175  0.3623
  820loPI   C5A12787  11.299  10.978   6.798  0.0956 -0.2973 -0.0380
  820loPI   C6A12788  10.981  10.736   6.633 -0.3017 -0.1653  0.1088
  820loPI   C1B12789  11.099  10.313   5.716  0.1216 -0.0609 -0.1230
  820loPI   C2B12790  11.496  10.440   5.880  0.2273 -0.2386 -0.1847
  820loPI   C3B12791  11.734  10.397   6.054 -0.1813 -0.2214 -0.1240
  820loPI   C4B12792  11.943  10.365   6.470  0.0922 -0.0785 -0.1876
  821loPI    C112793   1.337   1.082   4.475 -0.1255  0.1332  0.2602
  821loPI    C212794   1.394   1.475   4.522  0.3208  0.0815  0.2003
  821loPI    C312795   1.323   1.325   4.158  0.1580  0.1043  0.2221
  821loPI   PO412796   1.178   0.998   4.616 -0.0442  0.2243 -0.2102
  821loPI   GL112797   1.239   0.808   5.050 -0.1784 -0.1653 -0.0473
  821loPI   GL212798   0.939   0.794   5.130  0.2806  0.3992 -0.4598
  821loPI   C1A12799   1.433   0.946   5.428  0.0242  0.0575  0.2428
  821loPI   C2A12800   1.382   0.843   5.900  0.0094 -0.3390 -0.0847
  821loPI   C3A12801   1.191   0.748   6.274  0.1225  0.2032  0.0856
  821loPI   C4A12802   1.347   0.858   6.676  0.1166 -0.0339  0.3433
  821loPI   C5A12803   1.619   1.172   6.945  0.1435  0.1745 -0.2483
  821loPI   C6A12804   1.858   1.336   7.301 -0.2272  0.1699  0.1639
  821loPI   C1B12805   0.974   0.802   5.560  0.3142 -0.3880  0.2146
  821loPI   C2B12806   0.795   0.815   5.970  0.0586 -0.2763 -0.0284
  821loPI   C3B12807   0.659   0.999   6.238 -0.0415 -0.1161  0.1695
  821loPI   C4B12808   0.542   1.323   6.241 -0.1755  0.4241 -0.1237
  822loPI    C112809  15.087  12.929   4.251 -0.1711  0.2234 -0.0178
  822loPI    C212810  15.036  13.036   3.869  0.3175  0.1465 -0.1106
  822loPI    C312811  15.017  12.650   3.972 -0.1299  0.1936  0.0016
  822loPI   PO412812  14.854  13.037   4.387 -0.0877  0.0216  0.1246
  822loPI   GL112813  14.648  13.408   4.656 -0.2600 -0.0217 -0.0375
  822loPI   GL212814  14.530  13.077   4.760  0.0231 -0.2296  0.0734
  822loPI   C1A12815  14.853  13.339   5.026  0.0638  0.0008  0.0700
  822loPI   C2A12816  15.015  13.144   5.389 -0.1678  0.0961  0.0560
  822loPI   C3A12817  15.059  13.013   5.731 -0.0921  0.3031 -0.1059
  822loPI   C4A12818  14.988  12.903   6.075 -0.0347 -0.4820 -0.1316
  822loPI   C5A12819  14.785  12.645   6.367  0.0422 -0.3254 -0.0526
  822loPI   C6A12820  14.622  12.402   6.699  0.0908 -0.4611 -0.0233
  822loPI   C1B12821  14.370  13.281   5.084  0.2887 -0.1976 -0.2023
  822loPI   C2B12822  14.457  13.210   5.508 -0.1202  0.0415  0.1030
  822loPI   C3B12823  14.587  13.054   5.834  0.0407 -0.1481 -0.0535
  822loPI   C4B12824  14.403  12.847   6.159  0.0269 -0.2105 -0.1093
  823loPI    C112825   7.942   3.549   4.796  0.0737 -0.2300  0.2086
  823loPI    C212826   7.658   3.498   4.519  0.1671 -0.0876  0.0853
  823loPI    C312827   8.040   3.420   4.430  0.1997 -0.0238  0.1683
  823loPI   PO412828   7.869   3.793   4.973 -0.3198  0.1630 -0.3059
  823loPI   GL112829   7.625   3.774   5.300  0.2090  0.0195 -0.1242
  823loPI   GL212830   7.359   3.954   5.440 -0.3396  0.0755 -0.0215
  823loPI   C1A12831   7.828   3.560   5.594  0.0210 -0.2099 -0.0843
  823loPI   C2A12832   7.953   3.467   5.998  0.1387  0.1318 -0.2976
  823loPI   C3A12833   7.917   3.526   6.463 -0.3215  0.0311 -0.0326
  823loPI   C4A12834   7.598   3.526   6.921  0.0498  0.0354  0.1619
  823loPI   C5A12835   7.265   3.390   7.163  0.2174  0.0370 -0.3225
  823loPI   C6A12836   7.041   3.546   7.429 -0.0247 -0.0130  0.1139
  823loPI   C1B12837   7.312   4.237   5.757  0.0450 -0.2108 -0.0279
  823loPI   C2B12838   7.159   4.312   6.118  0.2160  0.2211 -0.1187
  823loPI   C3B12839   7.142   4.242   6.599  0.2244  0.4350  0.0270
  823loPI   C4B12840   7.095   4.287   6.956  0.0785 -0.1521 -0.1369
  824loPI    C112841   8.484   3.805   4.405 -0.2490  0.1911  0.0624
  824loPI    C212842   8.620   4.146   4.564 -0.1652  0.2450 -0.1229
  824loPI    C312843   8.440   4.150   4.207 -0.0613  0.0790 -0.1782
  824loPI   PO412844   8.402   3.633   4.676 -0.0638 -0.0102 -0.2737
  824loPI   GL112845   8.364   3.607   5.115 -0.1468 -0.2016 -0.0167
  824loPI   GL212846   8.066   3.352   5.245  0.0581 -0.0496 -0.3850
  824loPI   C1A12847   8.338   3.573   5.587  0.1713  0.2760  0.1828
  824loPI   C2A12848   8.428   3.548   6.083  0.0165 -0.0648  0.1423
  824loPI   C3A12849   8.417   3.569   6.508  0.0264  0.1610 -0.3066
  824loPI   C4A12850   8.126   3.815   6.866 -0.1922 -0.2400  0.2080
  824loPI   C5A12851   7.942   3.679   7.192 -0.0160  0.0366 -0.1495
  824loPI   C6A12852   7.714   3.444   7.472 -0.1010  0.0667  0.1701
  824loPI   C1B12853   8.136   3.106   5.725  0.2989  0.1162  0.0412
  824loPI   C2B12854   8.161   3.059   6.278 -0.1331 -0.0699 -0.1920
  824loPI   C3B12855   8.066   3.167   6.760  0.1392  0.1471  0.4498
  824loPI   C4B12856   8.318   3.340   7.073  0.2641 -0.1813  0.0123
  825loPI    C112857  15.927  16.280   4.627 -0.0607 -0.1476 -0.1209
  825loPI    C212858  15.752  16.513   4.352 -0.0339 -0.0371 -0.0452
  825loPI    C312859  16.111  16.612   4.498 -0.1801  0.0690  0.2513
  825loPI   PO412860  15.735  16.244   4.837  0.0081  0.2782 -0.1076
  825loPI   GL112861  15.782  16.150   5.218 -0.0336 -0.3040 -0.0812
  825loPI   GL212862  15.803  16.543   5.368 -0.0966  0.0829  0.2563
  825loPI   C1A12863  15.409  16.227   5.474 -0.1463 -0.1706  0.2400
  825loPI   C2A12864  15.087  16.226   5.804 -0.3174  0.2491  0.0876
  825loPI   C3A12865  14.866  15.941   6.018 -0.0761  0.0196  0.1782
  825loPI   C4A12866  14.736  15.822   6.424  0.0112 -0.2022 -0.0921
  825loPI   C5A12867  14.647  15.815   6.919  0.1794  0.1481  0.2014
  825loPI   C6A12868  14.789  15.956   7.283  0.1987 -0.0687  0.0312
  825loPI   C1B12869  15.511  16.778   5.734  0.1657  0.1543  0.2417
  825loPI   C2B12870  15.338  16.585   6.028  0.4068 -0.1298 -0.0787
  825loPI   C3B12871  14.969  16.373   6.215  0.0287 -0.0075 -0.2481
  825loPI   C4B12872  14.794  16.307   6.720 -0.1535  0.1123  0.1283
  826loPI    C112873   2.278   3.511   4.859 -0.3385 -0.2372  0.0605
  826loPI    C212874   2.418   3.700   4.535  0.0596  0.0566  0.3923
  826loPI    C312875   2.094   3.466   4.507  0.0219  0.1648 -0.1887
  826loPI   PO412876   2.250   3.690   5.076 -0.2584 -0.4216  0.1389
  826loPI   GL112877   2.434   3.834   5.460 -0.1633 -0.0216 -0.0144
  826loPI   GL212878   2.692   3.649   5.588 -0.1219  0.3566  0.1927
  826loPI   C1A12879   2.468   3.990   5.884  0.0084 -0.3324  0.0569
  826loPI   C2A12880   2.473   4.045   6.280 -0.2819  0.2109 -0.2471
  826loPI   C3A12881   2.447   4.061   6.677 -0.0828  0.0236  0.1332
  826loPI   C4A12882   2.463   3.947   7.022 -0.2845  0.2337  0.0114
  826loPI   C5A12883   2.774   3.783   7.221 -0.3023 -0.3137 -0.2793
  826loPI   C6A12884   2.907   3.781   7.661  0.0354  0.1267  0.0645
  826loPI   C1B12885   2.483   3.455   5.914  0.0381 -0.2618  0.0327
  826loPI   C2B12886   2.307   3.491   6.417 -0.0095 -0.1851  0.1809
  826loPI   C3B12887   2.270   3.366   6.854  0.1207  0.0709 -0.1143
  826loPI   C4B12888   2.164   3.108   7.241  0.1651 -0.5592 -0.1948
  827loPI    C112889  18.608   0.790   4.549  0.0507 -0.0430 -0.0271
  827loPI    C212890  18.953   0.843   4.745 -0.0623  0.3662  0.0706
  827loPI    C312891  18.919   0.960   4.364 -0.0280  0.1221 -0.0094
  827loPI   PO412892  18.425   0.846   4.708 -0.1109  0.1077  0.0628
  827loPI   GL112893  18.231   0.901   5.091  0.0092  0.1483 -0.0615
  827loPI   GL212894  17.944   1.001   5.179  0.0329  0.2292 -0.3096
  827loPI   C1A12895  18.297   0.881   5.561  0.2736  0.2210  0.0935
  827loPI   C2A12896  18.044   0.940   5.947  0.1200  0.0729 -0.0252
  827loPI   C3A12897  17.895   0.961   6.293 -0.0150 -0.0563 -0.0132
  827loPI   C4A12898  17.829   0.950   6.771  0.1450  0.0644  0.1301
  827loPI   C5A12899  17.813   0.719   7.045 -0.1424 -0.2458  0.5163
  827loPI   C6A12900  17.913   0.308   7.038  0.0195 -0.3196  0.0800
  827loPI   C1B12901  17.716   0.818   5.524  0.0235 -0.0837 -0.0076
  827loPI   C2B12902  17.555   0.820   5.798 -0.1238 -0.0240  0.0246
  827loPI   C3B12903  17.507   0.741   6.203  0.0120  0.0585 -0.4828
  827loPI   C4B12904  17.376   0.761   6.652  0.2917 -0.1062 -0.1360
  828loPI    C112905  14.081  16.836   4.289  0.0493  0.0491  0.0875
  828loPI    C212906  13.848  17.155   4.346  0.1306  0.1182  0.0344
  828loPI    C312907  13.860  16.978   3.988  0.0131 -0.0028  0.0894
  828loPI   PO412908  14.140  16.721   4.556  0.1132 -0.4829 -0.0278
  828loPI   GL112909  14.067  16.649   4.991  0.1464 -0.0495  0.3083
  828loPI   GL212910  14.354  16.543   5.012 -0.0280  0.1927 -0.7544
  828loPI   C1A12911  13.878  16.410   5.420 -0.0116 -0.0419  0.3247
  828loPI   C2A12912  13.569  16.300   5.750 -0.0230  0.1359  0.0537
  828loPI   C3A12913  13.365  16.315   6.065  0.1104 -0.0245 -0.0382
  828loPI   C4A12914  13.108  16.387   6.423  0.1011 -0.1418 -0.0431
  828loPI   C5A12915  13.076  16.181   6.727  0.1616 -0.1791  0.0689
  828loPI   C6A12916  12.855  15.800   6.683  0.1266 -0.0452  0.0739
  828loPI   C1B12917  14.403  16.544   5.465  0.1405 -0.2635  0.2826
  828loPI   C2B12918  14.079  16.610   5.825 -0.1508  0.0208  0.0365
  828loPI   C3B12919  13.810  16.490   6.242  0.1001  0.1177  0.3449
  828loPI   C4B12920  13.625  16.204   6.548 -0.2352 -0.1877 -0.2527
  829loPI    C112921  14.339   5.370   4.639  0.0254  0.0421 -0.0161
  829loPI    C212922  14.200   5.062   4.425 -0.2049 -0.0176  0.2144
  829loPI    C312923  14.076   5.433   4.344  0.1062  0.0245 -0.0923
  829loPI   PO412924  14.318   5.359   4.976  0.0021 -0.1035 -0.0173
  829loPI   GL112925  14.375   5.159   5.426  0.2531 -0.2167 -0.5262
  829loPI   GL212926  14.309   5.522   5.496  0.0405  0.2348  0.0665
  829loPI   C1A12927  14.348   5.159   5.859  0.2556  0.1832 -0.1534
  829loPI   C2A12928  14.222   5.077   6.242 -0.0784 -0.0021  0.0569
  829loPI   C3A12929  14.119   4.720   6.494  0.1148  0.1676  0.0923
  829loPI   C4A12930  14.016   4.595   6.880  0.1849 -0.0860 -0.0321
  829loPI   C5A12931  13.880   4.415   7.266  0.0754 -0.2563  0.2195
  829loPI   C6A12932  13.507   4.145   7.547  0.0545  0.0270  0.0342
  829loPI   C1B12933  14.144   5.574   5.987 -0.1631 -0.0707 -0.0484
  829loPI   C2B12934  13.858   5.426   6.168  0.2032  0.3557 -0.3120
  829loPI   C3B12935  13.762   5.092   6.416 -0.2353  0.0869  0.1751
  829loPI   C4B12936  13.599   4.659   6.496  0.0985 -0.1135 -0.4177
  830loPI    C112937   0.712  13.531   4.097 -0.0612 -0.0474 -0.1789
  830loPI    C212938   1.017  13.272   4.116 -0.1660 -0.1556  0.0770
  830loPI    C312939   0.773  13.272   3.799  0.2080  0.0587 -0.2191
  830loPI   PO412940   0.804  13.806   4.256  0.2509 -0.1002 -0.2322
  830loPI   GL112941   0.875  13.718   4.762  0.1399 -0.0452  0.3234
  830loPI   GL212942   0.784  13.429   4.611  0.0645 -0.0779 -0.3088
  830loPI   C1A12943   0.907  13.823   5.062  0.2600  0.0536 -0.2717
  830loPI   C2A12944   0.758  13.701   5.525 -0.0751  0.1230  0.2373
  830loPI   C3A12945   0.881  13.682   5.888 -0.0195  0.0343 -0.1709
  830loPI   C4A12946   0.828  13.875   6.193 -0.1833 -0.1070 -0.0568
  830loPI   C5A12947   0.748  13.824   6.638 -0.0811  0.0908  0.1192
  830loPI   C6A12948   1.038  13.733   7.056 -0.1295 -0.1065 -0.1798
  830loPI   C1B12949   0.765  13.300   5.067  0.0723 -0.0468  0.1397
  830loPI   C2B12950   0.532  13.220   5.384  0.1567  0.1328  0.0705
  830loPI   C3B12951   0.509  13.355   5.865  0.2268 -0.1918 -0.1458
  830loPI   C4B12952   0.440  13.501   6.334 -0.1985  0.2257 -0.0190
  831loPI    C112953  14.227   4.238   4.703  0.2447 -0.0067 -0.0416
  831loPI    C212954  14.401   4.403   5.024 -0.0270  0.0291  0.0901
  831loPI    C312955  14.334   4.623   4.696 -0.1206  0.1030  0.1584
  831loPI   PO412956  14.036   4.076   4.827 -0.0985  0.0526 -0.1200
  831loPI   GL112957  13.712   4.042   5.210  0.2379 -0.1080 -0.3094
  831loPI   GL212958  14.020   4.147   5.309  0.3947  0.0037  0.0484
  831loPI   C1A12959  13.642   4.110   5.707 -0.2891  0.1502 -0.2043
  831loPI   C2A12960  13.616   4.331   6.073  0.2160 -0.0382 -0.2901
  831loPI   C3A12961  13.896   4.242   6.522 -0.1694 -0.0433 -0.0759
  831loPI   C4A12962  14.142   4.068   6.962 -0.0059 -0.2814 -0.2914
  831loPI   C5A12963  14.547   4.115   6.988 -0.1754  0.0626 -0.1767
  831loPI   C6A12964  14.781   4.149   7.185 -0.1590  0.0536  0.2372
  831loPI   C1B12965  14.119   4.254   5.657 -0.0168  0.1031 -0.2813
  831loPI   C2B12966  14.191   4.349   6.192 -0.2924 -0.5149  0.0255
  831loPI   C3B12967  14.396   4.260   6.577 -0.0256 -0.1531  0.2409
  831loPI   C4B12968  14.766   4.042   6.546 -0.0951  0.1486 -0.1338
  832loPI    C112969  14.749  14.950   4.392  0.0701  0.0514  0.0170
  832loPI    C212970  14.707  14.608   4.187 -0.3239  0.0118  0.1539
  832loPI    C312971  14.861  14.931   4.009  0.1328 -0.2560  0.0473
  832loPI   PO412972  14.592  14.884   4.610 -0.0880 -0.2312  0.3922
  832loPI   GL112973  14.407  14.999   4.914  0.2684  0.0380  0.0185
  832loPI   GL212974  14.267  15.294   4.970 -0.7276 -0.0833 -0.1657
  832loPI   C1A12975  14.334  14.778   5.321  0.1046  0.1720  0.3758
  832loPI   C2A12976  14.135  14.508   5.621 -0.3955 -0.2906 -0.1370
  832loPI   C3A12977  14.107  14.062   5.831  0.5494 -0.1187 -0.4712
  832loPI   C4A12978  14.065  13.807   6.105  0.0552  0.1353  0.0865
  832loPI   C5A12979  13.972  13.880   6.533  0.0607 -0.2612  0.1489
  832loPI   C6A12980  13.744  14.211   6.700  0.1208 -0.3023  0.0776
  832loPI   C1B12981  14.135  15.348   5.411  0.2403  0.0313  0.3382
  832loPI   C2B12982  13.819  15.439   5.836  0.0392 -0.1562  0.1516
  832loPI   C3B12983  13.498  15.434   6.205 -0.2062  0.1963 -0.2653
  832loPI   C4B12984  13.158  15.359   6.469  0.0010 -0.0582 -0.3420
  833loPI    C112985  13.378  10.900   4.274  0.0986 -0.0678  0.2433
  833loPI    C212986  13.211  10.815   4.628 -0.4606 -0.1249 -0.0229
  833loPI    C312987  13.088  10.625   4.298 -0.0643  0.0479 -0.2776
  833loPI   PO412988  13.703  10.942   4.438 -0.2211 -0.0054  0.1574
  833loPI   GL112989  13.641  10.945   4.890 -0.1073  0.0017  0.2681
  833loPI   GL212990  13.552  10.667   4.994  0.3245  0.2293 -0.2135
  833loPI   C1A12991  13.935  10.964   5.177 -0.2396  0.1375  0.1292
  833loPI   C2A12992  14.172  10.970   5.509  0.0595 -0.0031 -0.0750
  833loPI   C3A12993  14.486  10.899   5.887 -0.0832  0.0375 -0.2164
  833loPI   C4A12994  14.426  10.884   6.358 -0.0868 -0.1259  0.0771
  833loPI   C5A12995  14.588  11.146   6.735  0.0820 -0.4589 -0.1308
  833loPI   C6A12996  14.736  11.265   7.196 -0.0865  0.3650 -0.0201
  833loPI   C1B12997  13.443  10.942   5.371  0.1461  0.1761  0.3074
  833loPI   C2B12998  13.306  11.287   5.664 -0.0384 -0.0444 -0.0899
  833loPI   C3B12999  13.387  11.376   6.160  0.0639 -0.0676 -0.1554
  833loPI   C4B13000  13.416  11.577   6.664  0.0964  0.0592 -0.1384
  834loPI    C113001   4.961   2.417   4.847 -0.4163  0.0652 -0.1345
  834loPI    C213002   5.091   2.155   4.573  0.1880 -0.0892  0.2789
  834loPI    C313003   5.152   2.547   4.520  0.1427 -0.1039  0.1128
  834loPI   PO413004   4.847   2.208   5.009 -0.1136 -0.1394  0.2401
  834loPI   GL113005   4.836   2.062   5.407 -0.0679 -0.0253  0.1169
  834loPI   GL213006   5.067   2.013   5.542  0.0627  0.3267  0.2710
  834loPI   C1A13007   4.589   2.179   5.760 -0.0033  0.3364 -0.1258
  834loPI   C2A13008   4.717   2.332   6.198  0.0074  0.0643  0.1281
  834loPI   C3A13009   4.538   2.440   6.617  0.1238  0.1598  0.3001
  834loPI   C4A13010   4.551   2.724   7.136  0.0203 -0.0254  0.0278
  834loPI   C5A13011   4.161   2.604   7.462 -0.0360  0.1297  0.0084
  834loPI   C6A13012   3.971   2.193   7.566 -0.1853 -0.1737  0.0613
  834loPI   C1B13013   5.025   2.003   5.947  0.0566 -0.2028  0.1079
  834loPI   C2B13014   5.148   2.085   6.266  0.0217  0.1638 -0.1616
  834loPI   C3B13015   5.031   1.921   6.681 -0.0360 -0.1349 -0.2364
  834loPI   C4B13016   4.778   1.818   7.084 -0.1862  0.0293  0.2508
  835loPI    C113017   3.420  13.495   4.256 -0.0512  0.0943 -0.1271
  835loPI    C213018   3.620  13.803   4.097  0.0971  0.0052 -0.1153
  835loPI    C313019   3.279  13.677   3.929  0.1296  0.0615 -0.2245
  835loPI   PO413020   3.424  13.511   4.452 -0.0680 -0.0597 -0.1483
  835loPI   GL113021   3.212  13.609   4.755  0.0275  0.0909  0.1904
  835loPI   GL213022   2.968  13.464   4.813  0.3634 -0.0071  0.2133
  835loPI   C1A13023   3.298  13.621   5.198 -0.4597 -0.0319 -0.2950
  835loPI   C2A13024   3.209  13.503   5.594 -0.4750 -0.1855 -0.0185
  835loPI   C3A13025   3.196  13.492   5.954  0.1369 -0.0528  0.1844
  835loPI   C4A13026   3.036  13.664   6.347  0.4998  0.0064 -0.1427
  835loPI   C5A13027   2.816  13.914   6.618 -0.0151  0.0606 -0.3498
  835loPI   C6A13028   2.520  13.983   6.977  0.0331 -0.1653 -0.2454
  835loPI   C1B13029   2.851  13.385   5.189 -0.1907 -0.0568  0.0560
  835loPI   C2B13030   2.714  13.439   5.584 -0.4166 -0.2965 -0.1677
  835loPI   C3B13031   2.532  13.466   5.972  0.0694 -0.0370 -0.1635
  835loPI   C4B13032   2.699  13.229   6.343  0.1856  0.2842 -0.0126
  836loPI    C113033  10.832   6.645   4.905  0.5475  0.0504  0.0846
  836loPI    C213034  10.924   6.617   4.517  0.2105 -0.0614  0.0095
  836loPI    C313035  10.883   6.286   4.737  0.1896 -0.0065  0.0884
  836loPI   PO413036  10.966   6.910   4.998 -0.0680  0.3016 -0.0783
  836loPI   GL113037  10.883   6.999   5.301 -0.0924  0.0653  0.1364
  836loPI   GL213038  10.604   7.203   5.245 -0.0079  0.0385  0.0846
  836loPI   C1A13039  10.772   6.962   5.751 -0.1768  0.0596 -0.1590
  836loPI   C2A13040  10.753   6.791   6.108 -0.3021 -0.0440 -0.1613
  836loPI   C3A13041  10.845   6.955   6.498 -0.0975 -0.1366 -0.3735
  836loPI   C4A13042  11.222   7.012   6.859  0.0205  0.1600  0.0471
  836loPI   C5A13043  11.604   6.921   6.936  0.0698 -0.0856 -0.0219
  836loPI   C6A13044  11.803   6.663   7.282 -0.1238 -0.2044 -0.1902
  836loPI   C1B13045  10.682   7.484   5.558  0.1498  0.0204  0.0309
  836loPI   C2B13046  10.491   7.570   5.890  0.3560  0.2531  0.2615
  836loPI   C3B13047  10.576   7.339   6.379 -0.1883 -0.2160  0.0488
  836loPI   C4B13048  10.449   7.311   6.693 -0.1569  0.2075 -0.0771
  837loPI    C113049   9.207   1.143   4.771  0.3564 -0.1950  0.2833
  837loPI    C213050   9.066   0.776   4.699  0.0045 -0.0090 -0.0108
  837loPI    C313051   9.244   0.982   4.407  0.1997  0.0585  0.1531
  837loPI   PO413052   8.979   1.337   4.924  0.2446 -0.0033 -0.2039
  837loPI   GL113053   9.008   1.262   5.395 -0.1122 -0.1865  0.2117
  837loPI   GL213054   9.380   1.331   5.542 -0.0541 -0.0087  0.0634
  837loPI   C1A13055   8.818   1.155   5.690 -0.0338 -0.1326 -0.2537
  837loPI   C2A13056   8.845   0.917   6.040 -0.0007 -0.0842 -0.0603
  837loPI   C3A13057   8.925   0.808   6.537 -0.2345 -0.1700  0.2306
  837loPI   C4A13058   8.889   0.987   6.972 -0.0887 -0.0388 -0.0883
  837loPI   C5A13059   8.908   1.062   7.419  0.1052  0.1465  0.2563
  837loPI   C6A13060   9.082   0.973   7.807 -0.1564  0.1172  0.2049
  837loPI   C1B13061   9.289   1.499   5.962 -0.1195 -0.0173  0.0155
  837loPI   C2B13062   9.426   1.663   6.315 -0.1735 -0.0815  0.0652
  837loPI   C3B13063   9.649   1.976   6.427 -0.0859  0.0059 -0.0116
  837loPI   C4B13064   9.654   2.396   6.603 -0.5311 -0.0219 -0.0291
  838loPI    C113065  14.845   2.603   4.312 -0.0725  0.1652 -0.0932
  838loPI    C213066  14.910   2.546   3.921 -0.0185  0.1322 -0.0795
  838loPI    C313067  14.556   2.451   4.081  0.0833 -0.2094 -0.0490
  838loPI   PO413068  15.094   2.632   4.423 -0.0276  0.0638  0.2107
  838loPI   GL113069  15.320   2.673   4.810 -0.0305 -0.0262 -0.0887
  838loPI   GL213070  15.477   2.780   5.125 -0.1741 -0.2942  0.0002
  838loPI   C1A13071  14.989   2.664   5.207  0.1861  0.0809 -0.3462
  838loPI   C2A13072  15.109   2.657   5.645 -0.0218 -0.1798  0.1790
  838loPI   C3A13073  15.200   2.511   6.109  0.2165  0.1678 -0.1065
  838loPI   C4A13074  15.377   2.186   6.390 -0.2292  0.1586  0.0131
  838loPI   C5A13075  15.603   2.031   6.599 -0.0351  0.0967 -0.4097
  838loPI   C6A13076  15.677   1.714   6.853  0.2046  0.2105 -0.0001
  838loPI   C1B13077  15.537   2.907   5.526  0.0760  0.0212 -0.1047
  838loPI   C2B13078  15.541   2.858   5.978  0.0302 -0.0394 -0.0436
  838loPI   C3B13079  15.440   2.947   6.407  0.3760  0.0385  0.1326
  838loPI   C4B13080  15.468   2.942   6.793  0.1160 -0.1551  0.1248
  839loPI    C113081  13.903   8.600   4.466 -0.0846  0.1061 -0.0966
  839loPI    C213082  13.781   8.222   4.413 -0.1922  0.0896  0.2473
  839loPI    C313083  13.569   8.524   4.259 -0.1689  0.0163  0.0696
  839loPI   PO413084  13.824   8.622   4.802  0.4053  0.2418  0.2962
  839loPI   GL113085  14.067   8.721   5.218  0.0801  0.1332  0.0332
  839loPI   GL213086  14.399   8.712   5.251  0.1151 -0.0634 -0.1590
  839loPI   C1A13087  14.029   8.888   5.552  0.0714 -0.0100 -0.2607
  839loPI   C2A13088  13.937   8.793   6.025 -0.0817  0.0780 -0.0192
  839loPI   C3A13089  13.845   8.562   6.472  0.3344  0.0759 -0.0425
  839loPI   C4A13090  13.864   8.536   6.913  0.2916 -0.1642  0.3125
  839loPI   C5A13091  13.694   8.848   7.213  0.1742  0.1045  0.2378
  839loPI   C6A13092  13.821   9.168   7.388  0.1221  0.0236  0.2814
  839loPI   C1B13093  14.395   8.690   5.783 -0.1866  0.0067  0.0860
  839loPI   C2B13094  14.392   8.685   6.275 -0.0902 -0.0797  0.1705
  839loPI   C3B13095  14.261   8.727   6.717 -0.0634  0.1412 -0.1438
  839loPI   C4B13096  14.266   8.898   7.198  0.0350 -0.1359  0.3241
  840loPI    C113097   8.096  19.153   4.962 -0.2022 -0.1588  0.1746
  840loPI    C213098   7.940  19.521   4.951  0.2395  0.0363  0.2236
  840loPI    C313099   8.131  19.376   4.631 -0.0402 -0.2025  0.1613
  840loPI   PO413100   7.907  18.960   5.094 -0.0247 -0.0844 -0.0406
  840loPI   GL113101   7.524  18.842   5.321 -0.1547 -0.0376  0.2819
  840loPI   GL213102   7.818  18.951   5.560  0.2301 -0.0499 -0.0174
  840loPI   C1A13103   7.367  18.747   5.724 -0.5336 -0.2908  0.0741
  840loPI   C2A13104   7.231  19.042   6.080  0.0834  0.0132  0.0138
  840loPI   C3A13105   7.444  19.314   6.359 -0.2492  0.1473 -0.1263
  840loPI   C4A13106   7.693  19.614   6.638 -0.2115  0.1422  0.1910
  840loPI   C5A13107   7.887  19.701   7.001 -0.0852 -0.4246 -0.0537
  840loPI   C6A13108   7.929  19.514   7.477  0.0217 -0.1653 -0.0474
  840loPI   C1B13109   7.768  18.967   5.902 -0.1097  0.0133 -0.0301
  840loPI   C2B13110   7.692  18.862   6.329  0.1680  0.0027 -0.0435
  840loPI   C3B13111   7.788  18.795   6.805 -0.1407 -0.1141  0.0285
  840loPI   C4B13112   8.143  18.845   7.088 -0.2311  0.1399 -0.1031
  841loPI    C113113  14.276   1.332   5.059  0.1175 -0.0780  0.1512
  841loPI    C213114  14.622   1.290   4.863  0.0369 -0.1725  0.0279
  841loPI    C313115  14.291   1.391   4.664 -0.0362 -0.2242  0.1226
  841loPI   PO413116  14.273   1.552   5.179 -0.0026 -0.0240  0.2253
  841loPI   GL113117  13.931   1.649   5.283  0.3710  0.1316 -0.3212
  841loPI   GL213118  13.927   1.992   5.302  0.3458  0.2090  0.1660
  841loPI   C1A13119  13.506   1.786   5.513  0.2792  0.2017 -0.1519
  841loPI   C2A13120  13.406   1.678   5.900  0.3624 -0.1026  0.0307
  841loPI   C3A13121  13.156   1.619   6.264  0.0023  0.1025 -0.0233
  841loPI   C4A13122  12.789   1.744   6.426  0.0127 -0.0068 -0.0986
  841loPI   C5A13123  12.651   1.731   6.872  0.3033  0.2527 -0.1493
  841loPI   C6A13124  12.833   2.068   7.069 -0.1364 -0.1265  0.1643
  841loPI   C1B13125  14.221   2.010   5.621 -0.0797 -0.0329 -0.0929
  841loPI   C2B13126  14.264   2.223   5.939  0.0922 -0.2359  0.0655
  841loPI   C3B13127  14.325   2.209   6.349 -0.2938  0.1292  0.0727
  841loPI   C4B13128  14.400   2.035   6.769  0.1927 -0.4254 -0.0062
  842loPI    C113129   5.677  12.667   4.634 -0.2111  0.0401  0.2147
  842loPI    C213130   5.778  13.050   4.686 -0.1544  0.0179  0.2704
  842loPI    C313131   6.018  12.761   4.821 -0.0553 -0.0411 -0.0252
  842loPI   PO413132   5.539  12.636   4.695 -0.0348 -0.0300  0.0361
  842loPI   GL113133   5.477  12.805   5.078  0.0867 -0.0623 -0.1916
  842loPI   GL213134   5.677  12.594   5.170  0.0010  0.2251 -0.1920
  842loPI   C1A13135   5.441  12.830   5.569 -0.1499 -0.1822  0.2498
  842loPI   C2A13136   5.354  12.700   6.005 -0.0366  0.1237 -0.1149
  842loPI   C3A13137   5.324  13.000   6.294  0.3154  0.3860  0.2382
  842loPI   C4A13138   5.205  13.041   6.574  0.2013  0.1424 -0.3119
  842loPI   C5A13139   4.802  13.149   6.943 -0.5231  0.2954  0.1284
  842loPI   C6A13140   4.367  13.246   6.793  0.0593 -0.3548 -0.1420
  842loPI   C1B13141   5.924  12.978   5.311 -0.1732 -0.0487  0.0076
  842loPI   C2B13142   6.036  12.968   5.842 -0.0462  0.3477  0.0693
  842loPI   C3B13143   5.881  12.947   6.278  0.0247  0.3533 -0.1211
  842loPI   C4B13144   5.876  13.131   6.711  0.2617  0.0989 -0.0588
  843loPI    C113145  10.177   4.143   4.521 -0.1480  0.0919 -0.1366
  843loPI    C213146  10.136   3.868   4.809 -0.1655  0.1567 -0.0769
  843loPI    C313147  10.029   3.782   4.433 -0.0144  0.0250 -0.0911
  843loPI   PO413148  10.390   4.252   4.537 -0.0045 -0.2524  0.2276
  843loPI   GL113149  10.438   4.480   4.906  0.1614  0.0964  0.0773
  843loPI   GL213150  10.608   4.733   4.916  0.1080 -0.1088  0.4198
  843loPI   C1A13151  10.390   4.306   5.301  0.1797  0.0223  0.2692
  843loPI   C2A13152  10.611   4.186   5.665 -0.2869 -0.2491 -0.1474
  843loPI   C3A13153  10.519   4.361   5.989 -0.2231  0.0080  0.1248
  843loPI   C4A13154  10.491   4.433   6.379  0.0387  0.0986 -0.0072
  843loPI   C5A13155  10.500   4.398   6.837  0.1134  0.3629  0.2301
  843loPI   C6A13156  10.313   4.709   7.081  0.1322 -0.0575  0.1196
  843loPI   C1B13157  10.606   4.777   5.363  0.0093 -0.0719 -0.0843
  843loPI   C2B13158  10.340   4.825   5.727  0.0247 -0.1260 -0.1015
  843loPI   C3B13159  10.389   4.963   6.097  0.0608 -0.2708 -0.0873
  843loPI   C4B13160  10.356   5.171   6.570 -0.0376 -0.4222 -0.2255
  844loPI    C113161  10.263  10.458   5.226 -0.0195  0.3380  0.1377
  844loPI    C213162   9.981  10.470   4.942  0.1686  0.1686 -0.0597
  844loPI    C313163  10.367  10.507   4.843  0.2172  0.4181  0.2106
  844loPI   PO413164  10.216  10.689   5.367 -0.1351  0.0720  0.0797
  844loPI   GL113165  10.253  11.006   5.594  0.0124 -0.2775  0.1186
  844loPI   GL213166  10.039  11.232   5.673 -0.2141  0.1346  0.0176
  844loPI   C1A13167  10.430  10.822   5.972  0.0015  0.0253 -0.1077
  844loPI   C2A13168  10.520  10.946   6.393  0.0271 -0.0719 -0.0849
  844loPI   C3A13169  10.285  10.952   6.685  0.3052 -0.2352  0.0429
  844loPI   C4A13170  10.046  10.803   7.031 -0.0956  0.0282  0.0500
  844loPI   C5A13171   9.745  10.750   7.269 -0.1617 -0.2267  0.0396
  844loPI   C6A13172   9.493  10.989   7.570  0.2297 -0.2182 -0.3408
  844loPI   C1B13173   9.983  11.035   6.145 -0.1821 -0.0675  0.0987
  844loPI   C2B13174   9.819  10.901   6.536 -0.0787 -0.0178  0.1645
  844loPI   C3B13175   9.430  10.762   6.844 -0.2408  0.2631 -0.1173
  844loPI   C4B13176   9.176  10.813   7.124 -0.0030  0.2225 -0.3054
  845loPI    C113177   4.101   9.914   4.616  0.3555  0.1288 -0.1516
  845loPI    C213178   4.229   9.537   4.585 -0.1466 -0.0633  0.0072
  845loPI    C313179   4.123   9.739   4.257  0.2674 -0.0008 -0.0944
  845loPI   PO413180   4.279  10.072   4.774  0.0062  0.2269 -0.0879
  845loPI   GL113181   4.529   9.950   5.204 -0.1923 -0.1788  0.0470
  845loPI   GL213182   4.586  10.269   5.244 -0.3118  0.3406 -0.0973
  845loPI   C1A13183   4.284  10.087   5.582  0.3888  0.3784  0.1046
  845loPI   C2A13184   4.337  10.282   6.023 -0.0310 -0.1270  0.2134
  845loPI   C3A13185   4.252  10.335   6.541  0.1608  0.1121  0.0912
  845loPI   C4A13186   3.883  10.082   6.727 -0.1632  0.2225  0.0911
  845loPI   C5A13187   3.470   9.906   6.638 -0.1018 -0.0027  0.0298
  845loPI   C6A13188   3.432   9.501   6.681  0.1205 -0.2233  0.1190
  845loPI   C1B13189   4.738  10.139   5.700  0.0153 -0.4489  0.1084
  845loPI   C2B13190   4.787  10.141   6.133 -0.2758 -0.0527 -0.0602
  845loPI   C3B13191   4.737  10.145   6.629  0.1142 -0.1271 -0.1412
  845loPI   C4B13192   4.829  10.215   7.073 -0.0951 -0.0730 -0.0482
  846loPI    C113193  12.589   5.973   4.561  0.0230 -0.0201 -0.2399
  846loPI    C213194  12.835   5.866   4.265  0.1346 -0.1443 -0.1037
  846loPI    C313195  12.798   6.252   4.365  0.2412 -0.1209 -0.1529
  846loPI   PO413196  12.687   5.922   4.880 -0.1550 -0.3568  0.0980
  846loPI   GL113197  12.676   5.755   5.298 -0.2702  0.0862  0.0393
  846loPI   GL213198  12.852   5.873   5.496  0.0578 -0.1723  0.0829
  846loPI   C1A13199  12.239   5.565   5.495 -0.2013 -0.1943 -0.0799
  846loPI   C2A13200  12.152   5.661   5.836  0.0444 -0.0845 -0.2138
  846loPI   C3A13201  12.021   5.598   6.168 -0.4417 -0.0244 -0.2326
  846loPI   C4A13202  12.127   5.414   6.519 -0.2097  0.3747  0.0882
  846loPI   C5A13203  12.454   5.461   6.804  0.1913 -0.3538  0.0019
  846loPI   C6A13204  12.373   5.214   7.175  0.2896  0.1487 -0.1995
  846loPI   C1B13205  12.648   5.841   5.897 -0.1933 -0.0039  0.1990
  846loPI   C2B13206  12.565   5.681   6.261 -0.1203 -0.2068  0.1878
  846loPI   C3B13207  12.314   5.881   6.569  0.2441  0.2163  0.1782
  846loPI   C4B13208  12.347   6.014   6.983 -0.2775  0.1462 -0.0673
  847loPI    C113209   8.246   2.815   4.475  0.0753  0.1718 -0.0110
  847loPI    C213210   8.420   2.580   4.202 -0.0093 -0.0872  0.1541
  847loPI    C313211   8.086   2.780   4.111 -0.0316 -0.1646  0.0648
  847loPI   PO413212   8.512   2.708   4.702 -0.0914  0.1891 -0.2451
  847loPI   GL113213   8.633   2.724   5.129 -0.1597  0.0162  0.1032
  847loPI   GL213214   8.978   2.889   5.229  0.0591 -0.1124  0.0222
  847loPI   C1A13215   8.512   2.641   5.596 -0.2594 -0.2445  0.2786
  847loPI   C2A13216   8.329   2.676   6.032 -0.1319  0.2014  0.1229
  847loPI   C3A13217   8.424   2.687   6.474 -0.0562 -0.0180  0.0828
  847loPI   C4A13218   8.739   2.546   6.804  0.3277  0.1811 -0.3251
  847loPI   C5A13219   8.749   2.536   7.300 -0.1713  0.1001 -0.2970
  847loPI   C6A13220   9.001   2.647   7.546  0.3391  0.1559 -0.0223
  847loPI   C1B13221   9.107   2.983   5.580  0.0266 -0.4539  0.0238
  847loPI   C2B13222   9.337   3.325   5.841 -0.0800 -0.1331 -0.1624
  847loPI   C3B13223   9.638   3.586   5.936 -0.0976 -0.1104 -0.2082
  847loPI   C4B13224  10.039   3.467   6.117  0.0296  0.1520 -0.2732
  848loPI    C113225   1.062   9.731   4.375  0.0972  0.0610  0.0070
  848loPI    C213226   0.874   9.384   4.313  0.0335  0.0442  0.2826
  848loPI    C313227   1.092   9.548   4.020 -0.1907 -0.0697  0.0474
  848loPI   PO413228   0.924   9.837   4.527 -0.1374 -0.0023  0.0780
  848loPI   GL113229   0.883   9.601   4.848 -0.2015  0.2884  0.1573
  848loPI   GL213230   1.039   9.428   5.078 -0.0410  0.2987 -0.0139
  848loPI   C1A13231   0.514   9.425   5.040 -0.0154  0.0139 -0.0470
  848loPI   C2A13232   0.201   9.505   5.455  0.2375 -0.1731  0.5379
  848loPI   C3A13233   0.118   9.427   5.866  0.0201  0.0004  0.0859
  848loPI   C4A13234   0.055   9.667   6.226 -0.3168  0.1575 -0.1501
  848loPI   C5A13235   0.019  10.076   6.437  0.0257  0.1083  0.1154
  848loPI   C6A13236  -0.035  10.267   6.781  0.2041  0.2058  0.0434
  848loPI   C1B13237   1.067   9.110   5.302 -0.1041 -0.0689 -0.0532
  848loPI   C2B13238   1.021   8.905   5.731  0.1617  0.1610  0.0561
  848loPI   C3B13239   1.004   9.023   6.115  0.0844 -0.2896 -0.2501
  848loPI   C4B13240   0.785   8.793   6.468 -0.0965  0.0466 -0.0541
  849loPI    C113241   1.314  10.103   4.732  0.3669  0.2184 -0.1464
  849loPI    C213242   1.021  10.346   4.607  0.0979 -0.0176  0.0139
  849loPI    C313243   1.309  10.232   4.353 -0.1073 -0.0115 -0.2248
  849loPI   PO413244   1.163  10.014   4.914 -0.1854 -0.5400 -0.1897
  849loPI   GL113245   0.862  10.142   5.298 -0.1875  0.0599  0.0656
  849loPI   GL213246   0.861   9.877   5.250 -0.0454  0.3339  0.1871
  849loPI   C1A13247   1.077  10.308   5.500  0.1298 -0.1735  0.3814
  849loPI   C2A13248   1.206  10.448   5.906 -0.1001  0.4359 -0.2757
  849loPI   C3A13249   1.566  10.535   6.053  0.0551  0.1173  0.0186
  849loPI   C4A13250   1.753  10.627   6.404  0.1415  0.1514  0.4387
  849loPI   C5A13251   1.757  10.527   6.916  0.0618 -0.3256 -0.1592
  849loPI   C6A13252   1.550  10.423   7.270 -0.3309 -0.0501  0.0394
  849loPI   C1B13253   0.755   9.588   5.466  0.0990  0.0913  0.0006
  849loPI   C2B13254   1.043   9.401   5.790 -0.0032  0.3056  0.1981
  849loPI   C3B13255   0.992   9.464   6.270 -0.0586  0.1332 -0.0946
  849loPI   C4B13256   0.775   9.598   6.613  0.0904  0.1113  0.2366
  850loPI    C113257  11.523   3.662   4.533 -0.3984 -0.0177  0.1908
  850loPI    C213258  11.376   3.784   4.181 -0.2539 -0.0110  0.1322
  850loPI    C313259  11.221   3.462   4.362 -0.1568 -0.1715 -0.0655
  850loPI   PO413260  11.589   3.827   4.680 -0.2240  0.2253  0.1268
  850loPI   GL113261  11.807   3.804   4.993 -0.0986  0.0187 -0.0221
  850loPI   GL213262  11.604   3.826   5.290  0.1165 -0.2663 -0.0253
  850loPI   C1A13263  12.150   3.718   5.290  0.2259 -0.1537  0.2005
  850loPI   C2A13264  12.400   3.490   5.601  0.2193  0.1391 -0.1950
  850loPI   C3A13265  12.542   3.477   6.039 -0.1093 -0.1412  0.1788
  850loPI   C4A13266  12.543   3.545   6.548  0.3791 -0.0720 -0.4699
  850loPI   C5A13267  12.802   3.535   6.985  0.0413 -0.1468 -0.0272
  850loPI   C6A13268  12.949   3.899   7.276 -0.3550  0.1439 -0.0051
  850loPI   C1B13269  11.497   3.805   5.806 -0.1141 -0.2714 -0.0036
  850loPI   C2B13270  11.592   3.743   6.220  0.4333  0.1840  0.1611
  850loPI   C3B13271  11.814   3.674   6.689  0.1134 -0.1331  0.0751
  850loPI   C4B13272  12.172   3.552   6.905  0.2556 -0.0771  0.2833
  851loPI    C113273  17.972  11.551   4.448 -0.1162 -0.0279 -0.0311
  851loPI    C213274  18.125  11.784   4.161 -0.2085  0.0218 -0.0404
  851loPI    C313275  18.344  11.487   4.315 -0.0870  0.1199 -0.0218
  851loPI   PO413276  17.834  11.785   4.601  0.0534  0.3043 -0.1923
  851loPI   GL113277  17.655  12.013   4.947 -0.1141  0.0517 -0.1715
  851loPI   GL213278  17.832  12.184   5.107  0.0521  0.2582  0.2846
  851loPI   C1A13279  17.318  12.004   5.242 -0.0286  0.0855 -0.3578
  851loPI   C2A13280  17.402  12.147   5.611 -0.0527  0.1656  0.1119
  851loPI   C3A13281  17.272  12.379   5.949 -0.0586  0.2919 -0.1060
  851loPI   C4A13282  17.306  12.495   6.375  0.3794 -0.3031  0.1680
  851loPI   C5A13283  17.033  12.362   6.699  0.1092  0.0158  0.1401
  851loPI   C6A13284  16.818  12.249   7.040 -0.3281  0.0584  0.0027
  851loPI   C1B13285  17.873  12.062   5.535 -0.2755 -0.1226  0.4143
  851loPI   C2B13286  18.053  12.004   5.934 -0.1158  0.2680 -0.3540
  851loPI   C3B13287  18.142  12.186   6.332  0.2580 -0.0602  0.1978
  851loPI   C4B13288  18.313  12.439   6.645  0.0569  0.0959 -0.4007
  852loPI    C113289   4.095   5.611   4.781 -0.3532  0.3033 -0.1705
  852loPI    C213290   4.015   5.223   4.840  0.2950  0.2011  0.1206
  852loPI    C313291   3.980   5.381   4.475 -0.2006 -0.0674  0.0435
  852loPI   PO413292   4.291   5.617   4.911  0.0619 -0.1852 -0.0157
  852loPI   GL113293   4.174   5.577   5.301 -0.3920  0.4214 -0.0143
  852loPI   GL213294   3.865   5.311   5.313 -0.0619 -0.2222 -0.0329
  852loPI   C1A13295   4.331   5.267   5.602 -0.0586 -0.2152 -0.0171
  852loPI   C2A13296   4.434   5.387   6.013 -0.2265  0.1873  0.1986
  852loPI   C3A13297   4.374   5.512   6.356 -0.0041  0.1652 -0.4079
  852loPI   C4A13298   4.257   5.449   6.782  0.0367  0.0443 -0.1972
  852loPI   C5A13299   4.174   5.335   7.240 -0.2834  0.0912  0.2151
  852loPI   C6A13300   4.252   5.374   7.605 -0.1146 -0.0883 -0.1054
  852loPI   C1B13301   3.866   5.431   5.770 -0.3082  0.1932 -0.2092
  852loPI   C2B13302   4.000   5.662   6.084  0.2033  0.0716  0.1138
  852loPI   C3B13303   3.884   5.685   6.522  0.0785 -0.1690 -0.2594
  852loPI   C4B13304   3.874   5.783   6.893  0.4144  0.1065  0.1151
  853loPI    C113305  19.276  17.592   4.529 -0.1972  0.0094 -0.2074
  853loPI    C213306  19.530  17.290   4.460 -0.0912 -0.0080  0.2309
  853loPI    C313307  19.501  17.591   4.198  0.3360 -0.0377  0.1431
  853loPI   PO413308  19.221  17.607   4.808  0.1906 -0.1097  0.3404
  853loPI   GL113309  19.234  17.558   5.277  0.3542 -0.1270 -0.0602
  853loPI   GL213310  19.547  17.675   5.233 -0.0394  0.1470 -0.0592
  853loPI   C1A13311  19.368  17.216   5.555  0.1800  0.0891 -0.1612
  853loPI   C2A13312  19.231  16.897   5.909 -0.1997 -0.1310 -0.1912
  853loPI   C3A13313  19.464  16.780   6.226 -0.0222  0.0206 -0.3403
  853loPI   C4A13314  19.828  16.613   6.525 -0.0019  0.1629 -0.1502
  853loPI   C5A13315  20.093  16.419   6.814  0.0452 -0.2553  0.1567
  853loPI   C6A13316  20.348  15.996   6.787 -0.0287 -0.2026 -0.2197
  853loPI   C1B13317  19.508  17.980   5.670  0.1590 -0.0958  0.0987
  853loPI   C2B13318  19.259  18.087   5.986  0.1310 -0.0462  0.1079
  853loPI   C3B13319  19.223  18.243   6.356  0.0682  0.0454  0.0219
  853loPI   C4B13320  18.933  18.420   6.664  0.1659  0.0108 -0.4078
  854loPI    C113321  15.938   5.027   4.506  0.0435 -0.0451  0.0162
  854loPI    C213322  15.643   4.758   4.481  0.0183 -0.0236  0.0803
  854loPI    C313323  15.856   4.852   4.155  0.1008 -0.2035  0.0811
  854loPI   PO413324  15.792   5.181   4.795  0.1557 -0.0666  0.0903
  854loPI   GL113325  15.747   5.043   5.157 -0.0688  0.0579  0.0182
  854loPI   GL213326  15.922   4.758   4.970  0.2978 -0.1037 -0.1177
  854loPI   C1A13327  15.628   5.053   5.596  0.1633 -0.1962  0.0765
  854loPI   C2A13328  15.661   4.984   5.932  0.1104  0.1111 -0.1100
  854loPI   C3A13329  15.805   4.745   6.183 -0.2678 -0.0456  0.0846
  854loPI   C4A13330  15.621   4.756   6.559  0.0113  0.1127  0.2870
  854loPI   C5A13331  15.384   4.659   6.941 -0.1856 -0.3609 -0.0484
  854loPI   C6A13332  14.895   4.671   7.132 -0.0091  0.1165 -0.1344
  854loPI   C1B13333  15.903   4.590   5.374 -0.2250  0.1411  0.1159
  854loPI   C2B13334  16.001   4.119   5.641  0.1044  0.1678  0.4794
  854loPI   C3B13335  15.901   3.888   5.929  0.0504 -0.3242  0.1158
  854loPI   C4B13336  15.657   3.769   6.355  0.0105  0.3580 -0.0355
  855loPI    C113337   4.757  12.603   4.460 -0.0576 -0.1590  0.0428
  855loPI    C213338   4.646  12.744   4.102 -0.0884 -0.2443  0.0184
  855loPI    C313339   4.692  12.351   4.156  0.1160 -0.2171  0.0526
  855loPI   PO413340   4.630  12.846   4.623  0.0964 -0.1775 -0.2553
  855loPI   GL113341   4.909  12.929   5.077 -0.0111 -0.2837 -0.0029
  855loPI   GL213342   4.599  12.927   5.120 -0.3113  0.0234 -0.2224
  855loPI   C1A13343   5.068  13.132   5.421  0.0526 -0.1880 -0.0451
  855loPI   C2A13344   5.067  13.214   5.928 -0.1620  0.1942  0.0313
  855loPI   C3A13345   5.048  13.555   6.302 -0.0793 -0.2651 -0.0232
  855loPI   C4A13346   5.276  13.774   6.530 -0.2105  0.0243 -0.1929
  855loPI   C5A13347   5.312  14.124   6.843  0.0176 -0.0307 -0.3520
  855loPI   C6A13348   5.481  14.372   7.215  0.1853 -0.2311  0.0744
  855loPI   C1B13349   4.496  13.024   5.543  0.1875 -0.1684  0.4180
  855loPI   C2B13350   4.549  13.194   5.928  0.0240 -0.2096 -0.1852
  855loPI   C3B13351   4.679  13.217   6.408  0.2366 -0.0604 -0.0175
  855loPI   C4B13352   4.716  13.541   6.705  0.0855 -0.1492  0.1895
  856loPI    C113353   4.573  10.488   4.768  0.2952 -0.1570 -0.0978
  856loPI    C213354   4.466  10.695   4.442 -0.1255 -0.1048  0.0665
  856loPI    C313355   4.760  10.424   4.420  0.1511  0.2099 -0.2482
  856loPI   PO413356   4.640  10.730   4.944 -0.2941  0.2030  0.0054
  856loPI   GL113357   4.514  11.044   5.228  0.1889  0.0653  0.1766
  856loPI   GL213358   4.711  11.007   5.442 -0.1419  0.0671  0.0970
  856loPI   C1A13359   4.248  11.168   5.619 -0.2012  0.0229 -0.1858
  856loPI   C2A13360   4.152  11.105   6.016  0.0127  0.1804  0.2724
  856loPI   C3A13361   4.024  10.851   6.430 -0.0946  0.3280  0.2511
  856loPI   C4A13362   3.867  10.527   6.755 -0.1555 -0.3888  0.0191
  856loPI   C5A13363   3.677  10.337   7.106 -0.1089 -0.2219  0.0337
  856loPI   C6A13364   3.468  10.359   7.539 -0.3495 -0.0163 -0.2398
  856loPI   C1B13365   4.799  10.808   5.816  0.4426 -0.4718  0.1967
  856loPI   C2B13366   4.534  10.698   6.088 -0.0946 -0.1725  0.1810
  856loPI   C3B13367   4.487  10.929   6.423  0.2520 -0.3349  0.5649
  856loPI   C4B13368   4.237  11.265   6.621  0.0181 -0.0417 -0.1478
  857loPI    C113369  19.446   6.489   4.718 -0.2788  0.1385  0.0721
  857loPI    C213370  19.088   6.460   4.541 -0.2043  0.0673 -0.0688
  857loPI    C313371  19.344   6.747   4.429 -0.0994 -0.0688 -0.1815
  857loPI   PO413372  19.337   6.325   4.995 -0.2494 -0.0374  0.0144
  857loPI   GL113373  19.425   6.346   5.488 -0.0380  0.0249 -0.1712
  857loPI   GL213374  19.585   6.639   5.275  0.0391 -0.0906  0.1489
  857loPI   C1A13375  19.388   6.458   5.887 -0.0284  0.1011 -0.0019
  857loPI   C2A13376  19.303   6.523   6.390 -0.2715  0.2586 -0.0237
  857loPI   C3A13377  19.257   6.673   6.818  0.1844  0.2466 -0.3023
  857loPI   C4A13378  19.421   6.668   7.258  0.1269  0.1229 -0.0634
  857loPI   C5A13379  19.797   6.817   7.404  0.1343 -0.2483  0.1127
  857loPI   C6A13380  20.041   7.150   7.172 -0.1216  0.3073  0.0723
  857loPI   C1B13381  19.584   6.847   5.631  0.2202  0.1016  0.4343
  857loPI   C2B13382  19.482   7.015   6.096 -0.3080  0.3219 -0.0093
  857loPI   C3B13383  19.595   6.958   6.489 -0.0922  0.0455 -0.0300
  857loPI   C4B13384  19.770   6.839   6.879 -0.0453  0.1034 -0.3157
  858loPI    C113385   4.083   4.393   4.435 -0.2051  0.1744 -0.2088
  858loPI    C213386   3.773   4.212   4.258  0.0161 -0.2776 -0.1473
  858loPI    C313387   4.126   4.233   4.072 -0.0030  0.0916 -0.1494
  858loPI   PO413388   4.048   4.386   4.722  0.1743 -0.0387 -0.0333
  858loPI   GL113389   4.064   4.695   5.045  0.3030 -0.1606  0.1959
  858loPI   GL213390   4.320   4.524   5.142 -0.1351 -0.1957 -0.0370
  858loPI   C1A13391   4.045   4.842   5.464  0.1590 -0.5638 -0.3558
  858loPI   C2A13392   4.056   4.927   5.909  0.3379  0.1653  0.0523
  858loPI   C3A13393   3.963   5.117   6.197 -0.0542 -0.0319 -0.0914
  858loPI   C4A13394   3.988   5.153   6.487 -0.2261 -0.0203  0.3622
  858loPI   C5A13395   3.841   5.201   6.950  0.1005  0.0254  0.0756
  858loPI   C6A13396   3.655   5.468   7.240  0.0003  0.0046 -0.0725
  858loPI   C1B13397   4.514   4.594   5.495  0.0891 -0.2378 -0.2734
  858loPI   C2B13398   4.394   4.491   5.942 -0.0277 -0.2350  0.0297
  858loPI   C3B13399   4.637   4.510   6.276  0.0398  0.1640 -0.3657
  858loPI   C4B13400   4.664   4.559   6.668 -0.1474 -0.2988  0.1483
  859loPI    C113401  15.416   4.168   4.490  0.2248 -0.0190  0.1120
  859loPI    C213402  15.106   3.921   4.548  0.1039  0.0681 -0.1449
  859loPI    C313403  15.267   3.957   4.184 -0.0061  0.5125 -0.1553
  859loPI   PO413404  15.605   4.283   4.664 -0.0868 -0.3067 -0.1916
  859loPI   GL113405  15.792   3.975   5.117  0.0870  0.2688  0.0386
  859loPI   GL213406  15.681   3.757   5.288 -0.0772  0.1001 -0.0062
  859loPI   C1A13407  15.519   4.247   5.464 -0.1202  0.3556  0.0702
  859loPI   C2A13408  15.623   4.314   5.920 -0.0106  0.0512  0.6390
  859loPI   C3A13409  15.835   4.264   6.329 -0.2753 -0.1303 -0.4824
  859loPI   C4A13410  16.028   4.298   6.802  0.0962  0.0402 -0.1589
  859loPI   C5A13411  16.254   4.408   7.173 -0.0386 -0.0507  0.1217
  859loPI   C6A13412  16.659   4.595   7.139  0.0217 -0.3890 -0.0523
  859loPI   C1B13413  15.803   3.491   5.602 -0.1633 -0.0356  0.1019
  859loPI   C2B13414  15.904   3.367   6.002  0.2344  0.1957  0.1364
  859loPI   C3B13415  15.852   3.193   6.421 -0.0284  0.3129  0.6728
  859loPI   C4B13416  15.982   3.020   6.774  0.1572  0.1141 -0.3924
  860loPI    C113417   5.667  15.075   4.435  0.0574  0.0766 -0.1274
  860loPI    C213418   5.925  14.914   4.175  0.0817  0.1948 -0.1769
  860loPI    C313419   5.884  15.311   4.197  0.1563  0.1904  0.0731
  860loPI   PO413420   5.656  14.924   4.665  0.2705 -0.0167 -0.0416
  860loPI   GL113421   5.717  14.812   5.086  0.0253 -0.0355 -0.2379
  860loPI   GL213422   5.998  14.936   5.158 -0.1725 -0.4119  0.0604
  860loPI   C1A13423   5.465  14.770   5.420 -0.1677  0.3696 -0.0854
  860loPI   C2A13424   5.206  14.924   5.736 -0.1973 -0.2841  0.1942
  860loPI   C3A13425   5.026  14.918   6.184 -0.0580 -0.2231  0.0943
  860loPI   C4A13426   5.030  15.273   6.443 -0.2145 -0.0720 -0.0600
  860loPI   C5A13427   5.397  15.617   6.534  0.0905  0.1589  0.2961
  860loPI   C6A13428   5.640  15.575   6.907  0.1341  0.1861  0.1616
  860loPI   C1B13429   6.146  15.022   5.557 -0.2518  0.0252 -0.2000
  860loPI   C2B13430   6.356  15.087   5.979 -0.1929  0.0341  0.1333
  860loPI   C3B13431   6.596  15.359   6.170  0.0234 -0.2413  0.2653
  860loPI   C4B13432   6.747  15.281   6.570 -0.0656  0.2659  0.0918
  861loPI    C113433   9.706   1.244   4.954  0.0619  0.0955  0.1118
  861loPI    C213434   9.768   1.638   4.926 -0.1415  0.1175 -0.0619
  861loPI    C313435   9.420   1.500   5.066 -0.1796  0.0007 -0.2679
  861loPI   PO413436   9.857   1.132   5.135 -0.0852  0.1751  0.3029
  861loPI   GL113437   9.985   1.151   5.582  0.0766 -0.1978  0.0768
  861loPI   GL213438  10.254   1.056   5.463  0.1468  0.0161  0.0702
  861loPI   C1A13439  10.032   0.873   5.897 -0.1150  0.1813  0.0500
  861loPI   C2A13440  10.149   0.645   6.267 -0.0237 -0.0040  0.2495
  861loPI   C3A13441  10.174   0.690   6.704 -0.0105  0.3930 -0.1109
  861loPI   C4A13442  10.341   0.690   7.061 -0.1798 -0.0111  0.1895
  861loPI   C5A13443  10.287   0.501   7.482 -0.0396 -0.0239  0.2293
  861loPI   C6A13444  10.235   0.249   7.943  0.0260 -0.4466  0.2321
  861loPI   C1B13445  10.538   1.077   5.787 -0.1141 -0.3163 -0.0727
  861loPI   C2B13446  10.576   1.237   6.230 -0.2691  0.0521  0.1472
  861loPI   C3B13447  10.537   1.452   6.668  0.1285  0.1669 -0.2599
  861loPI   C4B13448  10.469   1.612   7.130 -0.1182 -0.0335  0.1020
  862loPI    C113449  15.000   1.738   4.697 -0.2414  0.2972 -0.1751
  862loPI    C213450  14.687   1.623   4.475 -0.0859 -0.0880 -0.2023
  862loPI    C313451  15.051   1.651   4.310 -0.0494  0.0614 -0.0990
  862loPI   PO413452  14.957   1.686   4.878 -0.1315  0.1914  0.0113
  862loPI   GL113453  14.769   1.784   5.380 -0.0989 -0.4379  0.0097
  862loPI   GL213454  15.090   1.898   5.286 -0.0420  0.0260 -0.1864
  862loPI   C1A13455  14.584   1.738   5.796 -0.2528  0.2518  0.2392
  862loPI   C2A13456  14.505   1.795   6.181  0.1851 -0.0706 -0.1141
  862loPI   C3A13457  14.180   1.638   6.457  0.0071 -0.0263 -0.3594
  862loPI   C4A13458  14.017   1.506   6.832 -0.6368  0.1215 -0.0237
  862loPI   C5A13459  13.979   1.365   7.302 -0.0264 -0.0141  0.1690
  862loPI   C6A13460  14.252   1.346   7.671  0.2378  0.1748  0.1034
  862loPI   C1B13461  15.109   1.705   5.768  0.1403 -0.1849  0.2874
  862loPI   C2B13462  15.015   1.658   6.167 -0.0103  0.3052  0.0141
  862loPI   C3B13463  15.239   1.677   6.521 -0.1516 -0.3324  0.4303
  862loPI   C4B13464  15.205   1.540   7.049 -0.3712  0.3346  0.0419
  863loPI    C113465   6.663   1.510   4.606  0.1279 -0.1010  0.1020
  863loPI    C213466   7.046   1.427   4.530  0.0828 -0.1346 -0.0954
  863loPI    C313467   6.760   1.291   4.286 -0.0508 -0.0599  0.0178
  863loPI   PO413468   6.652   1.404   4.823 -0.2445  0.0067  0.3120
  863loPI   GL113469   6.627   1.364   5.298 -0.2003 -0.1572 -0.0635
  863loPI   GL213470   6.926   1.357   5.628  0.2806 -0.0252  0.1101
  863loPI   C1A13471   6.364   1.260   5.656  0.2019  0.0013 -0.0519
  863loPI   C2A13472   6.479   1.418   6.138 -0.0733  0.1222 -0.1193
  863loPI   C3A13473   6.290   1.334   6.524 -0.0047 -0.0742  0.2159
  863loPI   C4A13474   6.214   1.273   7.020 -0.1583  0.0644 -0.1756
  863loPI   C5A13475   6.359   1.130   7.325  0.0176  0.1546 -0.0969
  863loPI   C6A13476   6.403   1.361   7.627 -0.2422 -0.0538  0.0791
  863loPI   C1B13477   6.938   1.132   6.030  0.0987  0.2639  0.1785
  863loPI   C2B13478   6.764   1.157   6.472  0.0549 -0.0448  0.2438
  863loPI   C3B13479   6.687   1.335   6.842 -0.0383 -0.0209 -0.1526
  863loPI   C4B13480   6.643   1.578   7.178  0.0891  0.0264  0.0519
  864loPI    C113481   4.296  11.628   4.577  0.0781 -0.0167  0.1261
  864loPI    C213482   4.469  11.904   4.345 -0.1251 -0.1441 -0.1841
  864loPI    C313483   4.496  11.517   4.249 -0.3117 -0.1897 -0.0597
  864loPI   PO413484   4.407  11.777   4.825  0.0107  0.1297 -0.2378
  864loPI   GL113485   4.276  11.827   5.169 -0.0071  0.1443 -0.2117
  864loPI   GL213486   4.413  12.089   5.229  0.2502  0.0837 -0.1154
  864loPI   C1A13487   4.150  11.659   5.497  0.2153  0.2420  0.0152
  864loPI   C2A13488   4.329  11.592   5.967 -0.1056  0.1208 -0.1639
  864loPI   C3A13489   4.368  11.668   6.375  0.1307  0.2462 -0.0241
  864loPI   C4A13490   4.602  11.725   6.662 -0.1760 -0.1129  0.2169
  864loPI   C5A13491   4.840  11.607   6.932  0.3266 -0.0372 -0.0106
  864loPI   C6A13492   4.842  11.552   7.315 -0.2415 -0.0757 -0.2612
  864loPI   C1B13493   4.366  12.056   5.798 -0.4318 -0.4135  0.2165
  864loPI   C2B13494   4.424  12.241   6.249 -0.1273 -0.0610  0.0247
  864loPI   C3B13495   4.709  12.291   6.669 -0.0236 -0.0794 -0.1042
  864loPI   C4B13496   4.767  12.148   7.042 -0.1126 -0.1012  0.1713
  865loPI    C113497  12.997   7.691   4.884 -0.3602  0.0775  0.0064
  865loPI    C213498  12.759   7.450   5.097 -0.1550 -0.2397 -0.1163
  865loPI    C313499  12.831   7.371   4.711  0.0432 -0.0727 -0.1154
  865loPI   PO413500  13.149   7.794   5.049 -0.3548 -0.2218  0.1233
  865loPI   GL113501  13.198   7.472   5.410  0.0978 -0.1364 -0.0800
  865loPI   GL213502  12.921   7.676   5.554 -0.4230 -0.0177 -0.0575
  865loPI   C1A13503  13.308   7.800   5.889 -0.0465 -0.0152 -0.2840
  865loPI   C2A13504  13.588   7.726   6.242  0.3473 -0.3195  0.1322
  865loPI   C3A13505  13.676   7.928   6.663 -0.1052 -0.0695  0.3065
  865loPI   C4A13506  13.700   8.057   7.035 -0.0565 -0.0030 -0.1565
  865loPI   C5A13507  13.896   8.244   7.364 -0.0709  0.5116 -0.0173
  865loPI   C6A13508  14.316   8.366   7.676 -0.1329 -0.2479 -0.3058
  865loPI   C1B13509  12.982   7.454   5.969 -0.0317 -0.2125 -0.0875
  865loPI   C2B13510  13.248   7.322   6.177 -0.0832  0.1858 -0.2574
  865loPI   C3B13511  13.367   6.930   6.349  0.1602 -0.2514  0.1795
  865loPI   C4B13512  13.364   6.704   6.700 -0.2160  0.0565  0.2962
  866loPI    C113513  10.223  10.010   4.730 -0.1706  0.0555 -0.0484
  866loPI    C213514   9.861  10.035   4.561 -0.0608  0.1569 -0.2726
  866loPI    C313515  10.165   9.870   4.360 -0.0494 -0.1996  0.0266
  866loPI   PO413516  10.127   9.947   5.039 -0.2364  0.0758  0.2211
  866loPI   GL113517  10.052   9.751   5.374  0.0515  0.2582  0.2668
  866loPI   GL213518  10.273   9.517   5.543 -0.3450 -0.0274  0.0656
  866loPI   C1A13519   9.908   9.805   5.826 -0.0158  0.2080 -0.0357
  866loPI   C2A13520   9.950  10.034   6.179  0.2414  0.0968 -0.0724
  866loPI   C3A13521   9.967  10.008   6.605  0.3360 -0.0153  0.1405
  866loPI   C4A13522   9.849   9.938   6.998 -0.4030  0.2538  0.0569
  866loPI   C5A13523  10.097   9.853   7.309 -0.4458 -0.1227  0.0464
  866loPI   C6A13524  10.153   9.846   7.696 -0.2098  0.1692 -0.2508
  866loPI   C1B13525  10.221   9.380   6.031 -0.0437  0.1319  0.2522
  866loPI   C2B13526   9.959   9.413   6.337  0.2720  0.2552 -0.1415
  866loPI   C3B13527   9.810   9.319   6.703  0.0566 -0.0194 -0.1759
  866loPI   C4B13528   9.507   9.537   7.104  0.0744  0.0719  0.0013
  867loPI    C113529   2.559   2.053   4.655 -0.0264 -0.2234  0.2107
  867loPI    C213530   2.556   1.901   4.285 -0.1003  0.0552  0.0944
  867loPI    C313531   2.864   1.828   4.528 -0.0360 -0.1028 -0.0332
  867loPI   PO413532   2.353   2.071   4.813 -0.0954  0.2543  0.0673
  867loPI   GL113533   2.382   2.127   5.294  0.0960 -0.1648  0.0486
  867loPI   GL213534   2.490   1.706   5.357  0.1485 -0.0056 -0.3180
  867loPI   C1A13535   2.160   1.891   5.643 -0.5043  0.3659  0.3961
  867loPI   C2A13536   2.150   1.908   6.046  0.2775 -0.1289  0.3723
  867loPI   C3A13537   2.132   1.872   6.618 -0.0964 -0.0235  0.0826
  867loPI   C4A13538   2.070   1.837   7.100 -0.1759 -0.2450 -0.1066
  867loPI   C5A13539   1.979   1.792   7.568  0.0477  0.1593 -0.0699
  867loPI   C6A13540   1.684   1.944   7.946 -0.0647 -0.4985  0.0692
  867loPI   C1B13541   2.696   1.687   5.824 -0.1869  0.1235 -0.3201
  867loPI   C2B13542   2.608   1.496   6.198 -0.1760  0.1751 -0.0986
  867loPI   C3B13543   2.519   1.280   6.543 -0.3576 -0.1222 -0.1003
  867loPI   C4B13544   2.364   0.827   6.500 -0.1007  0.3857 -0.1349
  868loPI    C113545   3.833   6.425   4.622 -0.0985 -0.2234  0.2627
  868loPI    C213546   4.112   6.142   4.663  0.2579  0.0652 -0.0852
  868loPI    C313547   3.900   6.165   4.325  0.0491  0.0578  0.0438
  868loPI   PO413548   3.799   6.429   4.878  0.2843 -0.0329  0.3229
  868loPI   GL113549   4.157   6.421   5.103  0.3829  0.1433 -0.0791
  868loPI   GL213550   4.429   6.556   5.197  0.0031 -0.2749  0.1081
  868loPI   C1A13551   4.015   6.274   5.562  0.2441  0.2437  0.0708
  868loPI   C2A13552   3.978   6.437   5.996 -0.2194 -0.2924  0.1998
  868loPI   C3A13553   4.010   6.456   6.405 -0.1377 -0.1033  0.0146
  868loPI   C4A13554   4.269   6.471   6.731 -0.3126 -0.0390 -0.2222
  868loPI   C5A13555   4.500   6.661   6.762 -0.0524  0.2399 -0.5545
  868loPI   C6A13556   4.799   6.748   7.140 -0.2282 -0.2907  0.3393
  868loPI   C1B13557   4.510   6.851   5.598  0.2177 -0.1273  0.3252
  868loPI   C2B13558   4.271   6.842   6.043  0.2325  0.4268 -0.2421
  868loPI   C3B13559   4.244   6.939   6.452 -0.0907  0.0439 -0.2537
  868loPI   C4B13560   4.130   7.157   6.886 -0.1420  0.0117  0.0997
  869loPI    C113561   1.470  13.053   4.317  0.0630 -0.1814  0.1518
  869loPI    C213562   1.697  12.934   4.010 -0.3103 -0.1981 -0.1242
  869loPI    C313563   1.301  12.879   4.000 -0.3854  0.2433  0.1454
  869loPI   PO413564   1.624  13.291   4.462  0.0314  0.2275  0.0521
  869loPI   GL113565   1.798  13.286   4.912  0.1810 -0.3652  0.2227
  869loPI   GL213566   2.017  13.542   4.705  0.3958 -0.3579  0.1529
  869loPI   C1A13567   2.028  13.093   5.111  0.2362  0.0474  0.0126
  869loPI   C2A13568   1.970  12.916   5.444 -0.0344  0.1162 -0.1053
  869loPI   C3A13569   1.743  12.773   5.846 -0.2354 -0.3015 -0.0779
  869loPI   C4A13570   1.767  12.823   6.298 -0.0660  0.2309  0.0688
  869loPI   C5A13571   1.950  13.038   6.790  0.0277  0.2222 -0.0652
  869loPI   C6A13572   2.099  13.379   6.887  0.2656  0.1889  0.0131
  869loPI   C1B13573   1.845  13.739   5.143  0.2252 -0.2273 -0.0467
  869loPI   C2B13574   1.743  13.441   5.462  0.3998 -0.0170 -0.1747
  869loPI   C3B13575   1.780  13.241   5.877 -0.0565 -0.0818 -0.4022
  869loPI   C4B13576   1.722  13.309   6.333  0.1084  0.2091 -0.2073
  870loPI    C113577   7.919  11.100   5.208  0.0695 -0.1630  0.0484
  870loPI    C213578   7.815  10.809   5.462  0.0544 -0.2200 -0.0228
  870loPI    C313579   7.796  10.746   5.067 -0.0816 -0.0763 -0.0402
  870loPI   PO413580   7.860  11.310   5.366 -0.0161  0.0535  0.0677
  870loPI   GL113581   8.122  11.581   5.586  0.2477  0.2414  0.2617
  870loPI   GL213582   8.219  11.857   5.722 -0.0241 -0.4616  0.1033
  870loPI   C1A13583   7.877  11.451   6.018  0.2329 -0.0986 -0.0145
  870loPI   C2A13584   7.541  11.396   6.260  0.0747 -0.3602 -0.2526
  870loPI   C3A13585   7.635  11.143   6.644  0.3205 -0.2114 -0.3253
  870loPI   C4A13586   7.790  11.270   6.991 -0.0348  0.1692  0.4653
  870loPI   C5A13587   7.839  11.417   7.410  0.2774 -0.3298 -0.3047
  870loPI   C6A13588   7.619  11.565   7.797 -0.0862 -0.0619  0.1593
  870loPI   C1B13589   8.099  11.867   6.208 -0.3209 -0.2251  0.0460
  870loPI   C2B13590   8.314  12.016   6.562 -0.2606 -0.1570  0.0678
  870loPI   C3B13591   8.459  12.213   6.931 -0.0511  0.1776  0.1915
  870loPI   C4B13592   8.455  12.669   7.141  0.0672 -0.2025 -0.2033
  871loPI    C113593   9.887   7.200   4.783  0.2893  0.0311 -0.3134
  871loPI    C213594   9.570   7.022   4.616  0.0753  0.1183 -0.0083
  871loPI    C313595   9.726   7.351   4.449 -0.0233  0.1017 -0.1347
  871loPI   PO413596  10.056   6.935   4.813  0.3273 -0.1609 -0.1375
  871loPI   GL113597   9.763   6.695   5.053  0.2716  0.2149  0.0661
  871loPI   GL213598   9.858   6.901   5.339  0.2823 -0.0813  0.0154
  871loPI   C1A13599  10.053   6.467   5.359 -0.0016 -0.0090  0.0958
  871loPI   C2A13600  10.073   6.269   5.639 -0.1198  0.2367 -0.0607
  871loPI   C3A13601  10.025   6.204   6.043  0.0572  0.0513 -0.0324
  871loPI   C4A13602   9.780   6.049   6.444  0.0272  0.0745 -0.1612
  871loPI   C5A13603   9.829   5.922   6.878 -0.0991  0.1038 -0.0056
  871loPI   C6A13604   9.996   5.733   7.154  0.0065 -0.2567  0.2959
  871loPI   C1B13605   9.914   6.806   5.838  0.1259 -0.0806  0.2400
  871loPI   C2B13606   9.838   6.589   6.215 -0.3490 -0.3632 -0.1792
  871loPI   C3B13607   9.603   6.501   6.682  0.0823 -0.0403  0.0584
  871loPI   C4B13608   9.319   6.381   6.997  0.1278  0.2876  0.2451
  872loPI    C113609  17.322   4.596   4.777 -0.0130 -0.0176  0.0536
  872loPI    C213610  16.937   4.703   4.791 -0.1008 -0.3056 -0.0735
  872loPI    C313611  17.212   4.962   4.660 -0.2079  0.0029  0.2915
  872loPI   PO413612  17.325   4.456   5.071 -0.0483 -0.1184  0.1053
  872loPI   GL113613  17.458   4.514   5.564 -0.1584 -0.1199  0.1082
  872loPI   GL213614  17.501   4.151   5.553  0.2693  0.0808 -0.0873
  872loPI   C1A13615  17.227   4.783   5.865 -0.0593 -0.2381  0.2672
  872loPI   C2A13616  17.154   4.615   6.251  0.1001  0.0505  0.1243
  872loPI   C3A13617  17.196   4.478   6.629 -0.0278  0.0851  0.1351
  872loPI   C4A13618  17.142   4.545   7.011 -0.1458  0.1222  0.2302
  872loPI   C5A13619  17.250   4.479   7.373  0.0464  0.1821  0.1673
  872loPI   C6A13620  17.363   4.524   7.700  0.0325  0.0569 -0.0857
  872loPI   C1B13621  17.386   4.185   5.991 -0.1524  0.2609  0.4475
  872loPI   C2B13622  17.222   4.063   6.323 -0.0447  0.2823 -0.0728
  872loPI   C3B13623  17.049   4.036   6.695  0.0438  0.0564  0.0952
  872loPI   C4B13624  16.749   4.167   7.010 -0.2801  0.0790  0.0146
  873loPI    C113625  16.354  14.678   3.978 -0.1374 -0.0932 -0.2472
  873loPI    C213626  16.696  14.607   4.173 -0.3167 -0.0654  0.0836
  873loPI    C313627  16.638  14.454   3.808 -0.0564 -0.2851  0.1318
  873loPI   PO413628  16.184  14.603   4.225  0.1662  0.0755 -0.6437
  873loPI   GL113629  16.094  14.699   4.724 -0.1661 -0.0489 -0.0371
  873loPI   GL213630  16.083  14.352   4.843 -0.2289 -0.2025 -0.0342
  873loPI   C1A13631  16.276  14.683   5.167  0.1829 -0.0963  0.2730
  873loPI   C2A13632  16.159  14.538   5.582  0.1006  0.2686  0.0425
  873loPI   C3A13633  15.799  14.621   5.898 -0.0502 -0.0011  0.1236
  873loPI   C4A13634  15.860  14.835   6.281  0.2809 -0.3740  0.0629
  873loPI   C5A13635  16.204  15.033   6.527  0.0523 -0.0034  0.0286
  873loPI   C6A13636  16.564  15.281   6.696  0.0205 -0.1053 -0.1324
  873loPI   C1B13637  16.114  14.109   5.235 -0.1912  0.3879  0.3700
  873loPI   C2B13638  16.266  13.943   5.655  0.0043  0.1020  0.0357
  873loPI   C3B13639  16.287  14.052   6.088 -0.0931  0.0634 -0.1969
  873loPI   C4B13640  16.495  14.021   6.579  0.0385  0.4410 -0.3341
  874loPI    C113641  18.063  13.359   4.384 -0.2412 -0.0503  0.1168
  874loPI    C213642  17.900  13.596   4.107 -0.0377  0.0366  0.0697
  874loPI    C313643  18.252  13.419   4.037 -0.0612 -0.0672  0.2106
  874loPI   PO413644  18.131  13.517   4.635  0.0268  0.1427 -0.0441
  874loPI   GL113645  17.936  13.877   4.967  0.0955 -0.0415  0.0664
  874loPI   GL213646  17.553  13.981   5.010  0.2332  0.1523 -0.1096
  874loPI   C1A13647  17.977  14.196   5.208  0.3139  0.2707 -0.1399
  874loPI   C2A13648  17.754  14.378   5.486 -0.1166  0.3426 -0.0993
  874loPI   C3A13649  17.420  14.629   5.811  0.0762  0.0227 -0.1051
  874loPI   C4A13650  17.128  14.668   6.156  0.0143  0.0148  0.1481
  874loPI   C5A13651  17.262  14.710   6.553 -0.1453  0.0077  0.1481
  874loPI   C6A13652  17.366  14.681   6.995 -0.1012 -0.1879  0.0475
  874loPI   C1B13653  17.432  13.906   5.358 -0.1296  0.0506  0.3494
  874loPI   C2B13654  17.904  13.793   5.625  0.1247 -0.0007 -0.1536
  874loPI   C3B13655  18.201  13.565   5.901 -0.2492  0.0361  0.3389
  874loPI   C4B13656  18.278  13.397   6.301 -0.1376  0.0967  0.0659
  875loPI    C113657  10.858  12.996   4.180 -0.0700 -0.0684  0.0292
  875loPI    C213658  10.852  13.071   3.787  0.2320 -0.0895  0.0182
  875loPI    C313659  10.580  12.826   3.949  0.0142  0.0374 -0.1518
  875loPI   PO413660  11.117  13.056   4.231  0.1255  0.0204 -0.1507
  875loPI   GL113661  11.345  13.053   4.614 -0.0375  0.0644  0.2095
  875loPI   GL213662  11.578  13.058   4.748  0.0420  0.1483  0.1005
  875loPI   C1A13663  11.161  13.323   4.979 -0.1252  0.0715  0.0785
  875loPI   C2A13664  11.342  13.355   5.345 -0.0863 -0.1854  0.0055
  875loPI   C3A13665  11.335  13.459   5.652  0.0605  0.0394  0.1523
  875loPI   C4A13666  11.165  13.518   6.090  0.2780  0.1227 -0.0160
  875loPI   C5A13667  10.925  13.783   6.416 -0.1266  0.1429  0.0170
  875loPI   C6A13668  10.758  13.918   6.906  0.2626  0.2386  0.2230
  875loPI   C1B13669  11.681  12.990   5.142  0.4147 -0.2160  0.1861
  875loPI   C2B13670  11.690  12.993   5.688 -0.0084  0.0814  0.3833
  875loPI   C3B13671  11.583  13.054   6.190  0.1864 -0.0510  0.2367
  875loPI   C4B13672  11.703  13.061   6.605 -0.1014 -0.2671  0.0875
  876loPI    C113673   5.969   9.165   4.805 -0.1335 -0.1184  0.1230
  876loPI    C213674   6.158   8.906   4.567 -0.0337 -0.0332  0.1091
  876loPI    C313675   5.923   9.188   4.409 -0.4595 -0.3603  0.1430
  876loPI   PO413676   6.165   9.101   5.081 -0.0399 -0.1249  0.1875
  876loPI   GL113677   6.596   9.087   5.378 -0.2264 -0.1636 -0.0793
  876loPI   GL213678   6.692   9.360   5.349  0.1320  0.1962  0.0021
  876loPI   C1A13679   6.480   9.283   5.824 -0.0706 -0.0729 -0.0692
  876loPI   C2A13680   6.610   9.351   6.225  0.0625 -0.2032  0.3308
  876loPI   C3A13681   6.771   9.305   6.664  0.0972  0.1943  0.5988
  876loPI   C4A13682   6.885   8.965   6.845  0.0725 -0.3250 -0.2877
  876loPI   C5A13683   6.929   8.727   7.247 -0.2527  0.1925  0.0184
  876loPI   C6A13684   7.166   8.528   7.575 -0.0933  0.1287  0.1906
  876loPI   C1B13685   6.785   9.589   5.656 -0.1058  0.1173 -0.0067
  876loPI   C2B13686   6.994   9.747   5.953 -0.3835  0.1577 -0.0762
  876loPI   C3B13687   6.876   9.755   6.411  0.0446 -0.0627 -0.1068
  876loPI   C4B13688   6.517   9.758   6.796  0.0879  0.1185  0.3476
  877loPI    C113689   2.001   8.218   4.611 -0.0847 -0.0789 -0.0224
  877loPI    C213690   1.903   8.605   4.580 -0.0316 -0.0480  0.1791
  877loPI    C313691   1.976   8.390   4.250 -0.0854  0.1069  0.0648
  877loPI   PO413692   2.012   8.251   4.878  0.0072  0.3884  0.2912
  877loPI   GL113693   1.787   8.124   5.214 -0.2875 -0.2054 -0.0227
  877loPI   GL213694   1.775   7.818   5.331  0.0210 -0.2547  0.3317
  877loPI   C1A13695   1.716   8.372   5.551 -0.0562  0.2250 -0.0635
  877loPI   C2A13696   1.626   8.841   5.728 -0.0265  0.3671 -0.0481
  877loPI   C3A13697   1.469   9.086   5.985 -0.0847 -0.0535 -0.1441
  877loPI   C4A13698   1.421   9.153   6.412  0.3145  0.1951 -0.1316
  877loPI   C5A13699   1.094   9.139   6.683 -0.0813 -0.0053  0.1934
  877loPI   C6A13700   1.026   9.035   7.104  0.0512  0.1206  0.0385
  877loPI   C1B13701   1.820   7.898   5.680 -0.1450  0.1850  0.0015
  877loPI   C2B13702   1.539   8.144   6.106  0.2808 -0.1748  0.1756
  877loPI   C3B13703   1.666   8.384   6.402  0.0261 -0.0400  0.1790
  877loPI   C4B13704   1.749   8.758   6.281 -0.2698 -0.3454  0.1657
  878loPI    C113705  18.065   9.974   4.280  0.2588  0.0276 -0.2095
  878loPI    C213706  17.874  10.082   3.946 -0.1701  0.1948  0.0799
  878loPI    C313707  17.764   9.750   4.141  0.0224  0.1428  0.1019
  878loPI   PO413708  18.176  10.119   4.512 -0.0129  0.0691  0.0024
  878loPI   GL113709  18.102   9.978   4.908 -0.2522 -0.0436 -0.0605
  878loPI   GL213710  17.897  10.277   4.858  0.0069  0.2812  0.4421
  878loPI   C1A13711  18.179  10.208   5.336 -0.3128  0.0753  0.1109
  878loPI   C2A13712  18.198  10.000   5.728 -0.0738  0.2904  0.0802
  878loPI   C3A13713  18.253  10.099   6.185  0.1956 -0.0722 -0.2525
  878loPI   C4A13714  18.129  10.352   6.539  0.3347  0.0420  0.1540
  878loPI   C5A13715  18.157  10.582   6.907  0.2211 -0.0206  0.1282
  878loPI   C6A13716  18.351  10.765   7.229  0.1507 -0.0130 -0.0767
  878loPI   C1B13717  17.661  10.355   5.251 -0.1183 -0.1340  0.1480
  878loPI   C2B13718  17.759  10.266   5.686  0.2913 -0.5180  0.1920
  878loPI   C3B13719  17.744  10.168   6.183 -0.2986 -0.0927 -0.0686
  878loPI   C4B13720  17.651  10.307   6.587  0.0130 -0.0024 -0.0153
  879loPI    C113721  16.501  15.096   4.305 -0.0550  0.3180 -0.3097
  879loPI    C213722  16.771  15.346   4.461 -0.1119  0.2483 -0.0969
  879loPI    C313723  16.868  15.116   4.148  0.2161 -0.0872  0.2407
  879loPI   PO413724  16.453  14.985   4.463  0.1630 -0.1271 -0.0868
  879loPI   GL113725  16.600  15.111   4.882  0.0371 -0.0353 -0.0631
  879loPI   GL213726  16.433  15.416   4.822 -0.0786 -0.0716 -0.2801
  879loPI   C1A13727  16.757  14.685   5.139  0.0857 -0.1112  0.0957
  879loPI   C2A13728  17.023  14.312   5.339 -0.1818 -0.0522  0.0276
  879loPI   C3A13729  17.208  14.217   5.720  0.0751 -0.2038  0.1968
  879loPI   C4A13730  17.537  14.083   5.816 -0.0133 -0.1393 -0.0433
  879loPI   C5A13731  17.645  13.903   6.154  0.0916  0.2046 -0.1269
  879loPI   C6A13732  17.509  13.870   6.628 -0.0790 -0.2709 -0.1737
  879loPI   C1B13733  16.494  15.460   5.314 -0.3523 -0.0690  0.0058
  879loPI   C2B13734  16.418  15.476   5.692  0.0290 -0.0254  0.1351
  879loPI   C3B13735  16.589  15.515   6.147 -0.1091 -0.0679 -0.2606
  879loPI   C4B13736  16.972  15.620   6.329  0.0965  0.2204 -0.0696
  880loPI    C113737  13.064  11.422   4.182 -0.0776  0.2303  0.1363
  880loPI    C213738  13.016  11.820   4.186 -0.2571  0.2136 -0.1223
  880loPI    C313739  12.903  11.608   3.866  0.1552 -0.0079 -0.1272
  880loPI   PO413740  13.029  11.303   4.447 -0.1430 -0.2577 -0.1077
  880loPI   GL113741  12.732  11.256   4.944  0.4519 -0.1689 -0.0794
  880loPI   GL213742  12.733  11.501   5.092 -0.0823 -0.1659 -0.0989
  880loPI   C1A13743  12.560  11.177   5.420 -0.0961 -0.2757  0.1822
  880loPI   C2A13744  12.671  11.345   5.773 -0.2233  0.1756 -0.2146
  880loPI   C3A13745  12.573  11.401   6.212 -0.1386 -0.4783  0.0931
  880loPI   C4A13746  12.447  11.516   6.701 -0.2287  0.2059  0.2277
  880loPI   C5A13747  12.232  11.438   7.015 -0.1934  0.0796 -0.1520
  880loPI   C6A13748  12.046  11.700   7.323 -0.0328 -0.0222 -0.0194
  880loPI   C1B13749  12.940  11.594   5.428 -0.1149 -0.0386  0.0434
  880loPI   C2B13750  13.030  11.613   5.981  0.0021 -0.0226 -0.0246
  880loPI   C3B13751  12.928  11.777   6.440  0.2271  0.0243 -0.3717
  880loPI   C4B13752  12.595  12.072   6.682 -0.0045  0.1636 -0.1504
  881loPI    C113753  15.292  17.125   4.758  0.0505 -0.0900  0.1171
  881loPI    C213754  15.245  17.442   4.518  0.1707 -0.1887 -0.0393
  881loPI    C313755  15.108  17.084   4.405  0.0540 -0.1981  0.1276
  881loPI   PO413756  15.463  17.153   4.912  0.0164  0.0409 -0.3472
  881loPI   GL113757  15.448  17.135   5.359 -0.0439  0.2843 -0.0240
  881loPI   GL213758  15.711  16.998   5.355 -0.2621 -0.3998  0.1872
  881loPI   C1A13759  15.231  17.546   5.651  0.4643  0.0282 -0.1262
  881loPI   C2A13760  15.259  17.599   6.037 -0.1565 -0.2355 -0.0954
  881loPI   C3A13761  15.212  17.725   6.453 -0.1870 -0.1499 -0.0746
  881loPI   C4A13762  15.216  17.707   6.901  0.0081 -0.5256 -0.2838
  881loPI   C5A13763  14.928  17.571   7.259 -0.2638 -0.0707 -0.1603
  881loPI   C6A13764  14.945  17.597   7.670  0.1705  0.1558  0.0688
  881loPI   C1B13765  15.627  17.271   5.791 -0.3676  0.0977 -0.0796
  881loPI   C2B13766  15.590  17.087   6.239  0.0472 -0.0916 -0.1481
  881loPI   C3B13767  15.302  16.895   6.530  0.2328 -0.0157  0.1165
  881loPI   C4B13768  14.902  16.779   6.585 -0.1150 -0.0171  0.0015
  882loPI    C113769  15.652   6.919   4.988  0.1778 -0.3349 -0.6225
  882loPI    C213770  15.528   7.138   4.677 -0.0373  0.0920 -0.2479
  882loPI    C313771  15.833   7.266   4.904 -0.1364 -0.0158 -0.0515
  882loPI   PO413772  15.432   6.873   5.125  0.0286 -0.0924 -0.2008
  882loPI   GL113773  15.091   6.856   5.386  0.2006 -0.3475  0.0467
  882loPI   GL213774  15.205   7.116   5.503 -0.0874 -0.1550 -0.1262
  882loPI   C1A13775  15.106   6.750   5.853  0.2312  0.0468 -0.2027
  882loPI   C2A13776  15.110   6.377   6.132 -0.0249  0.2973  0.3430
  882loPI   C3A13777  15.121   6.222   6.413 -0.2450 -0.0538 -0.0156
  882loPI   C4A13778  14.979   5.974   6.737  0.0519  0.1712 -0.3363
  882loPI   C5A13779  14.959   5.677   7.039  0.0540  0.2605  0.0956
  882loPI   C6A13780  15.274   5.458   7.214  0.0279 -0.2661  0.0676
  882loPI   C1B13781  15.079   7.479   5.787 -0.6526  0.2464 -0.3669
  882loPI   C2B13782  15.519   7.810   5.976  0.1052 -0.0390  0.0596
  882loPI   C3B13783  15.716   7.867   6.354  0.1183 -0.0062 -0.0785
  882loPI   C4B13784  15.972   7.843   6.746  0.1372 -0.0325 -0.2384
  883loPI    C113785   8.903   3.033   4.756  0.0847  0.3273  0.1994
  883loPI    C213786   9.143   3.200   4.484 -0.0381  0.1425 -0.0256
  883loPI    C313787   8.883   2.917   4.374 -0.0240 -0.0015  0.3014
  883loPI   PO413788   8.842   3.299   4.879  0.0744 -0.1813 -0.2292
  883loPI   GL113789   8.775   3.466   5.395 -0.1265 -0.1355 -0.0585
  883loPI   GL213790   8.528   3.183   5.366  0.1471 -0.0123  0.0361
  883loPI   C1A13791   8.806   3.487   5.773 -0.0381  0.2758  0.0606
  883loPI   C2A13792   8.975   3.570   6.155 -0.0716 -0.0480 -0.4292
  883loPI   C3A13793   8.915   3.480   6.607 -0.0204  0.2854  0.1128
  883loPI   C4A13794   9.120   3.134   6.897 -0.2124  0.0601  0.1235
  883loPI   C5A13795   9.502   3.020   7.050  0.3110  0.1062  0.0838
  883loPI   C6A13796   9.925   3.105   7.166 -0.0458  0.0918 -0.1032
  883loPI   C1B13797   8.637   3.076   5.931  0.0266  0.1643  0.2045
  883loPI   C2B13798   8.666   3.169   6.274  0.0177  0.1930  0.0911
  883loPI   C3B13799   8.612   3.072   6.762 -0.2061 -0.2735  0.1946
  883loPI   C4B13800   8.716   3.011   7.193 -0.1351  0.0718  0.2503
  884loPI    C113801   3.840  10.763   4.901 -0.1671  0.1222 -0.0597
  884loPI    C213802   4.048  10.568   4.621 -0.3022  0.1282 -0.1653
  884loPI    C313803   4.207  10.886   4.803 -0.1750  0.0642 -0.1631
  884loPI   PO413804   3.714  10.652   5.032  0.1394  0.0979 -0.1635
  884loPI   GL113805   3.634  10.486   5.429 -0.3468  0.2855  0.0773
  884loPI   GL213806   3.911  10.458   5.493  0.2975  0.2479  0.3192
  884loPI   C1A13807   3.501  10.525   5.912 -0.0910  0.1342 -0.2166
  884loPI   C2A13808   3.425  10.564   6.290 -0.2831  0.0101  0.3532
  884loPI   C3A13809   3.382  10.375   6.649 -0.0759  0.1457  0.2161
  884loPI   C4A13810   3.247  10.085   7.026  0.1904 -0.2540 -0.0409
  884loPI   C5A13811   3.374   9.703   7.267 -0.0881 -0.1418  0.2460
  884loPI   C6A13812   3.652   9.368   7.177 -0.1612  0.2383 -0.0454
  884loPI   C1B13813   3.846  10.073   5.788 -0.0581 -0.0007  0.4315
  884loPI   C2B13814   4.201   9.807   6.044  0.2454 -0.0064  0.0351
  884loPI   C3B13815   4.361   9.817   6.541 -0.0710  0.3202  0.0734
  884loPI   C4B13816   4.340   9.978   6.876 -0.0816  0.2865 -0.0213
  885loPI    C113817  11.288  10.999   4.418 -0.1546  0.1757 -0.0462
  885loPI    C213818  11.286  11.206   4.076 -0.3878  0.0574 -0.1184
  885loPI    C313819  11.388  10.819   4.075 -0.1615  0.1153 -0.0167
  885loPI   PO413820  11.420  11.152   4.602  0.0529 -0.0396  0.2054
  885loPI   GL113821  11.397  11.427   5.004 -0.1020  0.0792  0.1223
  885loPI   GL213822  11.163  11.211   5.092 -0.2767  0.0655 -0.3291
  885loPI   C1A13823  11.525  11.389   5.459  0.1241 -0.1125 -0.0564
  885loPI   C2A13824  11.469  11.449   5.867  0.2782 -0.1072  0.0676
  885loPI   C3A13825  11.404  11.573   6.242 -0.1787 -0.2898 -0.0981
  885loPI   C4A13826  11.480  11.740   6.654  0.3364  0.1481 -0.0304
  885loPI   C5A13827  11.747  11.735   6.913  0.1505  0.2934 -0.1957
  885loPI   C6A13828  12.121  11.845   6.814  0.2605  0.0648  0.0720
  885loPI   C1B13829  11.042  11.220   5.445 -0.0694  0.1304 -0.1017
  885loPI   C2B13830  10.627  11.413   5.714  0.2009 -0.3156  0.0192
  885loPI   C3B13831  10.545  11.334   6.094 -0.3618 -0.0061  0.0017
  885loPI   C4B13832  10.246  11.440   6.367 -0.0376  0.3650  0.0584
  886loPI    C113833  10.840  17.201   4.603  0.1079  0.3243  0.2461
  886loPI    C213834  11.192  17.065   4.469 -0.1065  0.1882 -0.1956
  886loPI    C313835  10.871  16.826   4.467 -0.1474  0.2217  0.4630
  886loPI   PO413836  10.952  17.342   4.853 -0.0075  0.4491  0.1285
  886loPI   GL113837  11.067  17.119   5.280  0.2405  0.1484 -0.1013
  886loPI   GL213838  10.840  17.426   5.323  0.0236 -0.2882  0.0195
  886loPI   C1A13839  10.734  17.075   5.704 -0.2029  0.2795 -0.0890
  886loPI   C2A13840  10.603  16.668   5.865 -0.1561 -0.2383 -0.1508
  886loPI   C3A13841  10.510  16.413   6.294  0.2362 -0.1817 -0.1664
  886loPI   C4A13842  10.437  16.029   6.369 -0.2490  0.0171  0.2262
  886loPI   C5A13843  10.327  15.837   6.758  0.0635 -0.3055 -0.1036
  886loPI   C6A13844  10.316  15.457   6.969  0.2228  0.2607 -0.1586
  886loPI   C1B13845  10.873  17.763   5.524 -0.1567 -0.4196  0.0287
  886loPI   C2B13846  11.256  17.890   5.848  0.6570  0.2462  0.4101
  886loPI   C3B13847  11.542  18.177   6.041  0.1087  0.3739  0.2638
  886loPI   C4B13848  11.965  18.334   6.245  0.2546 -0.1158  0.0680
  887loPI    C113849   7.997   6.897   4.790  0.0952 -0.2532 -0.0448
  887loPI    C213850   7.846   6.681   4.489  0.0819  0.0291 -0.2444
  887loPI    C313851   7.886   7.077   4.451  0.0564  0.0726  0.1365
  887loPI   PO413852   7.820   6.732   5.020 -0.4289 -0.0229 -0.0213
  887loPI   GL113853   7.592   6.692   5.391 -0.2229 -0.0275  0.0498
  887loPI   GL213854   7.786   6.829   5.633  0.1569  0.0553  0.2033
  887loPI   C1A13855   7.267   6.553   5.674 -0.0049 -0.0183  0.0807
  887loPI   C2A13856   6.948   6.560   5.975 -0.2000  0.1678  0.1277
  887loPI   C3A13857   6.922   6.450   6.395  0.1114  0.2509 -0.2012
  887loPI   C4A13858   7.073   6.616   6.724 -0.1099  0.1159 -0.0184
  887loPI   C5A13859   7.286   6.819   7.143  0.1648  0.1727  0.1040
  887loPI   C6A13860   7.562   7.195   7.247 -0.1492  0.2891  0.0699
  887loPI   C1B13861   7.695   6.639   5.990 -0.1906  0.0885 -0.4034
  887loPI   C2B13862   7.788   6.484   6.377 -0.2442 -0.0979  0.0615
  887loPI   C3B13863   7.783   6.427   6.759 -0.1244 -0.3044 -0.1442
  887loPI   C4B13864   7.751   6.446   7.244  0.2642 -0.2164 -0.1122
  888loPI    C113865  18.802   2.118   4.800 -0.1344 -0.2405 -0.0668
  888loPI    C213866  18.753   2.186   4.409  0.1562  0.1101 -0.0478
  888loPI    C313867  19.087   2.010   4.541  0.0291 -0.0689  0.0380
  888loPI   PO413868  18.756   2.357   4.956 -0.0981 -0.0073 -0.4566
  888loPI   GL113869  18.661   2.284   5.313 -0.1488  0.0177  0.2955
  888loPI   GL213870  18.947   1.963   5.334 -0.0842  0.1563  0.1056
  888loPI   C1A13871  18.522   2.445   5.724 -0.1318  0.0005  0.0095
  888loPI   C2A13872  18.428   2.386   6.105  0.0716 -0.3467 -0.1725
  888loPI   C3A13873  18.187   2.537   6.451 -0.1926  0.0155  0.1382
  888loPI   C4A13874  18.113   2.784   6.833 -0.3269  0.3106 -0.3180
  888loPI   C5A13875  18.009   3.010   7.164 -0.2010  0.2927  0.1538
  888loPI   C6A13876  17.754   3.103   7.561 -0.0036 -0.1388  0.1425
  888loPI   C1B13877  18.875   1.979   5.772 -0.0518  0.0845  0.0771
  888loPI   C2B13878  18.830   2.070   6.273 -0.1140 -0.0039  0.3461
  888loPI   C3B13879  18.735   2.058   6.719  0.0145  0.1449  0.0413
  888loPI   C4B13880  18.764   1.937   7.110 -0.2339  0.1762 -0.1769
  889loPI    C113881   6.626  10.357   4.786 -0.1109 -0.1329  0.0882
  889loPI    C213882   6.257  10.338   4.633 -0.0156  0.2931 -0.2113
  889loPI    C313883   6.574  10.353   4.389  0.1978  0.0331  0.0432
  889loPI   PO413884   6.604  10.333   4.996  0.0495 -0.1664  0.0188
  889loPI   GL113885   6.702  10.403   5.415  0.1483 -0.1942 -0.0862
  889loPI   GL213886   6.907  10.529   5.462  0.2038  0.0594  0.3079
  889loPI   C1A13887   6.487  10.659   5.763 -0.0989 -0.1287  0.1416
  889loPI   C2A13888   6.165  10.799   5.965 -0.0882  0.3296  0.1081
  889loPI   C3A13889   6.020  10.494   6.237 -0.0592  0.0403  0.0357
  889loPI   C4A13890   5.736  10.398   6.575 -0.0228  0.0123 -0.1239
  889loPI   C5A13891   5.882  10.647   6.862  0.0794  0.2369  0.2868
  889loPI   C6A13892   6.159  10.956   6.999 -0.1604 -0.1300  0.3715
  889loPI   C1B13893   6.955  10.653   5.873  0.2349 -0.2678  0.2282
  889loPI   C2B13894   6.992  10.765   6.259  0.1685 -0.1493  0.0423
  889loPI   C3B13895   7.201  10.898   6.638 -0.3418  0.0504 -0.2089
  889loPI   C4B13896   7.122  11.065   7.054 -0.0920  0.2041  0.0904
  890loPI    C113897  11.264  18.541   4.416  0.0879 -0.0385 -0.1253
  890loPI    C213898  11.256  18.372   4.054  0.1080  0.2304 -0.2540
  890loPI    C313899  11.011  18.677   4.138 -0.0152  0.0613  0.0158
  890loPI   PO413900  11.353  18.355   4.665 -0.0740 -0.2140  0.1070
  890loPI   GL113901  11.185  18.403   5.036  0.0371 -0.2150 -0.1647
  890loPI   GL213902  11.346  18.619   5.224  0.1288 -0.3339  0.1474
  890loPI   C1A13903  11.156  18.173   5.398  0.1974 -0.3707  0.1731
  890loPI   C2A13904  11.116  18.351   5.777 -0.0927  0.0358  0.0660
  890loPI   C3A13905  11.122  18.497   6.154 -0.1343 -0.1685  0.0867
  890loPI   C4A13906  11.120  18.634   6.593  0.1395 -0.2471 -0.0071
  890loPI   C5A13907  11.257  18.612   7.092  0.1702  0.0517 -0.0191
  890loPI   C6A13908  11.459  18.903   7.279  0.0071  0.0065 -0.1043
  890loPI   C1B13909  11.632  18.831   5.535 -0.0652  0.0245 -0.1833
  890loPI   C2B13910  11.589  18.807   5.918 -0.0666 -0.1919 -0.4618
  890loPI   C3B13911  11.559  18.702   6.347 -0.0219 -0.2488  0.0294
  890loPI   C4B13912  11.744  18.567   6.736 -0.0173 -0.0671  0.0898
  891loPI    C113913  18.160   3.099   4.825  0.0796  0.0469 -0.0772
  891loPI    C213914  17.893   3.045   4.532 -0.1386  0.1664  0.0968
  891loPI    C313915  17.917   2.781   4.832  0.0308  0.0861  0.0144
  891loPI   PO413916  18.449   3.154   4.647  0.1079 -0.1470  0.2490
  891loPI   GL113917  18.712   3.237   4.945 -0.1130 -0.0853 -0.2112
  891loPI   GL213918  18.967   3.143   4.914  0.1216 -0.1608 -0.0881
  891loPI   C1A13919  18.587   3.093   5.351  0.0617  0.0470  0.1091
  891loPI   C2A13920  18.459   3.282   5.732 -0.2692  0.0699  0.0479
  891loPI   C3A13921  18.559   3.261   6.200 -0.2029  0.4030 -0.1524
  891loPI   C4A13922  18.600   3.159   6.604 -0.0763  0.1733 -0.0446
  891loPI   C5A13923  18.550   3.179   6.980  0.0072  0.0593  0.0282
  891loPI   C6A13924  18.490   2.935   7.194 -0.0704  0.5268  0.1585
  891loPI   C1B13925  19.048   3.353   5.287 -0.3110 -0.2023 -0.0447
  891loPI   C2B13926  19.050   3.223   5.637  0.2317 -0.1710  0.0240
  891loPI   C3B13927  19.158   2.887   5.939 -0.1468 -0.2009 -0.2065
  891loPI   C4B13928  19.165   2.870   6.454  0.0437 -0.1907 -0.0238
  892loPI    C113929  15.443   0.678   5.100  0.1793  0.0911  0.0575
  892loPI    C213930  15.435   0.849   4.739  0.0272  0.1286  0.0780
  892loPI    C313931  15.479   0.453   4.772 -0.0217  0.1179  0.0161
  892loPI   PO413932  15.307   0.941   5.234  0.2080 -0.3134  0.3674
  892loPI   GL113933  15.107   1.037   5.552 -0.1650  0.0884  0.2139
  892loPI   GL213934  14.898   0.848   5.669 -0.0366 -0.0701 -0.1000
  892loPI   C1A13935  15.299   1.222   5.911  0.0224  0.1292  0.0481
  892loPI   C2A13936  15.280   1.195   6.377 -0.0214  0.2900  0.0341
  892loPI   C3A13937  15.542   1.225   6.737  0.2650  0.2399 -0.0225
  892loPI   C4A13938  15.602   1.251   7.200  0.0029 -0.4380 -0.1583
  892loPI   C5A13939  15.720   1.658   7.328  0.1088  0.0914  0.0053
  892loPI   C6A13940  15.658   2.113   7.114 -0.1713 -0.1163  0.2057
  892loPI   C1B13941  14.792   0.777   6.080 -0.1820 -0.0835 -0.0506
  892loPI   C2B13942  15.067   0.729   6.537  0.0980 -0.1778 -0.1628
  892loPI   C3B13943  15.329   0.822   6.888 -0.1422 -0.0352  0.0702
  892loPI   C4B13944  15.490   0.776   7.369  0.0179  0.0698  0.4289
  893loPI    C113945   0.909   0.133   4.794  0.0210 -0.0475 -0.1953
  893loPI    C213946   0.572  -0.040   4.924  0.1243 -0.3077 -0.2674
  893loPI    C313947   0.612   0.056   4.537 -0.2016  0.5090 -0.1200
  893loPI   PO413948   1.068  -0.118   4.974  0.1023 -0.3991 -0.1770
  893loPI   GL113949   1.270  -0.368   5.220  0.0063 -0.1313  0.0077
  893loPI   GL213950   1.467  -0.676   5.271  0.0180 -0.0166  0.0056
  893loPI   C1A13951   1.131  -0.538   5.591  0.1160  0.0421 -0.1759
  893loPI   C2A13952   0.915  -0.510   5.907 -0.0753  0.2440 -0.1061
  893loPI   C3A13953   0.975  -0.635   6.326  0.1762 -0.3576 -0.1239
  893loPI   C4A13954   0.836  -0.610   6.703 -0.2509  0.2542 -0.1037
  893loPI   C5A13955   0.648  -0.329   6.989 -0.1149 -0.0951  0.1569
  893loPI   C6A13956   0.666  -0.026   7.430  0.1089 -0.1028  0.0773
  893loPI   C1B13957   1.443  -0.872   5.721 -0.0434  0.0698  0.1782
  893loPI   C2B13958   1.450  -0.686   6.124  0.0108  0.1270  0.2657
  893loPI   C3B13959   1.797  -0.477   6.288  0.5250 -0.1170 -0.1360
  893loPI   C4B13960   1.919  -0.734   6.540 -0.0004 -0.1966 -0.0218
  894loPI    C113961  15.565   6.412   4.946 -0.0991  0.0603 -0.0690
  894loPI    C213962  15.422   6.214   4.629  0.1096  0.1910 -0.2479
  894loPI    C313963  15.405   6.613   4.639 -0.0329  0.1807 -0.0253
  894loPI   PO413964  15.858   6.402   5.020  0.0599 -0.3079  0.1041
  894loPI   GL113965  16.156   6.507   5.403 -0.1194  0.1196 -0.1127
  894loPI   GL213966  15.952   6.757   5.354  0.5175  0.3659  0.0222
  894loPI   C1A13967  16.498   6.795   5.607 -0.2843 -0.1934 -0.0387
  894loPI   C2A13968  16.406   6.809   5.952  0.2236  0.1303 -0.0228
  894loPI   C3A13969  16.519   6.657   6.345 -0.0025 -0.2080  0.2085
  894loPI   C4A13970  16.384   6.458   6.733 -0.1262  0.4528 -0.0071
  894loPI   C5A13971  16.380   6.176   7.106 -0.3343 -0.2713 -0.3302
  894loPI   C6A13972  16.707   5.841   7.318  0.0683 -0.1061  0.0728
  894loPI   C1B13973  15.908   7.062   5.639  0.5170 -0.0365  0.1189
  894loPI   C2B13974  15.942   7.027   6.004  0.2346  0.0654  0.1065
  894loPI   C3B13975  16.088   6.914   6.386  0.2071 -0.0097 -0.1868
  894loPI   C4B13976  15.989   6.894   6.797  0.2612  0.2898 -0.1525
  895loPI    C113977  17.437  15.150   4.026 -0.2101 -0.2953  0.0198
  895loPI    C213978  17.590  15.318   3.697  0.0112 -0.3949  0.0701
  895loPI    C313979  17.195  15.324   3.760  0.0144  0.1286  0.0843
  895loPI   PO413980  17.560  15.239   4.280 -0.3304 -0.3967 -0.1364
  895loPI   GL113981  17.423  15.157   4.678 -0.0871 -0.2461  0.0131
  895loPI   GL213982  17.642  14.941   4.650 -0.1914  0.0603 -0.2381
  895loPI   C1A13983  17.050  15.183   5.052  0.1719 -0.4463 -0.0319
  895loPI   C2A13984  16.962  15.318   5.469  0.2623 -0.0264  0.1619
  895loPI   C3A13985  16.983  15.407   5.845  0.0515  0.1320  0.2942
  895loPI   C4A13986  17.087  15.143   6.202 -0.2270 -0.0347  0.1029
  895loPI   C5A13987  17.145  15.189   6.549  0.1807 -0.0337  0.1973
  895loPI   C6A13988  17.406  15.213   6.841  0.2801  0.0311 -0.0741
  895loPI   C1B13989  17.843  15.028   5.066  0.0248 -0.0936 -0.0067
  895loPI   C2B13990  17.762  14.869   5.438  0.1646  0.1474 -0.1504
  895loPI   C3B13991  17.865  14.783   5.852 -0.1293  0.0501 -0.1367
  895loPI   C4B13992  18.190  14.682   5.997 -0.0456 -0.0393  0.2839
  896loPI    C113993  17.768   4.297   4.836  0.2013 -0.2074  0.0282
  896loPI    C213994  17.811   3.930   4.683  0.1329 -0.1367 -0.1631
  896loPI    C313995  17.473   4.134   4.620  0.0885 -0.1211  0.1161
  896loPI   PO413996  17.880   4.218   5.146 -0.1661  0.2871 -0.0899
  896loPI   GL113997  17.996   4.289   5.444 -0.0250 -0.0773 -0.0186
  896loPI   GL213998  17.945   4.588   5.623 -0.0396 -0.1287 -0.1045
  896loPI   C1A13999  17.856   4.102   5.835 -0.0255  0.0997  0.2323
  896loPI   C2A14000  17.742   3.914   6.208  0.3045  0.0602  0.2114
  896loPI   C3A14001  17.910   3.874   6.675 -0.2928  0.2820  0.2687
  896loPI   C4A14002  17.892   4.053   7.063 -0.2232  0.3467  0.1068
  896loPI   C5A14003  18.210   4.080   7.425 -0.1289 -0.1175  0.0886
  896loPI   C6A14004  18.402   4.298   7.694 -0.2303  0.0988 -0.0120
  896loPI   C1B14005  17.840   4.548   6.016  0.2652  0.0349  0.1947
  896loPI   C2B14006  17.635   4.407   6.323  0.0895  0.3845  0.0161
  896loPI   C3B14007  17.615   4.272   6.623  0.0443 -0.1464  0.0892
  896loPI   C4B14008  17.354   4.105   7.072  0.0395  0.4017 -0.2720
  897loPI    C114009  16.882  19.116   4.376  0.0302 -0.3471 -0.2660
  897loPI    C214010  16.499  19.225   4.410  0.2082  0.2019  0.1212
  897loPI    C314011  16.700  19.304   4.073 -0.0465 -0.2115 -0.1370
  897loPI   PO414012  16.930  19.083   4.643 -0.1087  0.0520 -0.0280
  897loPI   GL114013  16.999  19.059   5.100 -0.3934  0.0390 -0.2447
  897loPI   GL214014  17.230  18.789   5.223  0.2090  0.0614  0.1718
  897loPI   C1A14015  17.086  19.393   5.469  0.3561 -0.1151 -0.3233
  897loPI   C2A14016  16.954  19.678   5.899 -0.5309  0.0007 -0.0662
  897loPI   C3A14017  16.845  19.808   6.292  0.1182  0.0024 -0.0804
  897loPI   C4A14018  16.954  19.911   6.642  0.3788 -0.1422 -0.2407
  897loPI   C5A14019  17.000  20.046   7.144  0.0644 -0.0097  0.2425
  897loPI   C6A14020  17.316  20.364   7.182  0.0633  0.1094 -0.2117
  897loPI   C1B14021  17.490  19.143   5.374 -0.2638  0.0572 -0.3763
  897loPI   C2B14022  17.398  19.302   5.838  0.0772  0.0027 -0.3282
  897loPI   C3B14023  17.683  19.463   6.086 -0.0383  0.0166  0.0072
  897loPI   C4B14024  18.038  19.527   6.276 -0.1700 -0.2059 -0.0526
  898loPI    C114025  12.462  16.542   4.433 -0.1458  0.1943  0.1440
  898loPI    C214026  12.180  16.266   4.363  0.1751 -0.1264  0.0898
  898loPI    C314027  12.164  16.620   4.177  0.0332 -0.2963 -0.2296
  898loPI   PO414028  12.451  16.502   4.722 -0.1583  0.3177 -0.5038
  898loPI   GL114029  12.340  16.270   5.068 -0.0588  0.2825  0.1520
  898loPI   GL214030  12.362  15.996   4.805  0.1565  0.2853 -0.0978
  898loPI   C1A14031  12.041  16.057   5.449  0.2070 -0.0625 -0.0164
  898loPI   C2A14032  11.808  15.918   5.805  0.0094  0.2111 -0.1859
  898loPI   C3A14033  11.707  15.897   6.292 -0.0293  0.0751  0.0208
  898loPI   C4A14034  11.384  15.899   6.585  0.3063 -0.2539  0.0906
  898loPI   C5A14035  11.111  16.146   6.889  0.1211  0.2941  0.1096
  898loPI   C6A14036  10.928  16.107   7.329 -0.1007  0.1825 -0.1451
  898loPI   C1B14037  12.339  15.620   5.092  0.5487 -0.0167 -0.0550
  898loPI   C2B14038  11.956  15.565   5.423 -0.0903  0.0670 -0.0221
  898loPI   C3B14039  11.927  15.454   5.862  0.1072  0.0837  0.1494
  898loPI   C4B14040  12.027  15.352   6.322 -0.4014  0.1513 -0.0838
  899loPI    C114041  17.963   9.442   4.536 -0.2519 -0.1323  0.0402
  899loPI    C214042  18.111   9.090   4.419 -0.0530  0.0648 -0.3180
  899loPI    C314043  17.794   9.245   4.232 -0.2291  0.0132 -0.0676
  899loPI   PO414044  17.946   9.468   4.783  0.0475  0.1873 -0.0260
  899loPI   GL114045  18.205   9.109   4.981 -0.3983 -0.0653 -0.1866
  899loPI   GL214046  18.364   8.836   5.140  0.3637  0.0033  0.0166
  899loPI   C1A14047  17.904   9.117   5.378  0.2190  0.2626 -0.3834
  899loPI   C2A14048  17.853   8.985   5.742 -0.1543 -0.1772  0.0658
  899loPI   C3A14049  17.874   8.887   6.126 -0.0648  0.2797  0.1179
  899loPI   C4A14050  18.004   8.934   6.530  0.2562  0.1205 -0.2140
  899loPI   C5A14051  17.766   8.942   6.938  0.2547 -0.1558  0.2433
  899loPI   C6A14052  17.628   9.307   7.157 -0.2467  0.0419 -0.2273
  899loPI   C1B14053  18.329   9.022   5.598 -0.2037  0.2124  0.0785
  899loPI   C2B14054  18.320   9.043   5.950  0.0367  0.1741  0.1830
  899loPI   C3B14055  18.445   8.771   6.268 -0.4098 -0.0968 -0.1507
  899loPI   C4B14056  18.375   8.622   6.655  0.1036 -0.0227  0.1913
  900loPI    C114057   1.507   7.204   4.396 -0.1558  0.3649  0.0704
  900loPI    C214058   1.578   7.384   4.046 -0.0622 -0.1481 -0.1840
  900loPI    C314059   1.484   6.995   4.056  0.1886 -0.2047  0.3806
  900loPI   PO414060   1.686   7.274   4.510 -0.0072 -0.0277 -0.0223
  900loPI   GL114061   1.799   7.336   5.025 -0.1417 -0.3280  0.0663
  900loPI   GL214062   2.038   7.319   5.166 -0.1436 -0.0405 -0.3594
  900loPI   C1A14063   1.499   7.392   5.308 -0.1892 -0.2414 -0.2459
  900loPI   C2A14064   1.650   7.332   5.708  0.4935  0.0014 -0.0339
  900loPI   C3A14065   1.571   7.199   6.166  0.0695 -0.1624  0.0152
  900loPI   C4A14066   1.735   7.164   6.596 -0.1716 -0.1271 -0.1013
  900loPI   C5A14067   1.949   7.050   6.889 -0.0981 -0.1929  0.1679
  900loPI   C6A14068   1.657   6.851   7.030 -0.1329 -0.2383 -0.1980
  900loPI   C1B14069   2.089   7.448   5.553  0.1674 -0.1427 -0.0873
  900loPI   C2B14070   2.251   7.776   5.957  0.0429  0.1517  0.1241
  900loPI   C3B14071   2.215   7.918   6.397 -0.2191  0.1178  0.0349
  900loPI   C4B14072   1.863   8.023   6.624  0.1927 -0.0190  0.1786
  901loPI    C114073  15.344   3.508   4.376 -0.3323  0.1318 -0.0858
  901loPI    C214074  15.706   3.675   4.342 -0.2714  0.0803  0.2724
  901loPI    C314075  15.505   3.565   4.014  0.0909 -0.0060  0.0742
  901loPI   PO414076  15.446   3.309   4.558 -0.1429  0.0394 -0.1143
  901loPI   GL114077  15.556   3.306   5.076  0.0309  0.1029 -0.3684
  901loPI   GL214078  15.835   3.197   5.212 -0.1421  0.1528  0.0098
  901loPI   C1A14079  15.331   3.427   5.482  0.1516 -0.0727 -0.1967
  901loPI   C2A14080  15.380   3.296   5.848  0.2102  0.0314  0.0716
  901loPI   C3A14081  15.239   3.348   6.260 -0.2086 -0.1754  0.1699
  901loPI   C4A14082  15.486   3.400   6.635  0.0684  0.1686  0.3120
  901loPI   C5A14083  15.370   3.504   7.122 -0.0178 -0.0402  0.0600
  901loPI   C6A14084  15.400   3.412   7.540  0.3108 -0.4326 -0.1500
  901loPI   C1B14085  16.050   3.061   5.636 -0.0994  0.0601 -0.0056
  901loPI   C2B14086  16.045   2.834   6.033 -0.0663 -0.0265  0.4534
  901loPI   C3B14087  16.320   2.742   6.473  0.0581  0.1134  0.1726
  901loPI   C4B14088  16.321   2.612   6.901  0.2997 -0.4137  0.2103
  902loPI    C114089  16.982  11.079   3.959  0.0391  0.0661 -0.0059
  902loPI    C214090  17.280  10.919   3.744 -0.0806 -0.0712 -0.0710
  902loPI    C314091  17.007  10.682   3.916  0.0123  0.0375  0.2326
  902loPI   PO414092  17.138  11.223   4.199 -0.0703 -0.0099  0.0722
  902loPI   GL114093  17.024  11.613   4.417 -0.0049 -0.1025  0.0356
  902loPI   GL214094  16.883  11.704   4.568 -0.1970 -0.0783 -0.1380
  902loPI   C1A14095  17.238  11.615   4.834 -0.1144 -0.1305 -0.0706
  902loPI   C2A14096  17.394  11.344   5.203  0.0894  0.1360  0.1008
  902loPI   C3A14097  17.637  11.224   5.612 -0.0237  0.0524 -0.1140
  902loPI   C4A14098  17.670  11.058   6.027  0.0791 -0.1894 -0.1226
  902loPI   C5A14099  17.601  11.194   6.531 -0.0582  0.2746 -0.0582
  902loPI   C6A14100  17.307  11.170   6.887  0.0192  0.2746  0.1446
  902loPI   C1B14101  16.854  11.932   4.879 -0.0827  0.0272  0.1049
  902loPI   C2B14102  16.870  12.108   5.268  0.3579  0.0285  0.2530
  902loPI   C3B14103  16.785  12.243   5.706  0.4575 -0.3045 -0.2290
  902loPI   C4B14104  16.831  12.233   6.238 -0.0825 -0.3243  0.0334
  903loPI    C114105  14.770   7.512   4.936  0.1767 -0.1669  0.1286
  903loPI    C214106  14.807   7.526   5.334  0.1446  0.1314  0.1230
  903loPI    C314107  14.448   7.466   5.168  0.1810 -0.1414  0.1397
  903loPI   PO414108  14.931   7.784   4.878 -0.2019  0.0510 -0.2195
  903loPI   GL114109  15.252   7.919   5.193 -0.1298 -0.2446 -0.4250
  903loPI   GL214110  15.262   8.194   5.304 -0.0126  0.1965  0.2927
  903loPI   C1A14111  14.951   7.944   5.570  0.2126 -0.2057  0.0452
  903loPI   C2A14112  15.074   7.997   6.015  0.1801 -0.0703  0.1611
  903loPI   C3A14113  15.212   7.721   6.436 -0.0301  0.1823  0.1055
  903loPI   C4A14114  15.475   7.669   6.808  0.2597 -0.1480  0.1285
  903loPI   C5A14115  15.582   7.803   7.215  0.4245  0.0864  0.0958
  903loPI   C6A14116  15.913   8.077   7.221  0.2217  0.0933  0.0713
  903loPI   C1B14117  15.296   8.353   5.731 -0.2542  0.1582  0.1622
  903loPI   C2B14118  15.495   8.278   6.070  0.1048 -0.1522  0.3592
  903loPI   C3B14119  15.773   8.392   6.391  0.0207  0.1252  0.0455
  903loPI   C4B14120  16.198   8.291   6.721  0.0303 -0.2295  0.2792
  904loPI    C114121   8.163  10.988   4.677  0.0852 -0.0681  0.0041
  904loPI    C214122   8.320  10.717   4.428 -0.0085 -0.1127 -0.0066
  904loPI    C314123   8.214  11.078   4.291  0.3735  0.0303  0.0623
  904loPI   PO414124   8.270  10.852   4.933 -0.1765 -0.1285  0.0880
  904loPI   GL114125   8.300  10.780   5.519  0.0802 -0.0571  0.1567
  904loPI   GL214126   8.060  11.070   5.750  0.3578 -0.0666 -0.0787
  904loPI   C1A14127   8.470  10.858   5.945  0.0196  0.0748 -0.0816
  904loPI   C2A14128   8.456  10.957   6.320 -0.0045  0.0615  0.3057
  904loPI   C3A14129   8.598  11.156   6.829 -0.1289  0.1391  0.1547
  904loPI   C4A14130   8.412  11.286   7.245 -0.1374  0.1251  0.1358
  904loPI   C5A14131   8.298  11.680   7.419  0.0868  0.2173  0.0481
  904loPI   C6A14132   8.165  12.005   7.242  0.1275  0.0397  0.2707
  904loPI   C1B14133   7.804  10.979   6.054 -0.1139 -0.2333 -0.0828
  904loPI   C2B14134   7.908  10.818   6.420  0.1056 -0.0181 -0.2716
  904loPI   C3B14135   8.144  11.030   6.727  0.1643 -0.3107 -0.0903
  904loPI   C4B14136   8.159  10.926   7.083 -0.1028  0.1172 -0.1990
  905loPI    C114137   0.664  14.975   4.853  0.0092 -0.0588  0.0012
  905loPI    C214138   0.415  15.200   5.071  0.2114  0.2151 -0.0445
  905loPI    C314139   0.278  15.000   4.753  0.0381  0.3107 -0.0309
  905loPI   PO414140   0.848  15.114   4.708  0.2753 -0.4630  0.1325
  905loPI   GL114141   1.226  14.957   4.982 -0.1114 -0.4531  0.0040
  905loPI   GL214142   1.689  15.050   4.928  0.1776 -0.1113  0.1757
  905loPI   C1A14143   1.339  15.043   5.414 -0.1125  0.0021  0.0001
  905loPI   C2A14144   1.337  15.012   5.853 -0.0144  0.0633  0.0704
  905loPI   C3A14145   1.406  14.680   6.109  0.0423 -0.2030 -0.0562
  905loPI   C4A14146   1.555  14.560   6.552  0.1520  0.1243  0.0152
  905loPI   C5A14147   1.763  14.324   6.718 -0.2553  0.1851 -0.2057
  905loPI   C6A14148   2.049  14.315   7.027 -0.2462  0.3573  0.1008
  905loPI   C1B14149   1.961  15.255   5.295  0.3460 -0.4118  0.3495
  905loPI   C2B14150   2.134  15.425   5.652  0.3796 -0.1644 -0.1009
  905loPI   C3B14151   2.099  15.311   6.045 -0.1188  0.4133 -0.0069
  905loPI   C4B14152   2.257  15.137   6.461 -0.0506  0.0163 -0.3075
  906loPI    C114153  13.370  14.487   4.078  0.1386 -0.2657  0.1785
  906loPI    C214154  12.993  14.361   4.126 -0.0145  0.0021 -0.2624
  906loPI    C314155  13.192  14.275   3.789  0.3416 -0.1816 -0.0111
  906loPI   PO414156  13.419  14.433   4.394  0.4541  0.1688 -0.1517
  906loPI   GL114157  13.322  14.425   4.741  0.0918  0.1586  0.2968
  906loPI   GL214158  13.378  14.644   4.989  0.2358 -0.0242 -0.1492
  906loPI   C1A14159  13.628  14.169   5.053  0.2086  0.2603  0.0336
  906loPI   C2A14160  13.821  13.997   5.465  0.0040  0.1703 -0.1090
  906loPI   C3A14161  13.546  14.017   5.816  0.1124 -0.1697  0.1461
  906loPI   C4A14162  13.497  13.963   6.253 -0.0929  0.1360  0.0980
  906loPI   C5A14163  13.513  13.741   6.668  0.2168  0.0783 -0.2883
  906loPI   C6A14164  13.258  13.690   7.065  0.0077  0.2291  0.2977
  906loPI   C1B14165  13.054  14.598   5.179  0.0020 -0.0448  0.0071
  906loPI   C2B14166  12.798  14.354   5.466  0.2093 -0.2465 -0.2188
  906loPI   C3B14167  12.694  14.363   5.952  0.1346 -0.0339  0.0678
  906loPI   C4B14168  12.758  14.422   6.429 -0.1469  0.1124  0.2767
  907loPI    C114169   8.828   0.920   5.092  0.0138  0.0372 -0.2291
  907loPI    C214170   8.513   1.135   5.212  0.2145  0.0721  0.2572
  907loPI    C314171   8.497   0.932   4.868 -0.1677  0.4389  0.0497
  907loPI   PO414172   8.846   0.750   5.234  0.1607  0.1008 -0.0153
  907loPI   GL114173   9.166   0.786   5.615  0.1222  0.2146 -0.2461
  907loPI   GL214174   9.119   0.530   5.604  0.1531 -0.1038 -0.0066
  907loPI   C1A14175   9.375   0.993   5.924 -0.3494 -0.0081 -0.1725
  907loPI   C2A14176   9.559   1.125   6.283 -0.1997 -0.1346  0.0153
  907loPI   C3A14177   9.750   1.430   6.697  0.1058  0.1002  0.0545
  907loPI   C4A14178   9.603   1.883   6.991  0.2005 -0.1009 -0.1250
  907loPI   C5A14179   9.270   2.226   7.023 -0.1364 -0.0549  0.1337
  907loPI   C6A14180   9.151   2.639   7.052  0.1998  0.2184  0.1360
  907loPI   C1B14181   9.195   0.583   6.141 -0.0145  0.0151  0.4186
  907loPI   C2B14182   9.582   0.690   6.452  0.0484 -0.0557  0.1797
  907loPI   C3B14183   9.726   0.917   6.783 -0.0312 -0.0135 -0.1670
  907loPI   C4B14184   9.874   0.695   7.171 -0.2354 -0.4009 -0.1479
  908loPI    C114185  10.263   6.388   4.429  0.0488  0.1517 -0.0353
  908loPI    C214186  10.609   6.247   4.286 -0.0301  0.1100 -0.1881
  908loPI    C314187  10.310   5.995   4.371  0.0897  0.1106  0.2626
  908loPI   PO414188  10.370   6.538   4.643  0.1168  0.2202  0.0147
  908loPI   GL114189  10.454   6.375   4.989 -0.0310 -0.1881 -0.0818
  908loPI   GL214190  10.387   6.764   5.138 -0.5163 -0.2279  0.2362
  908loPI   C1A14191  10.539   6.346   5.390  0.3542 -0.0167  0.2234
  908loPI   C2A14192  10.767   6.349   5.821  0.1729 -0.0074  0.0713
  908loPI   C3A14193  11.046   6.186   6.121 -0.0136 -0.1193  0.0895
  908loPI   C4A14194  11.171   5.989   6.506  0.1991 -0.0996  0.1614
  908loPI   C5A14195  11.430   6.023   6.885  0.1890  0.1626 -0.0605
  908loPI   C6A14196  11.450   6.169   7.378 -0.0105 -0.3307 -0.1670
  908loPI   C1B14197  10.349   6.821   5.546  0.3612 -0.1257  0.1237
  908loPI   C2B14198  10.337   6.582   5.929  0.0070 -0.2113 -0.0615
  908loPI   C3B14199  10.328   6.786   6.374  0.1622 -0.0722 -0.0167
  908loPI   C4B14200  10.081   6.890   6.768 -0.0839 -0.0795 -0.1733
  909loPI    C114201   8.151  15.534   4.193  0.2407  0.0827 -0.0988
  909loPI    C214202   7.858  15.376   3.971  0.1549  0.1216 -0.0145
  909loPI    C314203   8.226  15.414   3.819  0.1362 -0.0030 -0.0931
  909loPI   PO414204   8.079  15.402   4.568 -0.2093  0.1339  0.0043
  909loPI   GL114205   8.231  15.475   4.924  0.2733  0.1509 -0.1718
  909loPI   GL214206   7.803  15.557   4.952  0.1100 -0.3092 -0.0315
  909loPI   C1A14207   8.115  15.939   5.283  0.0663 -0.0704  0.1177
  909loPI   C2A14208   8.184  16.333   5.441 -0.3435  0.2711 -0.0128
  909loPI   C3A14209   8.457  16.400   5.862 -0.3831  0.1119  0.0001
  909loPI   C4A14210   8.427  16.254   6.289  0.0741  0.3122 -0.0069
  909loPI   C5A14211   8.560  16.126   6.667 -0.0144 -0.1240 -0.3666
  909loPI   C6A14212   8.417  16.010   7.067  0.0056 -0.2782  0.0906
  909loPI   C1B14213   7.778  15.517   5.341  0.1158  0.0969 -0.2345
  909loPI   C2B14214   8.033  15.439   5.599 -0.2451  0.0433 -0.0091
  909loPI   C3B14215   8.051  15.521   6.079  0.1022  0.0476  0.0636
  909loPI   C4B14216   8.018  15.966   6.307 -0.0568  0.0044  0.1424
  910loPI    C114217  13.636  10.471   4.554 -0.0232 -0.1304  0.1154
  910loPI    C214218  13.784  10.153   4.362  0.1565 -0.0200  0.0688
  910loPI    C314219  14.022  10.463   4.450 -0.0170  0.1018  0.1147
  910loPI   PO414220  13.401  10.336   4.638 -0.1989 -0.0811 -0.0826
  910loPI   GL114221  13.301  10.244   5.009  0.0035 -0.1336 -0.1078
  910loPI   GL214222  13.121  10.048   5.174  0.0748  0.2575 -0.0346
  910loPI   C1A14223  13.315  10.365   5.409 -0.0995  0.0789 -0.1686
  910loPI   C2A14224  13.240  10.181   5.788 -0.0700 -0.3465  0.3094
  910loPI   C3A14225  13.066  10.048   6.103 -0.0297 -0.2887  0.1943
  910loPI   C4A14226  12.874  10.118   6.548  0.1510 -0.1388  0.0813
  910loPI   C5A14227  12.819  10.022   6.982 -0.1952 -0.1681  0.0833
  910loPI   C6A14228  12.618   9.934   7.306 -0.1852  0.1415  0.3095
  910loPI   C1B14229  12.797   9.944   5.593  0.2692 -0.1342  0.0919
  910loPI   C2B14230  12.514   9.941   5.974  0.2986  0.0294 -0.0325
  910loPI   C3B14231  12.189  10.013   6.236  0.0360  0.1724  0.1094
  910loPI   C4B14232  11.808   9.899   6.302 -0.1029 -0.2107  0.0715
  911loPI    C114233   7.810   0.482   4.812 -0.0619  0.2340  0.0926
  911loPI    C214234   8.144   0.612   4.635  0.0219 -0.1737 -0.0613
  911loPI    C314235   7.787   0.715   4.488  0.0847 -0.0813 -0.1510
  911loPI   PO414236   7.873   0.442   5.136 -0.2300 -0.0361  0.0315
  911loPI   GL114237   7.708   0.748   5.500  0.4178  0.1398  0.0615
  911loPI   GL214238   7.642   0.343   5.610  0.1126  0.0558  0.2731
  911loPI   C1A14239   7.358   0.960   5.748  0.1997 -0.2461 -0.4276
  911loPI   C2A14240   7.305   1.439   5.964  0.0799 -0.3825  0.1406
  911loPI   C3A14241   6.982   1.600   6.244 -0.0080  0.0842 -0.2815
  911loPI   C4A14242   6.588   1.720   6.491 -0.0352 -0.1987 -0.0566
  911loPI   C5A14243   6.465   1.927   6.836  0.5068  0.0513 -0.2983
  911loPI   C6A14244   6.551   2.153   7.274  0.1003  0.2515 -0.1875
  911loPI   C1B14245   7.551   0.566   5.947 -0.0459  0.0310  0.1635
  911loPI   C2B14246   7.483   0.674   6.284 -0.0588  0.0287 -0.0023
  911loPI   C3B14247   7.311   1.067   6.431 -0.1827 -0.0047  0.0983
  911loPI   C4B14248   7.480   1.349   6.432 -0.2038 -0.2830 -0.3125
  912loPI    C114249   2.920  18.305   4.825 -0.1406  0.2001  0.1691
  912loPI    C214250   3.176  18.013   4.728 -0.0922  0.1949  0.3106
  912loPI    C314251   3.085  18.295   4.461 -0.0720  0.0995  0.2022
  912loPI   PO414252   3.031  18.377   5.033  0.2377 -0.0385 -0.3034
  912loPI   GL114253   3.160  18.773   5.175 -0.0032  0.1383 -0.1324
  912loPI   GL214254   2.952  18.993   5.210  0.1233 -0.0163  0.1582
  912loPI   C1A14255   3.378  18.673   5.584  0.2214  0.1835  0.2587
  912loPI   C2A14256   3.433  18.809   5.992  0.2251 -0.0152 -0.1251
  912loPI   C3A14257   3.287  18.610   6.373 -0.4892 -0.3216  0.1178
  912loPI   C4A14258   3.048  18.496   6.697  0.2392  0.0028 -0.2439
  912loPI   C5A14259   2.888  18.354   7.053  0.0400  0.0684  0.0993
  912loPI   C6A14260   2.659  17.868   7.202 -0.0272  0.2421 -0.1648
  912loPI   C1B14261   2.769  18.787   5.555  0.3188 -0.2466  0.3296
  912loPI   C2B14262   2.465  18.555   5.869 -0.1191  0.1119 -0.0519
  912loPI   C3B14263   2.156  18.369   5.647  0.2191  0.3115 -0.1537
  912loPI   C4B14264   1.849  18.654   5.437  0.0065  0.1319  0.1139
  913loPI    C114265   7.743   9.586   4.679  0.3304 -0.2482  0.1278
  913loPI    C214266   7.747   9.278   4.424  0.1981  0.0515 -0.2457
  913loPI    C314267   7.781   9.652   4.286  0.2475  0.2135  0.1917
  913loPI   PO414268   7.676   9.500   4.923  0.3013 -0.2247 -0.0327
  913loPI   GL114269   7.664   9.688   5.324  0.1311  0.1857  0.0761
  913loPI   GL214270   7.661  10.000   5.487  0.2481  0.2352 -0.2402
  913loPI   C1A14271   7.801   9.616   5.761  0.0868 -0.0132  0.1881
  913loPI   C2A14272   7.884   9.465   6.102  0.1268  0.3749 -0.1618
  913loPI   C3A14273   7.880   9.256   6.486  0.3430 -0.0979 -0.0429
  913loPI   C4A14274   7.963   8.776   6.432 -0.3165  0.1319 -0.1207
  913loPI   C5A14275   8.161   8.486   6.691  0.1567  0.1659  0.2302
  913loPI   C6A14276   8.337   8.234   6.986 -0.4215  0.2797 -0.0479
  913loPI   C1B14277   7.701  10.041   5.984 -0.0607 -0.0585  0.3458
  913loPI   C2B14278   7.373  10.037   6.340 -0.0439  0.1078  0.0060
  913loPI   C3B14279   7.210   9.992   6.755  0.0756  0.0277 -0.1886
  913loPI   C4B14280   7.377   9.802   7.172  0.3474  0.1504 -0.3328
  914loPI    C114281   4.562   4.583   4.698  0.3303  0.2259  0.0856
  914loPI    C214282   4.868   4.401   4.516  0.1636  0.0859 -0.0585
  914loPI    C314283   4.523   4.206   4.569  0.0790  0.2626  0.0493
  914loPI   PO414284   4.776   4.696   4.883  0.2001  0.1313  0.1297
  914loPI   GL114285   5.008   4.586   5.285  0.5677 -0.0737  0.4573
  914loPI   GL214286   4.848   4.915   5.427 -0.2727  0.0087  0.1412
  914loPI   C1A14287   4.929   4.415   5.603  0.2211 -0.1437  0.1574
  914loPI   C2A14288   5.070   4.429   6.011 -0.0444  0.2985  0.2653
  914loPI   C3A14289   5.290   4.470   6.305 -0.4347  0.2140 -0.0638
  914loPI   C4A14290   5.398   4.599   6.754  0.0810  0.2695  0.0619
  914loPI   C5A14291   5.757   4.581   7.001  0.0254  0.2117 -0.1325
  914loPI   C6A14292   5.880   4.694   7.396 -0.2640  0.1332  0.0551
  914loPI   C1B14293   4.722   4.853   5.886  0.1685  0.1270 -0.1160
  914loPI   C2B14294   4.488   4.948   6.323 -0.1219 -0.1628 -0.3806
  914loPI   C3B14295   4.145   4.658   6.402 -0.0910  0.1567 -0.2484
  914loPI   C4B14296   3.907   4.649   6.771 -0.1375 -0.1034 -0.1412
  915loPI    C114297   6.690   9.219   4.857  0.3107  0.0760 -0.0132
  915loPI    C214298   6.789   9.502   4.592 -0.0645  0.1224 -0.1093
  915loPI    C314299   6.414   9.363   4.605  0.0807 -0.2679  0.0358
  915loPI   PO414300   6.996   9.279   4.985 -0.3274  0.1403  0.0556
  915loPI   GL114301   7.223   9.153   5.324 -0.4827  0.0597 -0.2208
  915loPI   GL214302   7.558   9.129   5.272  0.1635  0.0464  0.2055
  915loPI   C1A14303   6.955   9.146   5.773  0.2367  0.0986  0.1319
  915loPI   C2A14304   7.025   8.997   6.156 -0.1119  0.0462  0.0630
  915loPI   C3A14305   7.133   9.199   6.421 -0.1272 -0.0347  0.3432
  915loPI   C4A14306   7.216   9.395   6.908 -0.1763 -0.0663 -0.1856
  915loPI   C5A14307   6.937   9.629   7.108 -0.1370  0.1378 -0.0720
  915loPI   C6A14308   6.618   9.665   7.426  0.0303  0.0945 -0.0241
  915loPI   C1B14309   7.594   9.177   5.751  0.0267 -0.0196 -0.0212
  915loPI   C2B14310   7.586   9.022   6.156  0.1194  0.0006 -0.3259
  915loPI   C3B14311   7.505   9.044   6.669  0.1419  0.0055 -0.2361
  915loPI   C4B14312   7.940   9.004   6.915  0.0062  0.1560 -0.0914
  916loPI    C114313  18.554  14.176   4.490  0.0506  0.0305  0.0150
  916loPI    C214314  18.237  13.986   4.644  0.1934  0.0448  0.3334
  916loPI    C314315  18.427  13.833   4.327 -0.0837 -0.0033  0.1874
  916loPI   PO414316  18.645  14.255   4.795 -0.0096  0.2300 -0.1375
  916loPI   GL114317  18.624  14.355   5.206  0.1391 -0.0420 -0.1347
  916loPI   GL214318  18.490  14.054   5.344 -0.0355 -0.1603 -0.0602
  916loPI   C1A14319  18.621  14.534   5.747  0.0353 -0.1872 -0.1436
  916loPI   C2A14320  18.584  14.427   6.169  0.0741 -0.2215  0.1177
  916loPI   C3A14321  18.633  14.252   6.553  0.1782 -0.0590 -0.0846
  916loPI   C4A14322  18.437  13.971   6.798  0.0071  0.2411  0.2290
  916loPI   C5A14323  18.258  13.725   7.157 -0.0524  0.0632 -0.0023
  916loPI   C6A14324  18.209  13.266   7.288 -0.1438  0.2057  0.0345
  916loPI   C1B14325  18.235  14.226   5.627  0.0268  0.0125 -0.1557
  916loPI   C2B14326  18.066  14.135   6.035  0.0882 -0.0634 -0.0241
  916loPI   C3B14327  18.112  14.266   6.415 -0.0625  0.1813  0.0682
  916loPI   C4B14328  18.136  14.423   6.761 -0.2414  0.0019 -0.2189
  917loPI    C114329   9.331  14.065   4.377 -0.0657  0.0356 -0.0556
  917loPI    C214330   9.631  14.054   4.114 -0.1087  0.1099 -0.1082
  917loPI    C314331   9.343  14.329   4.076 -0.1972  0.0222 -0.0732
  917loPI   PO414332   9.475  14.057   4.676 -0.0225  0.0392  0.0956
  917loPI   GL114333   9.238  14.231   5.039 -0.0940  0.3153 -0.1223
  917loPI   GL214334   9.024  13.994   5.166 -0.0843  0.3946 -0.0270
  917loPI   C1A14335   9.484  14.516   5.331  0.1532 -0.1063  0.2663
  917loPI   C2A14336   9.572  14.565   5.779 -0.3630  0.0540  0.2029
  917loPI   C3A14337   9.417  14.517   6.202 -0.1389 -0.1345  0.0422
  917loPI   C4A14338   9.375  14.782   6.444 -0.1616  0.4431 -0.0705
  917loPI   C5A14339   9.159  14.984   6.866 -0.2561  0.2986 -0.0392
  917loPI   C6A14340   8.599  15.149   6.957 -0.1744 -0.0247  0.3326
  917loPI   C1B14341   8.861  13.969   5.578 -0.0112  0.0928  0.0597
  917loPI   C2B14342   9.049  13.822   5.933 -0.1995 -0.2949 -0.1122
  917loPI   C3B14343   9.086  13.822   6.421  0.2402 -0.3640  0.2189
  917loPI   C4B14344   9.002  13.896   6.841 -0.0379  0.0354 -0.1526
  918loPI    C114345   5.430  13.330   4.462 -0.0110  0.0771 -0.2352
  918loPI    C214346   5.733  13.579   4.384 -0.0419  0.1475 -0.1325
  918loPI    C314347   5.709  13.228   4.194  0.1684  0.0905 -0.0555
  918loPI   PO414348   5.285  13.379   4.626  0.3217  0.3200  0.1852
  918loPI   GL114349   5.346  13.261   4.966  0.2111  0.1376 -0.1116
  918loPI   GL214350   5.169  13.512   5.152  0.1414 -0.0985  0.1080
  918loPI   C1A14351   5.503  13.313   5.460 -0.1376  0.1162 -0.2100
  918loPI   C2A14352   5.581  13.232   5.876  0.0013 -0.1509 -0.0475
  918loPI   C3A14353   5.601  13.427   6.319 -0.1108 -0.4413 -0.2314
  918loPI   C4A14354   5.513  13.454   6.774  0.2906 -0.1970  0.1238
  918loPI   C5A14355   5.154  13.550   6.978  0.0808  0.3785 -0.0337
  918loPI   C6A14356   4.929  13.820   7.084  0.0983  0.4268 -0.0485
  918loPI   C1B14357   5.230  13.662   5.678  0.0395  0.0764  0.2284
  918loPI   C2B14358   5.435  13.870   6.036  0.1537 -0.1111 -0.2780
  918loPI   C3B14359   5.439  14.281   6.327 -0.1428 -0.0041  0.0669
  918loPI   C4B14360   5.515  14.537   6.728  0.4179 -0.2413 -0.0794
  919loPI    C114361   1.395  17.014   4.540 -0.1698  0.1848  0.1578
  919loPI    C214362   1.571  16.711   4.347  0.3310  0.3089  0.4022
  919loPI    C314363   1.429  17.023   4.141  0.2465  0.1315  0.1872
  919loPI   PO414364   1.557  17.016   4.776  0.0362 -0.2982 -0.1213
  919loPI   GL114365   1.618  17.168   5.245  0.0817  0.1897  0.6688
  919loPI   GL214366   1.452  17.262   5.369  0.2019 -0.1971 -0.3324
  919loPI   C1A14367   1.786  17.118   5.739 -0.0026  0.3390  0.0577
  919loPI   C2A14368   1.779  16.996   6.139 -0.3566 -0.1186 -0.0028
  919loPI   C3A14369   1.738  16.889   6.558 -0.0962  0.1582 -0.3314
  919loPI   C4A14370   1.454  16.753   6.876  0.2002  0.2786  0.3484
  919loPI   C5A14371   0.889  16.826   6.931  0.1835 -0.0706 -0.3243
  919loPI   C6A14372   0.532  17.151   6.863 -0.0402 -0.2644  0.1893
  919loPI   C1B14373   1.327  17.315   5.804 -0.2597 -0.1286  0.1200
  919loPI   C2B14374   1.339  17.120   6.200 -0.1123 -0.0404  0.1087
  919loPI   C3B14375   1.166  16.753   6.402  0.1794 -0.3006  0.0550
  919loPI   C4B14376   1.011  16.394   6.509 -0.0114  0.4424 -0.0202
  920loPI    C114377   2.977  15.703   4.531  0.1075  0.0803  0.1706
  920loPI    C214378   2.915  15.312   4.590  0.0360  0.0384 -0.1607
  920loPI    C314379   3.209  15.433   4.348 -0.0020  0.1879 -0.1329
  920loPI   PO414380   2.921  15.856   4.723  0.1280  0.2550  0.1676
  920loPI   GL114381   2.689  15.794   5.129 -0.0691  0.1403  0.0448
  920loPI   GL214382   3.043  15.958   5.216 -0.1372 -0.1754  0.2752
  920loPI   C1A14383   2.621  15.626   5.548 -0.2266 -0.0504 -0.1409
  920loPI   C2A14384   2.526  15.723   6.017  0.0128  0.4490 -0.0080
  920loPI   C3A14385   2.434  15.604   6.444 -0.0561  0.0869 -0.3481
  920loPI   C4A14386   2.428  15.691   6.859 -0.1038  0.3894 -0.2454
  920loPI   C5A14387   2.432  15.496   7.283 -0.1017  0.2665  0.0084
  920loPI   C6A14388   2.272  15.275   7.576 -0.0345 -0.2759  0.0843
  920loPI   C1B14389   3.009  16.064   5.656  0.2624 -0.2948 -0.0527
  920loPI   C2B14390   3.088  16.305   6.017  0.2012 -0.0175  0.3131
  920loPI   C3B14391   3.074  16.546   6.352  0.1882 -0.1127 -0.2443
  920loPI   C4B14392   3.049  16.586   6.846 -0.1249 -0.0216 -0.1292
  921loPI    C114393   7.995  14.953   4.460 -0.0078  0.0882 -0.0255
  921loPI    C214394   8.148  14.670   4.223 -0.1962 -0.0061 -0.0364
  921loPI    C314395   8.196  15.056   4.131  0.0583 -0.0335 -0.0236
  921loPI   PO414396   8.061  14.873   4.670 -0.2499  0.0195  0.4001
  921loPI   GL114397   7.908  15.086   5.067  0.0079 -0.2620  0.1419
  921loPI   GL214398   7.623  14.966   4.956 -0.0125  0.0525 -0.1620
  921loPI   C1A14399   8.227  15.054   5.355 -0.3544 -0.0706 -0.2674
  921loPI   C2A14400   8.193  14.985   5.839 -0.1744 -0.0037 -0.0258
  921loPI   C3A14401   8.244  15.010   6.261 -0.0008  0.1046 -0.1089
  921loPI   C4A14402   8.190  14.963   6.679  0.0588 -0.1556 -0.0555
  921loPI   C5A14403   8.051  15.277   7.063  0.0290 -0.0440  0.1183
  921loPI   C6A14404   7.823  15.615   7.239 -0.3475  0.2719 -0.0568
  921loPI   C1B14405   7.617  14.953   5.470  0.1787  0.2990 -0.0243
  921loPI   C2B14406   7.718  15.104   5.808 -0.0583 -0.0035 -0.1371
  921loPI   C3B14407   7.739  15.058   6.274  0.3209 -0.1329  0.5377
  921loPI   C4B14408   7.771  15.330   6.663 -0.0382  0.3722  0.2407
  922loPI    C114409   2.285  10.350   4.362 -0.0878 -0.0422  0.2400
  922loPI    C214410   2.258  10.003   4.164  0.0781  0.1579 -0.1439
  922loPI    C314411   2.068  10.327   4.027  0.2511  0.3168 -0.0138
  922loPI   PO414412   2.570  10.273   4.558 -0.2165 -0.1291  0.4926
  922loPI   GL114413   2.652  10.354   4.963  0.1738  0.2785 -0.1799
  922loPI   GL214414   2.496  10.169   5.147 -0.2335  0.1462  0.1685
  922loPI   C1A14415   2.572  10.666   5.278  0.2608 -0.1339  0.0355
  922loPI   C2A14416   2.578  10.766   5.711  0.0894 -0.0070 -0.0656
  922loPI   C3A14417   2.472  10.935   6.106 -0.2961  0.2322  0.0254
  922loPI   C4A14418   2.292  10.960   6.541 -0.1597  0.0146  0.0368
  922loPI   C5A14419   1.953  10.969   6.817  0.0338 -0.0659 -0.0592
  922loPI   C6A14420   1.559  10.986   7.048  0.3241 -0.2846 -0.0495
  922loPI   C1B14421   2.535  10.106   5.535  0.1219 -0.0273 -0.0561
  922loPI   C2B14422   2.393  10.237   5.889  0.0539 -0.4724 -0.0786
  922loPI   C3B14423   2.693  10.433   6.191  0.0278  0.3441  0.2296
  922loPI   C4B14424   2.928  10.313   6.534  0.1106 -0.1549  0.0276
  923loPI    C114425   5.800  17.250   4.985  0.0150 -0.2425  0.0915
  923loPI    C214426   5.820  17.054   4.637  0.3250 -0.1221  0.0376
  923loPI    C314427   5.652  16.880   4.956  0.0425 -0.2348 -0.1686
  923loPI   PO414428   5.760  17.528   4.881  0.1805  0.0983 -0.0548
  923loPI   GL114429   5.714  17.939   5.221 -0.0879 -0.0575  0.0252
  923loPI   GL214430   5.832  18.290   5.273  0.2348 -0.1302 -0.0831
  923loPI   C1A14431   5.879  17.871   5.615 -0.1250  0.2657 -0.3401
  923loPI   C2A14432   6.039  18.000   5.839  0.0776  0.1672  0.0831
  923loPI   C3A14433   6.160  17.983   6.216  0.0308 -0.1274  0.2806
  923loPI   C4A14434   6.280  17.916   6.594 -0.0757 -0.2083 -0.2455
  923loPI   C5A14435   6.387  17.599   6.804  0.1003  0.1272 -0.0358
  923loPI   C6A14436   6.539  17.154   6.757  0.1173 -0.0193 -0.2970
  923loPI   C1B14437   5.885  18.487   5.647  0.0399  0.0299  0.2524
  923loPI   C2B14438   5.808  18.563   6.126  0.2903  0.2327 -0.1267
  923loPI   C3B14439   5.822  18.565   6.499  0.0619 -0.1196 -0.1113
  923loPI   C4B14440   5.673  18.183   6.791 -0.0395 -0.3706 -0.1374
  924loPI    C114441  11.610   1.326   4.529 -0.0164  0.1864  0.2115
  924loPI    C214442  11.749   1.690   4.437  0.2946  0.0043 -0.0643
  924loPI    C314443  11.580   1.463   4.154 -0.1599  0.0406  0.1683
  924loPI   PO414444  11.770   1.284   4.734 -0.0429 -0.0818  0.0454
  924loPI   GL114445  12.014   1.428   5.099 -0.0971  0.1758  0.1960
  924loPI   GL214446  12.405   1.277   5.065  0.2096  0.0712  0.0252
  924loPI   C1A14447  11.932   1.495   5.456 -0.0748 -0.0557 -0.3928
  924loPI   C2A14448  12.051   1.426   5.881 -0.1392 -0.1713  0.1992
  924loPI   C3A14449  11.946   1.369   6.265  0.2466 -0.0562 -0.3150
  924loPI   C4A14450  11.989   1.311   6.753 -0.0669  0.0639  0.0788
  924loPI   C5A14451  12.232   1.550   7.052 -0.1230 -0.0912  0.1375
  924loPI   C6A14452  12.439   1.863   7.372  0.2291 -0.1102 -0.0816
  924loPI   C1B14453  12.357   1.269   5.497 -0.2333  0.1231 -0.0172
  924loPI   C2B14454  12.404   1.102   5.963 -0.0180 -0.0364 -0.0486
  924loPI   C3B14455  12.546   0.819   6.317 -0.0002  0.2344 -0.0038
  924loPI   C4B14456  12.630   0.567   6.587 -0.0165 -0.1423 -0.0458
  925loPI    C114457   1.102  17.509   5.042  0.0993 -0.2180 -0.1486
  925loPI    C214458   1.099  17.783   4.750  0.2106 -0.0702 -0.0128
  925loPI    C314459   0.986  17.407   4.673  0.1161 -0.0018 -0.2153
  925loPI   PO414460   1.110  17.674   5.291  0.3601  0.1600 -0.0514
  925loPI   GL114461   1.275  17.821   5.708  0.1277  0.0464  0.0521
  925loPI   GL214462   1.247  18.157   5.567 -0.0797 -0.1712 -0.0265
  925loPI   C1A14463   1.335  17.731   6.134  0.1963 -0.2496  0.0478
  925loPI   C2A14464   1.351  17.975   6.598 -0.0643  0.0657 -0.0200
  925loPI   C3A14465   1.556  18.143   6.902 -0.2118 -0.0075  0.1872
  925loPI   C4A14466   1.596  18.094   7.251 -0.1129 -0.0909 -0.0163
  925loPI   C5A14467   1.513  18.058   7.681  0.0437  0.0322 -0.0970
  925loPI   C6A14468   1.188  18.306   7.918 -0.0596 -0.2479  0.3171
  925loPI   C1B14469   1.284  18.220   6.058  0.1365 -0.0073 -0.1285
  925loPI   C2B14470   1.278  18.532   6.479  0.1736 -0.2065  0.0899
  925loPI   C3B14471   1.452  18.815   6.637  0.4863 -0.1836 -0.0081
  925loPI   C4B14472   1.561  19.018   7.014 -0.1190 -0.0501  0.1108
  926loPI    C114473   6.815  17.314   4.563  0.1456 -0.1296 -0.1819
  926loPI    C214474   6.910  17.193   4.193 -0.0687 -0.1865 -0.2199
  926loPI    C314475   6.557  17.091   4.352 -0.1728  0.2230 -0.1760
  926loPI   PO414476   7.112  17.248   4.678  0.1139 -0.1292  0.1714
  926loPI   GL114477   7.399  17.041   4.941  0.1286  0.1002  0.0047
  926loPI   GL214478   7.775  17.183   5.061  0.3243 -0.2343  0.0301
  926loPI   C1A14479   7.352  17.292   5.286 -0.1162  0.0039 -0.0234
  926loPI   C2A14480   7.500  17.541   5.745  0.0941  0.1438  0.2032
  926loPI   C3A14481   7.447  17.631   6.232  0.0653  0.1539 -0.0812
  926loPI   C4A14482   7.542  17.673   6.716  0.0316  0.1024 -0.2258
  926loPI   C5A14483   7.465  17.581   7.157 -0.0135 -0.0616  0.0390
  926loPI   C6A14484   7.083  17.523   7.386 -0.0550 -0.1787  0.0427
  926loPI   C1B14485   7.626  16.898   5.363 -0.2711 -0.3462  0.2393
  926loPI   C2B14486   7.709  17.043   5.836  0.2049  0.0943 -0.1063
  926loPI   C3B14487   7.876  16.994   6.187  0.0484 -0.0689  0.0707
  926loPI   C4B14488   8.132  17.005   6.539  0.1559 -0.5484  0.3709
  927loPI    C114489   2.021  13.601   4.242  0.4128 -0.1066  0.0375
  927loPI    C214490   2.059  13.712   3.859  0.1557 -0.0490  0.0270
  927loPI    C314491   2.103  13.328   3.962 -0.0466 -0.1089 -0.1033
  927loPI   PO414492   1.753  13.793   4.351 -0.0427  0.2722  0.2519
  927loPI   GL114493   1.555  13.884   4.750  0.2155  0.2154  0.0420
  927loPI   GL214494   1.859  14.118   4.748 -0.0853 -0.2139 -0.0861
  927loPI   C1A14495   1.378  13.694   5.041 -0.0782 -0.0663  0.0764
  927loPI   C2A14496   1.238  13.590   5.447 -0.1930 -0.0906  0.1695
  927loPI   C3A14497   1.352  13.561   5.831  0.2080  0.1388 -0.0347
  927loPI   C4A14498   1.302  13.647   6.225 -0.2780 -0.2638 -0.1325
  927loPI   C5A14499   1.194  13.560   6.612 -0.0321  0.0193  0.1129
  927loPI   C6A14500   1.533  13.310   6.858 -0.0099 -0.0908 -0.3162
  927loPI   C1B14501   2.296  14.081   5.067 -0.2377  0.2654 -0.0435
  927loPI   C2B14502   2.230  14.160   5.455 -0.1098  0.0429  0.0011
  927loPI   C3B14503   2.141  14.189   5.889 -0.2057 -0.0539 -0.1167
  927loPI   C4B14504   1.993  14.365   6.250 -0.1121 -0.1354  0.1384
  928loPI    C114505   4.247   1.122   4.718 -0.0565  0.4206  0.3106
  928loPI    C214506   4.589   1.191   4.912  0.0368 -0.0499  0.3255
  928loPI    C314507   4.596   1.081   4.528 -0.1039  0.0221  0.3016
  928loPI   PO414508   4.044   0.999   4.999  0.1417 -0.2784  0.1649
  928loPI   GL114509   4.173   0.760   5.294  0.0311  0.0842 -0.0750
  928loPI   GL214510   3.861   0.799   5.418  0.0089 -0.0526 -0.1408
  928loPI   C1A14511   4.358   0.635   5.661  0.1687 -0.1210  0.1241
  928loPI   C2A14512   4.354   0.267   6.053 -0.2282  0.1212  0.0590
  928loPI   C3A14513   4.177   0.164   6.502  0.0125  0.1929 -0.3430
  928loPI   C4A14514   4.004   0.257   6.953  0.2445 -0.0558  0.1878
  928loPI   C5A14515   4.040   0.640   7.222  0.1040  0.0423  0.0418
  928loPI   C6A14516   3.736   0.968   7.311  0.2257 -0.0137  0.0545
  928loPI   C1B14517   4.086   1.043   5.723  0.2361 -0.1934 -0.1749
  928loPI   C2B14518   4.272   0.967   6.093 -0.1164  0.0259 -0.1201
  928loPI   C3B14519   4.363   0.876   6.482  0.0537 -0.2554  0.1593
  928loPI   C4B14520   4.485   0.894   6.933  0.0779 -0.1166  0.0079
  929loPI    C114521  12.179   7.655   4.993  0.1088  0.0136  0.0288
  929loPI    C214522  12.331   7.381   4.745  0.2217  0.0364  0.0722
  929loPI    C314523  12.042   7.626   4.618  0.0471 -0.1703  0.0646
  929loPI   PO414524  12.345   7.714   5.172  0.0368  0.2540 -0.2150
  929loPI   GL114525  12.321   7.597   5.541 -0.3295  0.3247  0.0734
  929loPI   GL214526  12.387   7.910   5.674 -0.3275  0.0301  0.3873
  929loPI   C1A14527  12.330   7.553   5.990 -0.0192  0.1284 -0.2596
  929loPI   C2A14528  12.521   7.609   6.341  0.0619  0.2704  0.2480
  929loPI   C3A14529  12.661   7.704   6.648 -0.0335 -0.2425 -0.2817
  929loPI   C4A14530  12.844   7.636   7.127 -0.1040  0.1537  0.0669
  929loPI   C5A14531  12.548   7.404   7.412  0.2306  0.0235  0.0113
  929loPI   C6A14532  12.399   7.082   7.745 -0.0845 -0.0668  0.1775
  929loPI   C1B14533  12.775   8.079   5.806  0.1511  0.1032  0.2025
  929loPI   C2B14534  13.017   8.059   6.220 -0.1665 -0.0062  0.2483
  929loPI   C3B14535  13.144   7.761   6.434 -0.1794 -0.2942 -0.0604
  929loPI   C4B14536  13.405   7.555   6.779 -0.1504 -0.0366 -0.2025
  930loPI    C114537  13.040  16.587   4.311 -0.5029 -0.1312 -0.4270
  930loPI    C214538  13.237  16.256   4.200  0.2283  0.1263  0.0286
  930loPI    C314539  13.162  16.544   3.932  0.1877 -0.1119 -0.2208
  930loPI   PO414540  13.115  16.581   4.549 -0.2750  0.1271  0.2198
  930loPI   GL114541  12.952  16.834   4.860 -0.0472  0.1730  0.0396
  930loPI   GL214542  12.949  16.465   5.011 -0.2127 -0.1819  0.2745
  930loPI   C1A14543  12.659  16.928   5.219  0.0064  0.2288 -0.0523
  930loPI   C2A14544  12.683  16.888   5.655  0.0402  0.1564  0.1429
  930loPI   C3A14545  12.677  16.833   6.209 -0.1520 -0.3284 -0.0546
  930loPI   C4A14546  12.454  17.082   6.612  0.0425  0.0866  0.0060
  930loPI   C5A14547  12.056  17.181   6.845 -0.0372  0.3582  0.0672
  930loPI   C6A14548  11.921  17.453   6.754  0.0810  0.0508  0.1669
  930loPI   C1B14549  12.783  16.479   5.370  0.2194 -0.4295 -0.0102
  930loPI   C2B14550  12.318  16.531   5.431 -0.0834 -0.1762 -0.0166
  930loPI   C3B14551  12.069  16.534   5.794  0.2833  0.0701 -0.0954
  930loPI   C4B14552  12.053  16.287   6.203  0.1222 -0.5240  0.0948
  931loPI    C114553  18.177   4.815   5.260 -0.0330  0.0283  0.0071
  931loPI    C214554  18.114   4.667   4.894  0.2762  0.0323 -0.0508
  931loPI    C314555  18.365   4.481   5.144 -0.0863 -0.0841  0.2362
  931loPI   PO414556  18.145   5.078   5.271  0.1469  0.2190  0.0942
  931loPI   GL114557  18.178   5.352   5.607 -0.0833 -0.0492  0.0396
  931loPI   GL214558  18.086   5.744   5.649  0.0027 -0.0537 -0.4708
  931loPI   C1A14559  18.285   5.363   5.987 -0.0743  0.1050 -0.2022
  931loPI   C2A14560  18.285   5.257   6.354 -0.1880 -0.0670  0.0153
  931loPI   C3A14561  18.181   5.164   6.790  0.1525 -0.0340  0.0833
  931loPI   C4A14562  17.902   5.137   7.165 -0.1030  0.4196  0.0752
  931loPI   C5A14563  18.103   5.121   7.655 -0.1780  0.0859 -0.3439
  931loPI   C6A14564  18.455   4.839   7.809  0.3023 -0.2255  0.3278
  931loPI   C1B14565  17.799   5.612   6.008 -0.2869 -0.0118  0.1310
  931loPI   C2B14566  17.824   5.379   6.458 -0.4535 -0.0782  0.1197
  931loPI   C3B14567  17.776   5.476   6.819  0.1280 -0.1922  0.0909
  931loPI   C4B14568  17.774   5.812   7.092 -0.1736 -0.3761 -0.0220
  932loPI    C114569   7.860  14.189   4.359 -0.0585  0.1211  0.0355
  932loPI    C214570   7.676  13.896   4.560  0.0057  0.0256 -0.0438
  932loPI    C314571   7.530  14.019   4.208  0.0272  0.0302 -0.0512
  932loPI   PO414572   8.056  14.285   4.515 -0.1992  0.0745 -0.3155
  932loPI   GL114573   8.003  14.441   4.897 -0.0684  0.2328 -0.1688
  932loPI   GL214574   7.650  14.237   4.884 -0.1889 -0.5239  0.1849
  932loPI   C1A14575   7.992  14.635   5.338  0.1408 -0.0434  0.1503
  932loPI   C2A14576   7.928  14.545   5.755  0.0850  0.3639 -0.1965
  932loPI   C3A14577   8.046  14.543   6.117  0.3970  0.0272  0.1206
  932loPI   C4A14578   7.847  14.636   6.472  0.2801 -0.1568  0.2208
  932loPI   C5A14579   7.470  14.874   6.659  0.0662  0.1481 -0.3205
  932loPI   C6A14580   7.224  15.062   6.623  0.1733  0.0469 -0.2058
  932loPI   C1B14581   7.783  14.068   5.256  0.0760 -0.0537  0.1482
  932loPI   C2B14582   8.041  14.025   5.603  0.0981  0.2047 -0.0956
  932loPI   C3B14583   8.065  14.008   6.031 -0.2132  0.0742  0.0621
  932loPI   C4B14584   8.051  14.138   6.430  0.1462 -0.1365  0.0132
  933loPI    C114585   6.254   3.783   4.300 -0.1873 -0.1856  0.0540
  933loPI    C214586   6.385   3.507   4.042  0.0966  0.0141 -0.0211
  933loPI    C314587   6.412   3.895   3.950 -0.1963  0.0732  0.1304
  933loPI   PO414588   6.302   3.647   4.570 -0.0975 -0.0277 -0.1469
  933loPI   GL114589   6.376   3.737   4.958  0.2244  0.3281 -0.0997
  933loPI   GL214590   6.240   3.358   5.110  0.0794  0.4123 -0.0888
  933loPI   C1A14591   6.581   3.994   5.408  0.1101 -0.2893  0.1095
  933loPI   C2A14592   6.769   4.247   5.664 -0.1788  0.4051  0.1818
  933loPI   C3A14593   6.572   4.325   6.035 -0.0346  0.3130  0.0118
  933loPI   C4A14594   6.727   4.058   6.284 -0.0074  0.3480 -0.3570
  933loPI   C5A14595   6.973   3.811   6.392  0.2118  0.0419 -0.1664
  933loPI   C6A14596   7.435   3.808   6.492  0.0679  0.1845  0.1605
  933loPI   C1B14597   6.251   3.590   5.464 -0.1516 -0.2511  0.1264
  933loPI   C2B14598   6.202   3.412   5.945  0.0032  0.0383  0.3485
  933loPI   C3B14599   5.965   3.274   6.243 -0.0029 -0.1382 -0.1540
  933loPI   C4B14600   5.652   3.247   6.524  0.0895  0.2197 -0.2071
  934loPI    C114601   8.825  11.082   5.088 -0.0636 -0.1910  0.0247
  934loPI    C214602   9.150  10.884   4.964  0.0612  0.0030  0.0384
  934loPI    C314603   9.060  11.240   4.805 -0.0791  0.0043  0.1195
  934loPI   PO414604   8.674  10.805   5.219  0.1439 -0.0292  0.2383
  934loPI   GL114605   8.670  10.478   5.475 -0.0835  0.0446 -0.2873
  934loPI   GL214606   8.834  10.198   5.557  0.1373 -0.0629 -0.0966
  934loPI   C1A14607   8.580  10.385   5.967 -0.1412  0.0079 -0.1252
  934loPI   C2A14608   8.530  10.490   6.366 -0.0303  0.3364  0.4503
  934loPI   C3A14609   8.297  10.582   6.634 -0.0756 -0.0116 -0.2026
  934loPI   C4A14610   7.957  10.419   6.866  0.1036  0.0916  0.2089
  934loPI   C5A14611   7.580  10.255   7.154 -0.2219  0.1939  0.2785
  934loPI   C6A14612   7.532  10.109   7.573  0.0742 -0.3118 -0.0658
  934loPI   C1B14613   8.703   9.814   5.817  0.1939 -0.0754 -0.0562
  934loPI   C2B14614   8.621   9.825   6.303  0.1710  0.3473 -0.0003
  934loPI   C3B14615   8.582   9.589   6.726  0.0153  0.0097 -0.3388
  934loPI   C4B14616   8.766   9.321   7.047 -0.1925 -0.1528  0.0535
  935loPI    C114617  14.407  14.176   4.468  0.0165  0.0297 -0.1459
  935loPI    C214618  14.726  14.112   4.236  0.0178 -0.2025 -0.0822
  935loPI    C314619  14.675  13.896   4.569  0.0465  0.1665  0.1675
  935loPI   PO414620  14.365  14.396   4.507  0.2252 -0.0580  0.3377
  935loPI   GL114621  14.311  14.508   4.915  0.0352  0.2064 -0.1726
  935loPI   GL214622  14.512  14.289   4.984 -0.3571 -0.0797 -0.0155
  935loPI   C1A14623  14.009  14.409   5.166 -0.4787  0.1306 -0.0517
  935loPI   C2A14624  13.617  14.467   5.521  0.3480  0.3206  0.1819
  935loPI   C3A14625  13.727  14.505   6.039  0.1433 -0.0779  0.1964
  935loPI   C4A14626  14.031  14.354   6.331  0.1769 -0.0146 -0.0830
  935loPI   C5A14627  14.197  14.221   6.783 -0.0731 -0.3959 -0.0546
  935loPI   C6A14628  13.915  14.124   7.210  0.2546  0.3018  0.0106
  935loPI   C1B14629  14.507  14.271   5.382  0.0172  0.0243 -0.2540
  935loPI   C2B14630  14.621  14.129   5.673  0.1465 -0.1144 -0.4137
  935loPI   C3B14631  14.558  14.191   6.137 -0.3768 -0.0515 -0.2227
  935loPI   C4B14632  14.628  14.136   6.551  0.2260  0.0329 -0.1481
  936loPI    C114633   2.235  12.477   4.367  0.1231 -0.1131  0.0469
  936loPI    C214634   2.225  12.284   4.017  0.0888 -0.0882  0.0341
  936loPI    C314635   2.139  12.674   4.033  0.0652 -0.0948  0.0741
  936loPI   PO414636   2.155  12.386   4.552 -0.3887  0.0367  0.0634
  936loPI   GL114637   2.017  12.514   4.872  0.1904 -0.0930 -0.3348
  936loPI   GL214638   2.163  12.675   4.924  0.0162  0.0476 -0.1002
  936loPI   C1A14639   1.804  12.392   5.223 -0.0176 -0.1554  0.1012
  936loPI   C2A14640   1.716  12.325   5.636 -0.2154 -0.2394  0.1210
  936loPI   C3A14641   1.632  12.236   6.079  0.0854 -0.0033 -0.1177
  936loPI   C4A14642   1.615  12.418   6.558 -0.0102  0.2387  0.2206
  936loPI   C5A14643   1.626  12.711   6.918  0.1560 -0.2040  0.2099
  936loPI   C6A14644   1.988  12.768   7.206  0.2801 -0.1290 -0.1496
  936loPI   C1B14645   2.329  12.529   5.313  0.0707  0.0348 -0.0060
  936loPI   C2B14646   2.294  12.571   5.781 -0.1755 -0.1210 -0.3596
  936loPI   C3B14647   2.119  12.450   6.231 -0.1752 -0.1306 -0.0277
  936loPI   C4B14648   2.184  12.580   6.737  0.1450  0.2709  0.1312
  937loPI    C114649  16.881  18.563   4.715  0.2138  0.1591  0.0699
  937loPI    C214650  16.588  18.762   4.528 -0.1003 -0.0705  0.3070
  937loPI    C314651  16.878  18.586   4.315 -0.2294  0.0116  0.0601
  937loPI   PO414652  16.822  18.633   4.968 -0.3171  0.0277  0.2239
  937loPI   GL114653  16.620  18.758   5.323  0.1460 -0.1146  0.0735
  937loPI   GL214654  16.606  19.104   5.406 -0.1288 -0.0951 -0.3792
  937loPI   C1A14655  16.968  18.803   5.689 -0.0563  0.1930 -0.1032
  937loPI   C2A14656  17.042  19.071   6.013 -0.2188 -0.0034  0.2281
  937loPI   C3A14657  17.141  19.365   6.288  0.0219  0.0576 -0.0702
  937loPI   C4A14658  17.132  19.474   6.715  0.4906  0.0023 -0.0188
  937loPI   C5A14659  16.971  19.527   7.086 -0.0757  0.1242  0.0609
  937loPI   C6A14660  16.856  19.646   7.454 -0.0064 -0.0807 -0.1204
  937loPI   C1B14661  16.234  19.095   5.639  0.0851  0.3097 -0.3182
  937loPI   C2B14662  16.187  19.154   6.080 -0.0472  0.0085 -0.1341
  937loPI   C3B14663  16.129  18.976   6.430  0.2964 -0.0987  0.1440
  937loPI   C4B14664  15.763  19.011   6.832  0.1881 -0.0683 -0.1355
  938loPI    C114665   2.689  17.298   4.802  0.0196  0.0275  0.0779
  938loPI    C214666   3.046  17.121   4.764 -0.0239 -0.0326 -0.0539
  938loPI    C314667   2.759  17.054   4.493 -0.0835  0.1390 -0.0346
  938loPI   PO414668   2.634  17.416   5.074  0.0610 -0.0071  0.0821
  938loPI   GL114669   2.554  17.633   5.420 -0.2853 -0.0671 -0.1277
  938loPI   GL214670   2.863  17.562   5.487 -0.1997 -0.1141  0.0154
  938loPI   C1A14671   2.240  17.333   5.681 -0.1543  0.0227  0.0484
  938loPI   C2A14672   2.228  17.212   6.042  0.2262 -0.0851 -0.3621
  938loPI   C3A14673   2.208  17.060   6.470 -0.1062  0.2176  0.0610
  938loPI   C4A14674   2.093  17.117   6.810  0.2034 -0.2432  0.1556
  938loPI   C5A14675   1.860  17.101   7.193  0.4802  0.2307 -0.1964
  938loPI   C6A14676   1.810  16.875   7.512  0.0505  0.2838 -0.0815
  938loPI   C1B14677   2.879  17.608   5.936 -0.1493 -0.1682  0.0505
  938loPI   C2B14678   2.457  17.642   6.108 -0.1136 -0.4114  0.0292
  938loPI   C3B14679   2.251  17.576   6.502 -0.1476  0.0565 -0.1440
  938loPI   C4B14680   2.187  17.534   6.993 -0.0278 -0.1114 -0.2328
  939loPI    C114681   9.568   3.469   4.366 -0.2443 -0.0975 -0.1389
  939loPI    C214682   9.789   3.533   4.039 -0.0729 -0.0098 -0.0072
  939loPI    C314683   9.406   3.424   4.002  0.0228 -0.2803 -0.2381
  939loPI   PO414684   9.699   3.411   4.552  0.0781  0.4259  0.1400
  939loPI   GL114685   9.740   3.575   4.965  0.0225  0.0411  0.2062
  939loPI   GL214686   9.854   3.350   5.069  0.0777 -0.1207  0.3636
  939loPI   C1A14687   9.952   3.802   5.294  0.1392 -0.0610  0.0678
  939loPI   C2A14688  10.061   3.932   5.697 -0.0809  0.3810 -0.0574
  939loPI   C3A14689  10.123   4.030   6.039  0.0367 -0.0811  0.2198
  939loPI   C4A14690  10.157   4.131   6.572 -0.1063  0.2427  0.1398
  939loPI   C5A14691  10.317   3.945   6.974 -0.3568  0.1429 -0.2763
  939loPI   C6A14692  10.406   4.061   7.377 -0.3404 -0.0512 -0.0287
  939loPI   C1B14693   9.970   2.925   5.265 -0.0361  0.1998 -0.0837
  939loPI   C2B14694  10.081   2.634   5.615  0.0439 -0.1584  0.0591
  939loPI   C3B14695  10.040   2.673   5.948 -0.2304  0.0130 -0.2593
  939loPI   C4B14696   9.995   2.612   6.262 -0.1394  0.1055 -0.3423
  940loPI    C114697   2.301   4.745   4.995 -0.2158 -0.2827 -0.1142
  940loPI    C214698   2.355   4.755   4.599 -0.0776  0.1126 -0.0900
  940loPI    C314699   2.671   4.741   4.843 -0.1555  0.0972  0.0106
  940loPI   PO414700   2.146   4.953   5.043 -0.0434 -0.2114  0.0560
  940loPI   GL114701   1.981   5.081   5.425  0.0912 -0.2216  0.0539
  940loPI   GL214702   1.773   5.292   5.479 -0.1424  0.1740  0.2384
  940loPI   C1A14703   2.189   4.957   5.831  0.0751  0.2753  0.0115
  940loPI   C2A14704   2.248   4.888   6.257 -0.0530 -0.2919 -0.0682
  940loPI   C3A14705   2.275   4.963   6.599 -0.1671  0.2039 -0.0220
  940loPI   C4A14706   2.065   5.090   6.778  0.3524 -0.2131  0.0641
  940loPI   C5A14707   2.175   5.274   7.100 -0.0062  0.1923  0.0119
  940loPI   C6A14708   2.567   5.198   7.315  0.0142 -0.0583 -0.0609
  940loPI   C1B14709   1.941   5.402   5.928 -0.1064 -0.0447 -0.0796
  940loPI   C2B14710   1.992   5.514   6.351  0.1282 -0.1566 -0.0643
  940loPI   C3B14711   2.050   5.682   6.791  0.2480 -0.2883 -0.2269
  940loPI   C4B14712   2.074   5.861   7.148 -0.0002 -0.2025  0.3146
  941loPI    C114713   5.432  10.449   4.922 -0.2539 -0.1571  0.2574
  941loPI    C214714   5.284  10.271   4.597  0.0473  0.0524 -0.0010
  941loPI    C314715   5.073  10.555   4.783 -0.0213  0.1088 -0.1631
  941loPI   PO414716   5.720  10.404   4.866 -0.1391 -0.2968  0.1473
  941loPI   GL114717   5.738  10.168   5.296  0.4991 -0.2326  0.0229
  941loPI   GL214718   5.469  10.360   5.506 -0.0601 -0.0385 -0.5742
  941loPI   C1A14719   5.668   9.743   5.567  0.0216 -0.1666  0.0400
  941loPI   C2A14720   5.749   9.445   5.878  0.2181 -0.0375  0.3697
  941loPI   C3A14721   6.011   9.418   6.151  0.1390  0.1084 -0.0639
  941loPI   C4A14722   6.230   9.370   6.660 -0.0855  0.1591 -0.0296
  941loPI   C5A14723   6.555   9.297   7.093 -0.0136 -0.0763  0.0206
  941loPI   C6A14724   6.588   9.118   7.482  0.0468 -0.0153  0.1895
  941loPI   C1B14725   5.270  10.521   5.887  0.1123 -0.1310 -0.1402
  941loPI   C2B14726   5.255  10.372   6.291  0.0640 -0.2240 -0.0506
  941loPI   C3B14727   5.199  10.358   6.782 -0.5057  0.2665  0.1074
  941loPI   C4B14728   5.504  10.460   7.135  0.0971 -0.0629 -0.0603
  942loPI    C114729  18.623   4.907   4.819 -0.0924  0.0667  0.0661
  942loPI    C214730  18.989   4.959   4.667 -0.0852 -0.0936  0.0261
  942loPI    C314731  18.673   5.136   4.496 -0.0175  0.1081  0.1070
  942loPI   PO414732  18.598   4.998   5.022 -0.0004  0.1433 -0.0356
  942loPI   GL114733  18.650   4.960   5.454 -0.0119 -0.1928  0.0473
  942loPI   GL214734  18.470   4.880   5.629 -0.1427  0.2380  0.2938
  942loPI   C1A14735  18.843   5.280   5.706 -0.2257 -0.0528  0.0409
  942loPI   C2A14736  18.808   5.144   6.052 -0.0424 -0.0419 -0.0162
  942loPI   C3A14737  18.964   4.867   6.346 -0.1172  0.2160  0.1557
  942loPI   C4A14738  19.319   4.543   6.442  0.1049 -0.1631 -0.1311
  942loPI   C5A14739  19.415   4.555   6.858 -0.0840  0.2270  0.1338
  942loPI   C6A14740  19.420   4.877   7.222 -0.2822  0.0491 -0.2062
  942loPI   C1B14741  18.256   4.882   5.955  0.0794  0.2363  0.0847
  942loPI   C2B14742  18.051   4.806   6.393  0.0265  0.2150  0.5226
  942loPI   C3B14743  18.100   4.708   6.908  0.2234  0.0966 -0.0376
  942loPI   C4B14744  18.097   4.612   7.331 -0.0110  0.0497 -0.3515
  943loPI    C114745   1.491  12.468   4.301  0.2285 -0.0527 -0.0759
  943loPI    C214746   1.779  12.192   4.263  0.3046  0.0092  0.0463
  943loPI    C314747   1.686  12.428   3.954  0.2938 -0.0996 -0.0340
  943loPI   PO414748   1.606  12.605   4.483  0.5233 -0.1938 -0.1056
  943loPI   GL114749   1.508  12.733   4.824 -0.0947 -0.0735  0.2017
  943loPI   GL214750   1.624  12.846   5.009 -0.0468 -0.1703 -0.4518
  943loPI   C1A14751   1.148  12.489   5.034 -0.2665  0.0017  0.1450
  943loPI   C2A14752   0.887  12.475   5.387  0.1992  0.1181  0.0240
  943loPI   C3A14753   0.781  12.316   5.801 -0.0945 -0.1165 -0.1369
  943loPI   C4A14754   0.765  12.322   6.206  0.0917 -0.2041 -0.1114
  943loPI   C5A14755   0.654  12.300   6.603  0.0441  0.2125  0.1745
  943loPI   C6A14756   0.321  12.064   6.789  0.3390 -0.0730  0.1243
  943loPI   C1B14757   1.488  12.754   5.382  0.0387  0.1037 -0.0850
  943loPI   C2B14758   1.294  12.625   5.780 -0.1669  0.0733  0.0101
  943loPI   C3B14759   1.266  12.538   6.251  0.3425  0.2251 -0.0193
  943loPI   C4B14760   1.096  12.551   6.696  0.0084 -0.3377  0.5710
  944loPI    C114761   2.915  10.934   4.316  0.1129  0.1241  0.1671
  944loPI    C214762   2.915  10.583   4.508  0.1300  0.0653  0.0603
  944loPI    C314763   3.224  10.683   4.274 -0.1165 -0.0885 -0.3429
  944loPI   PO414764   2.877  11.105   4.574  0.0277  0.0274 -0.0947
  944loPI   GL114765   2.924  10.938   4.999  0.2102  0.4199  0.0772
  944loPI   GL214766   2.710  11.100   5.056  0.4311  0.0544 -0.0651
  944loPI   C1A14767   2.968  11.059   5.487  0.1994  0.0319 -0.1072
  944loPI   C2A14768   3.034  10.841   5.957  0.0387 -0.3501 -0.0308
  944loPI   C3A14769   2.991  10.835   6.475 -0.1140  0.0808  0.2582
  944loPI   C4A14770   2.945  10.634   6.860 -0.3740 -0.1695 -0.0337
  944loPI   C5A14771   2.558  10.458   7.134  0.4109  0.1794 -0.0749
  944loPI   C6A14772   2.193  10.500   7.266  0.0969  0.0013 -0.0854
  944loPI   C1B14773   2.534  11.311   5.531 -0.1907  0.0156 -0.0471
  944loPI   C2B14774   2.739  11.308   5.923 -0.0311 -0.0646  0.0551
  944loPI   C3B14775   2.770  11.239   6.409  0.1027 -0.0441  0.1612
  944loPI   C4B14776   2.744  11.109   6.843  0.1797 -0.1584  0.3168
  945loPI    C114777   5.600   4.216   4.569  0.1576 -0.0219 -0.1908
  945loPI    C214778   5.549   4.541   4.343  0.1050 -0.0630 -0.2386
  945loPI    C314779   5.275   4.251   4.339  0.0313  0.0011 -0.0117
  945loPI   PO414780   5.728   4.349   4.790  0.0333 -0.1761 -0.1399
  945loPI   GL114781   5.547   4.255   5.121 -0.1078 -0.4396 -0.0954
  945loPI   GL214782   5.330   4.219   5.273  0.0241  0.2218 -0.0772
  945loPI   C1A14783   5.835   4.540   5.481 -0.1604  0.0988 -0.0857
  945loPI   C2A14784   5.718   4.794   5.830 -0.1493 -0.1183 -0.0459
  945loPI   C3A14785   5.685   4.868   6.134 -0.1482  0.1133  0.2811
  945loPI   C4A14786   5.785   4.895   6.582 -0.0549  0.3526  0.2554
  945loPI   C5A14787   5.934   5.047   7.050 -0.2869  0.0565  0.2311
  945loPI   C6A14788   6.160   5.141   7.313  0.1406  0.0575 -0.3143
  945loPI   C1B14789   5.439   4.318   5.687  0.0416 -0.3292 -0.2141
  945loPI   C2B14790   5.578   4.181   6.005 -0.0452  0.2266 -0.5216
  945loPI   C3B14791   5.815   4.385   6.224  0.0175  0.1198 -0.1780
  945loPI   C4B14792   6.046   4.329   6.594 -0.2328  0.0097 -0.1331
  946loPI    C114793  17.544   7.986   4.424 -0.1101  0.1307 -0.0435
  946loPI    C214794  17.768   8.192   4.165  0.1159 -0.1162 -0.0489
  946loPI    C314795  17.827   7.799   4.212 -0.1368 -0.1331  0.1476
  946loPI   PO414796  17.528   8.056   4.687  0.1750 -0.1142  0.3056
  946loPI   GL114797  17.432   8.084   5.062  0.1736  0.3137  0.2486
  946loPI   GL214798  17.249   7.990   5.295 -0.3409  0.0089 -0.0792
  946loPI   C1A14799  17.736   8.180   5.460  0.1300 -0.3791 -0.1317
  946loPI   C2A14800  17.983   8.018   5.782  0.0062  0.0267 -0.1191
  946loPI   C3A14801  18.150   7.906   6.242 -0.0916 -0.0038 -0.3667
  946loPI   C4A14802  18.089   8.034   6.692  0.0266  0.1096  0.0918
  946loPI   C5A14803  18.051   8.029   7.087 -0.0294 -0.2289  0.0907
  946loPI   C6A14804  17.966   7.789   7.387 -0.3322  0.0470 -0.2935
  946loPI   C1B14805  16.896   7.733   5.553  0.2431  0.0998  0.0973
  946loPI   C2B14806  17.182   7.444   5.784 -0.1314  0.2743 -0.4987
  946loPI   C3B14807  17.076   7.484   6.254 -0.3233  0.2515 -0.1573
  946loPI   C4B14808  16.903   7.459   6.626  0.2361  0.1157  0.1818
  947loPI    C114809  10.997   7.424   4.888  0.0961  0.0631  0.3023
  947loPI    C214810  10.778   7.745   4.980 -0.0908  0.0385 -0.0401
  947loPI    C314811  10.685   7.525   4.659  0.3567 -0.0510 -0.1139
  947loPI   PO414812  11.197   7.396   5.001  0.3547 -0.0727 -0.2675
  947loPI   GL114813  11.464   7.216   5.191  0.0633  0.1007  0.1556
  947loPI   GL214814  11.453   6.951   5.362  0.1649  0.0035  0.3050
  947loPI   C1A14815  11.169   7.292   5.668 -0.3416  0.4158 -0.1070
  947loPI   C2A14816  10.966   7.564   5.986 -0.1434  0.1620  0.0842
  947loPI   C3A14817  10.963   7.703   6.394 -0.3098  0.0759  0.3629
  947loPI   C4A14818  11.100   7.996   6.764  0.0630  0.4920  0.3702
  947loPI   C5A14819  11.411   7.985   6.986 -0.0389  0.0047 -0.2413
  947loPI   C6A14820  11.840   7.936   7.003 -0.2571  0.0240  0.0688
  947loPI   C1B14821  11.556   7.009   5.684  0.1972  0.1704  0.3497
  947loPI   C2B14822  11.474   7.118   6.082  0.3887 -0.0023 -0.0834
  947loPI   C3B14823  11.332   7.280   6.444  0.1999  0.2239 -0.2014
  947loPI   C4B14824  10.947   7.400   6.815  0.1012 -0.1718  0.0113
  948loPI    C114825  17.310   6.271   4.601 -0.1817  0.2402  0.0187
  948loPI    C214826  17.374   5.877   4.571 -0.0104  0.2807 -0.1766
  948loPI    C314827  17.078   6.048   4.363 -0.2795  0.2116  0.1396
  948loPI   PO414828  17.424   6.288   4.829  0.1103  0.0810  0.1753
  948loPI   GL114829  17.340   6.295   5.302  0.0319  0.1109 -0.2215
  948loPI   GL214830  17.181   6.046   5.167 -0.1062 -0.0234  0.0350
  948loPI   C1A14831  17.417   6.405   5.800  0.3965 -0.0351 -0.1919
  948loPI   C2A14832  17.422   6.794   6.224 -0.0586  0.2246  0.3688
  948loPI   C3A14833  17.423   7.160   6.441  0.1651 -0.0661 -0.0571
  948loPI   C4A14834  17.367   7.616   6.712  0.0020  0.0548 -0.0582
  948loPI   C5A14835  17.066   8.021   6.568  0.4005 -0.0803 -0.2096
  948loPI   C6A14836  16.961   8.434   6.703 -0.0934  0.1168  0.3785
  948loPI   C1B14837  16.960   6.053   5.506 -0.2347 -0.2251  0.0739
  948loPI   C2B14838  16.918   5.967   5.956 -0.2457  0.1533 -0.0427
  948loPI   C3B14839  16.990   6.027   6.419 -0.0502  0.0982 -0.2975
  948loPI   C4B14840  16.756   6.037   6.764 -0.0563  0.0468  0.1583
  949loPI    C114841  18.645  10.281   4.510  0.0453  0.1559  0.1416
  949loPI    C214842  18.754  10.626   4.679  0.3848  0.1129  0.0188
  949loPI    C314843  18.743  10.593   4.281  0.1273  0.0486  0.0291
  949loPI   PO414844  18.656  10.108   4.573 -0.2741  0.0665  0.1324
  949loPI   GL114845  18.758  10.007   4.974 -0.1992  0.2606 -0.1200
  949loPI   GL214846  18.832  10.357   5.096  0.0966  0.3549 -0.1507
  949loPI   C1A14847  18.479   9.784   5.250 -0.0327  0.1299 -0.0332
  949loPI   C2A14848  18.203   9.511   5.363 -0.2286 -0.1911 -0.3868
  949loPI   C3A14849  18.005   9.429   5.739 -0.2930  0.3095  0.0383
  949loPI   C4A14850  18.016   9.660   6.048  0.0315  0.1112 -0.1372
  949loPI   C5A14851  17.901   9.511   6.511 -0.0903 -0.2066  0.1350
  949loPI   C6A14852  18.066   9.321   6.913  0.1647 -0.1501  0.2134
  949loPI   C1B14853  18.774  10.410   5.578  0.0113 -0.1400 -0.0465
  949loPI   C2B14854  18.925  10.468   5.925  0.2758 -0.2865  0.0925
  949loPI   C3B14855  19.237  10.176   5.979  0.2471 -0.0818 -0.2708
  949loPI   C4B14856  19.532   9.956   5.792 -0.0423 -0.0865  0.2617
  950loPI    C114857   8.084  11.475   4.778  0.3125  0.1554  0.2217
  950loPI    C214858   8.268  11.581   4.438 -0.0024 -0.0771 -0.0273
  950loPI    C314859   7.896  11.433   4.427 -0.1695  0.2799  0.4570
  950loPI   PO414860   8.216  11.669   5.010  0.1400 -0.1074 -0.4507
  950loPI   GL114861   8.566  11.712   5.330 -0.0953  0.1711  0.2158
  950loPI   GL214862   8.794  11.447   5.510  0.0023  0.1184 -0.1816
  950loPI   C1A14863   8.696  11.869   5.763 -0.1215 -0.0049 -0.1293
  950loPI   C2A14864   8.774  11.897   6.169 -0.0461 -0.0945 -0.0252
  950loPI   C3A14865   8.828  12.093   6.616 -0.0607  0.1852  0.3781
  950loPI   C4A14866   8.781  12.541   6.756  0.0829  0.0503  0.0130
  950loPI   C5A14867   8.949  12.857   6.534 -0.1309  0.2172  0.1086
  950loPI   C6A14868   9.283  13.131   6.511  0.2790 -0.2164 -0.0185
  950loPI   C1B14869   8.539  11.395   5.911  0.0120 -0.1276  0.0946
  950loPI   C2B14870   8.336  11.430   6.228  0.0549  0.1006 -0.0544
  950loPI   C3B14871   7.986  11.519   6.557 -0.0364  0.0213  0.3671
  950loPI   C4B14872   8.133  11.582   6.955 -0.2190 -0.0944  0.2059
  951loPI    C114873   9.881  17.651   4.658  0.1210 -0.3862 -0.1403
  951loPI    C214874   9.867  17.924   4.951 -0.1814 -0.4476 -0.0943
  951loPI    C314875  10.209  17.860   4.754 -0.2270  0.3525 -0.4727
  951loPI   PO414876   9.820  17.429   4.778  0.3440 -0.1007  0.3711
  951loPI   GL114877   9.927  17.317   5.215  0.0526  0.2067 -0.0495
  951loPI   GL214878   9.861  17.556   5.349  0.1647 -0.1457 -0.1837
  951loPI   C1A14879   9.783  17.217   5.668 -0.1760  0.2094  0.1599
  951loPI   C2A14880  10.037  17.318   6.052 -0.4272 -0.3131 -0.0566
  951loPI   C3A14881  10.289  17.241   6.414  0.2519 -0.0826 -0.0921
  951loPI   C4A14882  10.689  16.972   6.239 -0.2691 -0.1049 -0.3894
  951loPI   C5A14883  11.071  16.700   6.124  0.0709 -0.0139  0.2481
  951loPI   C6A14884  11.045  16.217   6.169  0.2738 -0.1256  0.0031
  951loPI   C1B14885   9.972  17.691   5.743  0.0227  0.2464  0.0538
  951loPI   C2B14886  10.222  17.820   6.163 -0.0071 -0.0487  0.0694
  951loPI   C3B14887  10.378  17.758   6.467 -0.1576 -0.1738 -0.0261
  951loPI   C4B14888  10.540  17.860   6.853 -0.1661 -0.0263 -0.0010
  952loPI    C114889  18.741  15.992   4.561  0.0395  0.0221  0.0921
  952loPI    C214890  19.094  15.833   4.660 -0.0285 -0.1556  0.0541
  952loPI    C314891  19.022  15.937   4.281  0.0386  0.0272  0.0901
  952loPI   PO414892  18.696  16.214   4.707 -0.2712 -0.0896 -0.0254
  952loPI   GL114893  18.599  16.193   5.116  0.4223 -0.3528  0.2738
  952loPI   GL214894  18.779  16.521   5.135  0.2394  0.1329 -0.0656
  952loPI   C1A14895  18.507  16.352   5.561  0.1310  0.2062  0.1321
  952loPI   C2A14896  18.544  16.365   6.005 -0.0953  0.2119  0.1121
  952loPI   C3A14897  18.850  16.113   6.353 -0.3801 -0.0052  0.0691
  952loPI   C4A14898  19.145  16.163   6.593  0.5543 -0.2155 -0.1582
  952loPI   C5A14899  19.385  16.403   6.761  0.0451 -0.1245  0.0073
  952loPI   C6A14900  19.367  16.823   6.785  0.2273 -0.1763  0.2718
  952loPI   C1B14901  19.045  16.447   5.627 -0.2795 -0.0710 -0.2849
  952loPI   C2B14902  19.238  16.357   6.035 -0.1164 -0.1160  0.1298
  952loPI   C3B14903  19.567  16.217   6.293  0.0720 -0.0286  0.1626
  952loPI   C4B14904  19.812  16.029   6.747  0.0831 -0.0341 -0.1125
  953loPI    C114905  11.073   2.062   5.025  0.0197 -0.2814  0.1438
  953loPI    C214906  10.871   1.869   5.311 -0.2994 -0.0946  0.0503
  953loPI    C314907  10.673   2.052   5.016  0.0029  0.2240  0.0387
  953loPI   PO414908  11.302   2.096   5.191 -0.1484 -0.1276  0.0940
  953loPI   GL114909  11.566   1.859   5.395 -0.1425  0.0394  0.1702
  953loPI   GL214910  11.713   2.191   5.548  0.0973  0.1797 -0.1287
  953loPI   C1A14911  11.660   1.803   5.816  0.0523  0.1815 -0.0203
  953loPI   C2A14912  11.770   2.196   6.172  0.1346 -0.0146 -0.1639
  953loPI   C3A14913  11.901   2.217   6.587 -0.0402  0.0793  0.2740
  953loPI   C4A14914  11.843   2.402   6.988 -0.0527  0.2452  0.2449
  953loPI   C5A14915  11.530   2.229   7.200 -0.0541 -0.1501  0.3798
  953loPI   C6A14916  11.128   2.173   7.116  0.1942 -0.0635 -0.5192
  953loPI   C1B14917  11.373   2.229   5.768  0.2896 -0.0286  0.0201
  953loPI   C2B14918  11.051   2.352   6.194  0.3586 -0.0443 -0.1269
  953loPI   C3B14919  10.880   2.373   6.638 -0.1907 -0.0936  0.1147
  953loPI   C4B14920  10.591   2.044   6.780 -0.0160  0.1229  0.2319
  954loPI    C114921  14.047   9.080   4.637 -0.0462 -0.0409 -0.0536
  954loPI    C214922  14.353   9.296   4.499  0.0154 -0.0779  0.0243
  954loPI    C314923  14.241   8.964   4.307 -0.0870  0.0287 -0.1024
  954loPI   PO414924  14.177   9.077   4.891 -0.4213 -0.0593  0.0512
  954loPI   GL114925  14.210   9.221   5.223  0.0379 -0.1753  0.0146
  954loPI   GL214926  13.866   9.295   5.372  0.1389  0.2286  0.0226
  954loPI   C1A14927  14.370   9.266   5.631  0.1772  0.0344 -0.2230
  954loPI   C2A14928  14.288   9.155   6.132 -0.1568 -0.2243  0.1661
  954loPI   C3A14929  14.353   9.271   6.505 -0.1968  0.4173  0.2813
  954loPI   C4A14930  14.316   9.724   6.546  0.1488  0.1906  0.0919
  954loPI   C5A14931  14.712  10.027   6.568 -0.0438  0.1346 -0.0564
  954loPI   C6A14932  15.081  10.203   6.778 -0.1363  0.1679 -0.1515
  954loPI   C1B14933  13.879   9.329   5.744  0.0217 -0.1845 -0.0078
  954loPI   C2B14934  13.927   9.494   6.119  0.2470  0.1193 -0.3030
  954loPI   C3B14935  13.685   9.592   6.517 -0.4316 -0.0365 -0.0573
  954loPI   C4B14936  13.490   9.793   6.822  0.0124 -0.1549  0.1139
  955loPI    C114937   8.371   5.563   4.694  0.2457 -0.0195  0.3880
  955loPI    C214938   7.981   5.562   4.784  0.1452  0.0780 -0.0291
  955loPI    C314939   8.100   5.609   4.404  0.5656  0.0750  0.0967
  955loPI   PO414940   8.539   5.745   4.806  0.1630  0.1617  0.1361
  955loPI   GL114941   8.704   5.804   5.171  0.3151 -0.0806 -0.2492
  955loPI   GL214942   8.606   6.056   5.420 -0.0805 -0.2101 -0.1298
  955loPI   C1A14943   8.723   5.517   5.603  0.1669  0.1030 -0.1232
  955loPI   C2A14944   8.451   5.316   6.008 -0.2711  0.6549  0.1779
  955loPI   C3A14945   8.279   5.232   6.468  0.0725 -0.0860  0.4279
  955loPI   C4A14946   8.298   5.085   6.865  0.0145  0.2246  0.2897
  955loPI   C5A14947   8.387   5.137   7.263 -0.0628  0.1543  0.0013
  955loPI   C6A14948   8.204   5.233   7.657  0.3097  0.3132 -0.0352
  955loPI   C1B14949   8.570   6.182   5.865 -0.0633  0.2025  0.0530
  955loPI   C2B14950   8.779   5.787   5.992  0.2358 -0.4492  0.1943
  955loPI   C3B14951   9.165   5.666   6.207  0.1294  0.1107 -0.2573
  955loPI   C4B14952   9.629   5.695   6.148  0.2083  0.0084  0.2016
  956loPI    C114953   8.894  17.871   4.524 -0.0919  0.0628  0.0366
  956loPI    C214954   8.984  18.253   4.603 -0.2359  0.1408 -0.1670
  956loPI    C314955   9.131  18.077   4.275  0.0739 -0.0727  0.0800
  956loPI   PO414956   8.928  17.750   4.871 -0.1205  0.2232 -0.0776
  956loPI   GL114957   9.130  17.734   5.376  0.0041 -0.0974 -0.0522
  956loPI   GL214958   8.781  17.826   5.378  0.0465 -0.0293 -0.2198
  956loPI   C1A14959   9.428  17.676   5.740  0.1735 -0.0126  0.0550
  956loPI   C2A14960   9.449  17.323   6.154  0.3027  0.0265 -0.1483
  956loPI   C3A14961   9.778  17.084   6.411  0.1043  0.3481 -0.1995
  956loPI   C4A14962  10.080  16.841   6.705 -0.3111 -0.1633  0.0938
  956loPI   C5A14963  10.364  16.634   6.976 -0.0300 -0.1408 -0.0534
  956loPI   C6A14964  10.661  16.281   6.925 -0.2068  0.0956 -0.1708
  956loPI   C1B14965   8.848  17.827   5.745  0.1015 -0.0792  0.1561
  956loPI   C2B14966   8.769  17.932   6.175  0.0797  0.1639  0.0377
  956loPI   C3B14967   8.755  17.800   6.558  0.1304 -0.0269  0.0475
  956loPI   C4B14968   8.879  17.873   6.963  0.3519 -0.1028 -0.1949
  957loPI    C114969   0.866   4.291   4.865  0.0460  0.0750  0.0561
  957loPI    C214970   0.879   4.666   4.728 -0.1912  0.0139 -0.1408
  957loPI    C314971   0.605   4.411   4.587 -0.0850 -0.2105  0.0519
  957loPI   PO414972   0.785   4.291   5.071 -0.0234 -0.4194  0.1735
  957loPI   GL114973   0.657   3.964   5.276 -0.2571 -0.1750 -0.3978
  957loPI   GL214974   0.624   3.708   5.271 -0.0198 -0.2328  0.0356
  957loPI   C1A14975   0.634   3.969   5.720  0.2265 -0.1198  0.1297
  957loPI   C2A14976   0.491   4.019   6.142 -0.0159  0.0031  0.0295
  957loPI   C3A14977   0.661   3.944   6.623  0.1363 -0.1386 -0.3182
  957loPI   C4A14978   0.564   4.101   7.160 -0.0621  0.3038 -0.2454
  957loPI   C5A14979   0.690   4.345   7.495 -0.1947  0.0873  0.2817
  957loPI   C6A14980   0.873   4.720   7.491 -0.1038  0.0489  0.0604
  957loPI   C1B14981   0.652   3.470   5.709 -0.3200 -0.3585  0.2526
  957loPI   C2B14982   0.594   3.461   6.112  0.1142  0.2784 -0.0558
  957loPI   C3B14983   0.913   3.496   6.389 -0.2667  0.2190 -0.4093
  957loPI   C4B14984   1.155   3.576   6.739 -0.0049 -0.2241 -0.0444
  958loPI    C114985   3.787   2.822   4.603 -0.1522  0.2639  0.3160
  958loPI    C214986   3.833   3.188   4.757 -0.0203  0.3324  0.1186
  958loPI    C314987   3.795   3.141   4.362 -0.2631  0.1510  0.1608
  958loPI   PO414988   3.716   2.697   4.801  0.0929  0.2078 -0.0691
  958loPI   GL114989   3.609   2.949   5.202 -0.1264  0.5367 -0.3256
  958loPI   GL214990   3.752   2.724   5.263 -0.0936  0.1247  0.2434
  958loPI   C1A14991   3.409   3.158   5.613  0.2589  0.1588  0.0970
  958loPI   C2A14992   3.356   3.310   6.101 -0.0063 -0.1978  0.0641
  958loPI   C3A14993   3.191   3.337   6.575 -0.1602  0.3583 -0.1198
  958loPI   C4A14994   3.184   3.058   7.027  0.0833 -0.1995 -0.3383
  958loPI   C5A14995   3.147   2.632   7.210  0.0358  0.2136 -0.0836
  958loPI   C6A14996   3.104   2.222   7.569  0.1786 -0.1312 -0.1700
  958loPI   C1B14997   3.461   2.564   5.554 -0.0651  0.0602 -0.1425
  958loPI   C2B14998   3.366   2.735   5.973 -0.1715 -0.0917  0.3107
  958loPI   C3B14999   3.213   2.825   6.239  0.0724  0.0023 -0.1275
  958loPI   C4B15000   3.038   2.677   6.635 -0.1840 -0.0207  0.0030
  959loPI    C115001   4.960  17.660   4.557  0.0220 -0.0115  0.1528
  959loPI    C215002   5.172  17.999   4.562  0.0101  0.0000 -0.0637
  959loPI    C315003   5.246  17.721   4.284  0.0765 -0.2125  0.1634
  959loPI   PO415004   4.872  17.632   4.790  0.0983  0.1862  0.0840
  959loPI   GL115005   5.026  17.378   5.098  0.2296  0.2390 -0.0005
  959loPI   GL215006   5.198  17.099   5.056  0.1764 -0.1369  0.1081
  959loPI   C1A15007   4.914  17.643   5.458  0.1977 -0.0608  0.1494
  959loPI   C2A15008   4.805  17.464   5.804  0.3505  0.0602 -0.0778
  959loPI   C3A15009   4.516  17.473   6.167  0.1536  0.1983  0.2381
  959loPI   C4A15010   4.399  17.504   6.450 -0.0449 -0.2337 -0.1250
  959loPI   C5A15011   4.042  17.408   6.550 -0.1109  0.1188  0.0345
  959loPI   C6A15012   3.711  17.676   6.913  0.1901 -0.5341  0.3202
  959loPI   C1B15013   5.004  17.099   5.488 -0.0962 -0.0696 -0.0338
  959loPI   C2B15014   5.165  17.165   5.894  0.1447  0.0212  0.2942
  959loPI   C3B15015   4.938  17.242   6.287 -0.0184  0.2484  0.0354
  959loPI   C4B15016   4.979  17.548   6.639  0.3075  0.5003 -0.1044
  960loPI    C115017   3.547  10.407   4.569  0.0751 -0.3580 -0.0263
  960loPI    C215018   3.532  10.081   4.338  0.2955 -0.2624 -0.1795
  960loPI    C315019   3.792  10.373   4.255  0.0214  0.0063 -0.1130
  960loPI   PO415020   3.332  10.356   4.788 -0.0118  0.5953 -0.0452
  960loPI   GL115021   3.219  10.573   5.200 -0.1170  0.3174  0.2891
  960loPI   GL215022   3.396  10.900   5.258  0.0500  0.2130 -0.1833
  960loPI   C1A15023   3.000  10.536   5.509  0.4459  0.2618 -0.0321
  960loPI   C2A15024   2.946  10.272   5.776 -0.3257 -0.2402  0.0790
  960loPI   C3A15025   3.182  10.159   6.052 -0.1305  0.0593 -0.1888
  960loPI   C4A15026   3.537  10.037   6.178  0.0799  0.0163 -0.0602
  960loPI   C5A15027   3.880  10.274   6.252 -0.0199 -0.0071 -0.3142
  960loPI   C6A15028   3.994  10.661   5.998 -0.0683  0.4325  0.0754
  960loPI   C1B15029   3.410  11.227   5.554  0.2612 -0.0955 -0.2505
  960loPI   C2B15030   3.208  11.330   5.867 -0.1286 -0.0527  0.0518
  960loPI   C3B15031   3.425  11.656   6.116  0.0407  0.2098  0.1159
  960loPI   C4B15032   3.480  11.968   6.495  0.0689 -0.0796 -0.4133
  961loPI    C115033   6.277  16.791   4.672 -0.0702  0.0501  0.0021
  961loPI    C215034   6.152  16.418   4.600 -0.0391  0.0597 -0.1041
  961loPI    C315035   6.184  16.680   4.299 -0.0853  0.1557 -0.0261
  961loPI   PO415036   6.211  16.862   4.910  0.1806 -0.3264  0.0676
  961loPI   GL115037   6.181  17.022   5.345  0.2279 -0.1083  0.1685
  961loPI   GL215038   6.411  17.187   5.163  0.0351 -0.0293 -0.0020
  961loPI   C1A15039   6.224  16.877   5.662 -0.1317 -0.1006 -0.1286
  961loPI   C2A15040   6.039  16.768   5.994 -0.0241 -0.1660 -0.0868
  961loPI   C3A15041   5.930  16.915   6.426  0.0374  0.3166  0.2087
  961loPI   C4A15042   5.635  16.751   6.737  0.0524 -0.1217 -0.1844
  961loPI   C5A15043   5.325  16.563   6.654  0.2753 -0.0426 -0.0749
  961loPI   C6A15044   4.960  16.350   6.664 -0.2798  0.1556  0.1827
  961loPI   C1B15045   6.660  17.109   5.544  0.1363  0.0375  0.1036
  961loPI   C2B15046   6.487  17.115   5.964  0.0386  0.0152  0.6242
  961loPI   C3B15047   6.404  16.890   6.357  0.0066 -0.0005  0.1651
  961loPI   C4B15048   6.214  16.739   6.771  0.3732  0.0322  0.1628
  962loPI    C115049  19.196  10.492   4.635  0.0254  0.0434 -0.0737
  962loPI    C215050  19.577  10.612   4.613  0.0546 -0.0452 -0.0535
  962loPI    C315051  19.333  10.662   4.300  0.1033 -0.0580 -0.0937
  962loPI   PO415052  19.136  10.240   4.689 -0.4404  0.0493  0.1073
  962loPI   GL115053  19.370  10.173   5.009 -0.3055 -0.0355  0.3867
  962loPI   GL215054  19.396   9.839   5.233 -0.0985  0.0090  0.4502
  962loPI   C1A15055  19.249  10.353   5.437  0.0634  0.1896 -0.0270
  962loPI   C2A15056  19.482  10.530   5.748  0.0619  0.3713 -0.2912
  962loPI   C3A15057  19.724  10.479   6.085 -0.0125  0.0214  0.0769
  962loPI   C4A15058  19.847  10.495   6.504 -0.0398  0.0490  0.2209
  962loPI   C5A15059  19.860  10.541   6.917  0.2124 -0.0200  0.1140
  962loPI   C6A15060  20.171  10.636   7.136  0.0365  0.4420  0.1581
  962loPI   C1B15061  19.005   9.879   5.461 -0.1357  0.0232 -0.2377
  962loPI   C2B15062  18.712   9.985   5.823 -0.1038  0.1152 -0.1850
  962loPI   C3B15063  18.771  10.118   6.213 -0.0352 -0.1746  0.3413
  962loPI   C4B15064  19.042  10.215   6.561 -0.0792  0.2749  0.1921
  963loPI    C115065   4.234   1.937   4.563  0.1367  0.1834 -0.1199
  963loPI    C215066   4.438   2.004   4.900  0.0697  0.3799 -0.1177
  963loPI    C315067   4.598   2.102   4.547  0.2865 -0.1421 -0.1736
  963loPI   PO415068   3.972   1.848   4.749 -0.0793 -0.3570 -0.0957
  963loPI   GL115069   3.856   1.772   5.128 -0.2294 -0.0275 -0.2156
  963loPI   GL215070   3.781   1.344   5.278 -0.1854 -0.3741  0.4425
  963loPI   C1A15071   3.794   1.751   5.570 -0.0362  0.2352 -0.1041
  963loPI   C2A15072   3.771   1.581   6.008 -0.1075  0.0990 -0.0442
  963loPI   C3A15073   3.699   1.607   6.383  0.1962 -0.0072  0.2388
  963loPI   C4A15074   3.450   1.840   6.675  0.2524 -0.2319 -0.1490
  963loPI   C5A15075   3.135   1.874   7.039  0.3605  0.1458  0.3041
  963loPI   C6A15076   2.840   1.661   7.331  0.1330 -0.0150 -0.1987
  963loPI   C1B15077   3.559   1.206   5.668 -0.3761  0.3331  0.0089
  963loPI   C2B15078   3.571   1.034   6.129  0.0102  0.2588 -0.0409
  963loPI   C3B15079   3.852   1.084   6.402  0.1958  0.0185 -0.0356
  963loPI   C4B15080   3.939   1.012   6.848  0.1266 -0.1350  0.0542
  964loPI    C115081   9.359  15.561   4.514 -0.2656  0.0403  0.2171
  964loPI    C215082   8.986  15.426   4.562 -0.2590 -0.0596 -0.0024
  964loPI    C315083   9.084  15.631   4.233 -0.1346  0.0174  0.0817
  964loPI   PO415084   9.514  15.688   4.703  0.3130  0.0253  0.0914
  964loPI   GL115085   9.747  15.705   5.097 -0.1319 -0.1663 -0.0987
  964loPI   GL215086   9.721  16.030   5.235 -0.1342  0.0577  0.2751
  964loPI   C1A15087   9.661  15.484   5.355 -0.0868  0.1114  0.0181
  964loPI   C2A15088   9.808  15.293   5.752  0.2546  0.1366  0.2066
  964loPI   C3A15089   9.979  15.388   6.166 -0.2724  0.1718  0.0428
  964loPI   C4A15090  10.157  15.271   6.539 -0.0582 -0.0649  0.0164
  964loPI   C5A15091  10.338  14.966   6.785  0.0817 -0.3380 -0.0051
  964loPI   C6A15092  10.676  14.842   7.217  0.1054 -0.2201  0.3004
  964loPI   C1B15093   9.730  15.909   5.630  0.3739  0.0359 -0.2676
  964loPI   C2B15094   9.534  15.746   5.964  0.0891  0.0692 -0.1877
  964loPI   C3B15095   9.227  15.826   6.224 -0.2631 -0.3692 -0.1778
  964loPI   C4B15096   8.901  15.946   6.390 -0.0057 -0.0954  0.1021
  965loPI    C115097  11.417   6.480   4.558  0.1912  0.0951  0.0218
  965loPI    C215098  11.772   6.663   4.583  0.1170  0.2390  0.0286
  965loPI    C315099  11.706   6.393   4.296  0.2187  0.2408  0.0031
  965loPI   PO415100  11.406   6.405   4.773  0.1408  0.0391 -0.0400
  965loPI   GL115101  11.272   6.510   5.110 -0.0345  0.0986  0.1503
  965loPI   GL215102  11.439   6.263   5.253 -0.1335  0.0461  0.0311
  965loPI   C1A15103  11.077   6.619   5.551 -0.0936  0.0568 -0.4546
  965loPI   C2A15104  11.245   6.656   5.982  0.0203  0.1567 -0.1138
  965loPI   C3A15105  11.326   6.694   6.349 -0.0010 -0.1816  0.1151
  965loPI   C4A15106  11.098   6.529   6.600  0.0512  0.0597  0.1397
  965loPI   C5A15107  11.131   6.446   6.971 -0.4187 -0.1231  0.0068
  965loPI   C6A15108  11.313   6.675   7.286 -0.2037  0.0766 -0.0157
  965loPI   C1B15109  11.740   6.543   5.560  0.2465  0.2102  0.2591
  965loPI   C2B15110  11.743   6.644   5.993 -0.3097  0.3134  0.1827
  965loPI   C3B15111  11.829   6.825   6.417  0.3078 -0.2019 -0.0169
  965loPI   C4B15112  12.022   6.752   6.740  0.0181 -0.0136  0.0165
  966loPI    C115113   1.660   3.268   4.677  0.0214  0.0623  0.0125
  966loPI    C215114   1.771   2.923   4.507 -0.0901  0.0135  0.0383
  966loPI    C315115   1.471   3.137   4.349 -0.1193  0.0242  0.1080
  966loPI   PO415116   1.653   3.209   4.956  0.2122  0.1336  0.4143
  966loPI   GL115117   1.654   3.076   5.365 -0.0100 -0.0539  0.0261
  966loPI   GL215118   2.008   2.876   5.361 -0.2726  0.0034 -0.3676
  966loPI   C1A15119   1.496   3.284   5.561  0.2036  0.0929 -0.1083
  966loPI   C2A15120   1.544   3.532   5.953  0.1036  0.1375  0.0015
  966loPI   C3A15121   1.510   3.590   6.406 -0.1264 -0.1240 -0.1093
  966loPI   C4A15122   1.627   3.579   6.856  0.1807  0.1138 -0.1316
  966loPI   C5A15123   1.295   3.350   7.244 -0.3933 -0.2841  0.3091
  966loPI   C6A15124   1.174   3.372   7.659 -0.1466  0.1968 -0.3014
  966loPI   C1B15125   2.028   3.286   5.698  0.0543  0.1367 -0.1063
  966loPI   C2B15126   2.016   3.250   6.130  0.1316 -0.1574  0.2230
  966loPI   C3B15127   1.884   3.236   6.547  0.1191 -0.0251 -0.1384
  966loPI   C4B15128   1.765   3.081   6.989  0.1187  0.0314 -0.2267
  967loPI    C115129   1.659  11.672   4.401  0.1910 -0.2034  0.1286
  967loPI    C215130   1.914  11.831   4.665  0.3747 -0.1687 -0.0666
  967loPI    C315131   2.019  11.797   4.281 -0.0316  0.1359 -0.2123
  967loPI   PO415132   1.443  11.815   4.462 -0.0659  0.0494 -0.1498
  967loPI   GL115133   1.305  11.798   4.885 -0.0665 -0.2123 -0.0084
  967loPI   GL215134   1.329  11.585   4.894 -0.1526 -0.0380  0.1927
  967loPI   C1A15135   1.337  12.058   5.195  0.4426 -0.1996 -0.2076
  967loPI   C2A15136   1.252  12.016   5.691  0.0255  0.1994 -0.3049
  967loPI   C3A15137   1.182  12.030   6.115  0.1485  0.0668  0.2722
  967loPI   C4A15138   1.134  12.065   6.558 -0.0200  0.3412 -0.2825
  967loPI   C5A15139   0.932  12.095   6.914 -0.0312  0.1588  0.2185
  967loPI   C6A15140   0.637  12.347   7.136  0.0742 -0.0287 -0.0571
  967loPI   C1B15141   1.312  11.600   5.306 -0.1557  0.4696  0.1104
  967loPI   C2B15142   1.270  11.494   5.778 -0.2598 -0.0412 -0.2651
  967loPI   C3B15143   0.953  11.609   6.011  0.0461 -0.3871 -0.1988
  967loPI   C4B15144   0.742  11.837   6.458 -0.0805 -0.0147  0.1044
  968loPI    C115145   0.765  16.145   4.556 -0.1794  0.0799  0.0623
  968loPI    C215146   0.725  16.482   4.343  0.3935  0.0780 -0.0656
  968loPI    C315147   0.898  16.161   4.179  0.1287 -0.1844  0.1554
  968loPI   PO415148   0.511  16.122   4.638  0.2541  0.1308 -0.4692
  968loPI   GL115149   0.443  15.899   5.063  0.0560 -0.0232  0.0517
  968loPI   GL215150   0.700  15.931   5.093 -0.2157  0.1182 -0.0886
  968loPI   C1A15151   0.346  15.491   5.458 -0.1161 -0.1315  0.2307
  968loPI   C2A15152   0.359  15.206   5.740 -0.0363  0.2081 -0.2107
  968loPI   C3A15153   0.037  14.851   5.870  0.1703  0.1733  0.3539
  968loPI   C4A15154  -0.180  14.520   6.156  0.1844 -0.3229 -0.3451
  968loPI   C5A15155  -0.520  14.665   6.506 -0.1228  0.2081  0.1897
  968loPI   C6A15156  -0.698  14.808   6.952  0.1193 -0.1908  0.3109
  968loPI   C1B15157   0.701  15.895   5.531 -0.2679  0.0369  0.0175
  968loPI   C2B15158   0.754  15.625   5.875  0.2492  0.0554 -0.2582
  968loPI   C3B15159   0.608  15.336   6.192 -0.1756 -0.1303 -0.0283
  968loPI   C4B15160   0.503  15.058   6.532 -0.1071 -0.0384 -0.0931
  969loPI    C115161   9.496  10.436   4.853  0.1610  0.2521  0.1860
  969loPI    C215162   9.338  10.627   4.540 -0.0338 -0.1549  0.0289
  969loPI    C315163   9.711  10.484   4.520  0.0046 -0.0557  0.0360
  969loPI   PO415164   9.506  10.641   5.217  0.1537 -0.1091  0.3028
  969loPI   GL115165   9.185  10.744   5.481 -0.0833  0.0812 -0.0079
  969loPI   GL215166   8.904  10.978   5.691 -0.1384 -0.0879  0.2092
  969loPI   C1A15167   9.049  10.563   5.992 -0.3340  0.2072  0.1204
  969loPI   C2A15168   8.941  10.715   6.385  0.0555  0.1403 -0.2747
  969loPI   C3A15169   8.784  10.697   6.751  0.2084  0.2597 -0.0094
  969loPI   C4A15170   8.640  10.835   7.219 -0.2351  0.1546 -0.0444
  969loPI   C5A15171   8.757  10.560   7.500  0.0170 -0.4294  0.0909
  969loPI   C6A15172   8.948  10.336   7.188  0.0158 -0.0237 -0.4607
  969loPI   C1B15173   9.036  11.301   5.933  0.1096  0.0610  0.5413
  969loPI   C2B15174   8.831  11.332   6.299 -0.1843  0.1872 -0.0803
  969loPI   C3B15175   8.565  11.599   6.592 -0.2103  0.0168 -0.0521
  969loPI   C4B15176   8.594  11.756   6.940 -0.0820  0.0431 -0.1804
  970loPI    C115177  15.449  18.561   4.565  0.0694 -0.2222  0.3114
  970loPI    C215178  15.812  18.394   4.571  0.1971  0.0462  0.2052
  970loPI    C315179  15.725  18.674   4.299 -0.1305 -0.1045  0.1503
  970loPI   PO415180  15.417  18.713   4.812  0.0266  0.0324 -0.1933
  970loPI   GL115181  15.431  18.694   5.250  0.4840  0.3340  0.2126
  970loPI   GL215182  15.582  18.876   5.225 -0.2364 -0.0776  0.0095
  970loPI   C1A15183  15.584  18.551   5.693  0.1021  0.1998  0.1651
  970loPI   C2A15184  15.922  18.570   6.030  0.0388 -0.1130  0.2346
  970loPI   C3A15185  15.893  18.484   6.506  0.0764  0.0695  0.1673
  970loPI   C4A15186  16.183  18.586   6.820  0.0615  0.1343  0.1755
  970loPI   C5A15187  16.415  18.962   6.841  0.0523 -0.0716  0.0186
  970loPI   C6A15188  16.523  19.345   7.132  0.1960 -0.1990  0.5001
  970loPI   C1B15189  15.746  19.068   5.720 -0.0461  0.1408  0.1033
  970loPI   C2B15190  15.685  19.145   6.158  0.0237  0.2567 -0.2576
  970loPI   C3B15191  15.650  19.355   6.448 -0.2534  0.2899 -0.3518
  970loPI   C4B15192  15.580  19.516   6.788 -0.0992 -0.0274  0.3451
  971loPI    C115193  11.624  19.343   4.609  0.1629  0.1366  0.1116
  971loPI    C215194  11.611  19.001   4.402 -0.4231 -0.0063  0.3638
  971loPI    C315195  11.584  19.352   4.211 -0.0884 -0.1043  0.1281
  971loPI   PO415196  11.445  19.375   4.822  0.0791  0.1585  0.1706
  971loPI   GL115197  11.493  19.587   5.246 -0.1223 -0.0452  0.0376
  971loPI   GL215198  11.779  19.557   5.409 -0.3799 -0.0954  0.1273
  971loPI   C1A15199  11.188  19.745   5.511  0.1778  0.2036  0.0924
  971loPI   C2A15200  10.971  19.881   5.893  0.1059  0.2191 -0.0773
  971loPI   C3A15201  10.910  19.762   6.361 -0.1401  0.0529 -0.1686
  971loPI   C4A15202  10.964  19.501   6.733  0.1237  0.5404  0.0811
  971loPI   C5A15203  11.117  19.211   7.024 -0.2649  0.1275 -0.1313
  971loPI   C6A15204  10.984  19.054   7.390  0.0786 -0.1830  0.0444
  971loPI   C1B15205  11.823  19.245   5.666  0.0183  0.0175 -0.1368
  971loPI   C2B15206  12.073  18.858   5.847  0.0122  0.4828  0.0003
  971loPI   C3B15207  11.942  18.495   5.800  0.1423 -0.2297 -0.4121
  971loPI   C4B15208  11.580  18.299   5.597  0.1105  0.0468  0.0885
  972loPI    C115209  12.813   8.494   4.993  0.1901  0.1173  0.0288
  972loPI    C215210  12.776   8.561   4.600 -0.2634  0.0226  0.0507
  972loPI    C315211  12.883   8.199   4.732  0.4143  0.1912  0.0022
  972loPI   PO415212  12.579   8.584   5.170 -0.5311 -0.0194  0.1840
  972loPI   GL115213  12.589   8.515   5.552  0.1780 -0.2307 -0.3419
  972loPI   GL215214  12.939   8.549   5.522 -0.0923  0.0093  0.1616
  972loPI   C1A15215  12.672   8.691   5.993  0.3355 -0.1759  0.0905
  972loPI   C2A15216  12.714   8.577   6.384  0.0596 -0.3447  0.0794
  972loPI   C3A15217  12.840   8.222   6.655  0.0864  0.0825 -0.0281
  972loPI   C4A15218  13.130   8.054   6.980 -0.2003  0.2492  0.0332
  972loPI   C5A15219  13.293   7.792   7.261 -0.3690  0.1154 -0.0092
  972loPI   C6A15220  13.596   7.936   7.561 -0.0858 -0.4946 -0.1266
  972loPI   C1B15221  13.099   8.450   5.904  0.2466  0.2600 -0.0947
  972loPI   C2B15222  13.246   8.640   6.251  0.4173  0.3055 -0.2366
  972loPI   C3B15223  13.420   8.899   6.520 -0.2708  0.1651 -0.1337
  972loPI   C4B15224  13.391   9.287   6.744  0.1199 -0.0769  0.2472
  973loPI    C115225   8.472  17.086   4.515  0.0972 -0.0063 -0.1005
  973loPI    C215226   8.762  17.152   4.247  0.3288 -0.0096  0.1446
  973loPI    C315227   8.382  17.116   4.127  0.4226  0.0404 -0.1753
  973loPI   PO415228   8.645  16.879   4.686 -0.1670  0.0170 -0.0970
  973loPI   GL115229   8.737  16.957   5.189  0.2303 -0.0086  0.1134
  973loPI   GL215230   9.040  17.067   5.086  0.0527 -0.2885  0.2514
  973loPI   C1A15231   8.619  17.322   5.411 -0.1843 -0.0193 -0.2331
  973loPI   C2A15232   8.478  17.426   5.780  0.1083  0.1990  0.1803
  973loPI   C3A15233   8.402  17.342   6.179  0.2747 -0.0621  0.1352
  973loPI   C4A15234   8.433  17.433   6.533  0.1002 -0.0923  0.1150
  973loPI   C5A15235   8.676  17.204   6.729  0.0997 -0.1020  0.0899
  973loPI   C6A15236   8.765  16.725   6.809 -0.0095 -0.0162 -0.2277
  973loPI   C1B15237   9.137  16.778   5.457  0.3053  0.2809 -0.0442
  973loPI   C2B15238   9.002  16.528   5.791  0.1668  0.2385 -0.1583
  973loPI   C3B15239   8.833  16.079   5.881 -0.2448 -0.0469  0.0379
  973loPI   C4B15240   8.501  15.807   6.067  0.0965 -0.0032 -0.0152
  974loPI    C115241   5.948   9.942   4.906  0.1072 -0.0583  0.1360
  974loPI    C215242   5.753   9.649   5.096  0.0201 -0.0713  0.0276
  974loPI    C315243   5.548   9.933   4.902  0.1088 -0.1158 -0.1333
  974loPI   PO415244   6.140  10.043   5.022 -0.1180 -0.1007 -0.1497
  974loPI   GL115245   6.468   9.965   5.318  0.0220 -0.1476  0.2081
  974loPI   GL215246   6.154   9.939   5.520 -0.0452 -0.1230  0.1082
  974loPI   C1A15247   6.631  10.070   5.750  0.2240  0.0389 -0.3224
  974loPI   C2A15248   6.433  10.294   6.041  0.2159  0.1698  0.0101
  974loPI   C3A15249   6.510  10.540   6.304  0.0132 -0.1002 -0.0243
  974loPI   C4A15250   6.290  10.707   6.557 -0.2007 -0.1113  0.1454
  974loPI   C5A15251   5.966  10.944   6.509 -0.0553  0.1904 -0.5109
  974loPI   C6A15252   5.774  11.194   6.080  0.4860 -0.1278 -0.2601
  974loPI   C1B15253   6.178   9.748   5.806 -0.0254  0.2140  0.3722
  974loPI   C2B15254   6.397   9.796   6.230 -0.0127 -0.1168  0.0251
  974loPI   C3B15255   6.344  10.137   6.532 -0.0108 -0.0162 -0.2162
  974loPI   C4B15256   6.383  10.360   6.978  0.0919 -0.1323  0.2661
  975loPI    C115257   2.649   7.557   4.958 -0.1540  0.1788 -0.1438
  975loPI    C215258   2.647   7.267   4.682 -0.0973 -0.1757  0.2190
  975loPI    C315259   2.990   7.449   4.777 -0.1390  0.0407 -0.0354
  975loPI   PO415260   2.527   7.494   5.094  0.3278 -0.1339  0.1910
  975loPI   GL115261   2.499   7.652   5.491 -0.0846 -0.0460 -0.0632
  975loPI   GL215262   2.297   7.872   5.316 -0.0076  0.1658  0.4860
  975loPI   C1A15263   2.726   7.841   5.749  0.3268 -0.0900  0.0483
  975loPI   C2A15264   2.665   8.054   6.128  0.1700  0.1121 -0.0675
  975loPI   C3A15265   2.617   8.329   6.492  0.1064  0.4078  0.1760
  975loPI   C4A15266   2.680   8.354   6.960  0.1215  0.0082  0.3913
  975loPI   C5A15267   2.939   8.367   7.323  0.1410 -0.2108  0.0836
  975loPI   C6A15268   3.188   8.132   7.557  0.3183 -0.1992  0.0184
  975loPI   C1B15269   2.314   8.201   5.697  0.0852  0.3760  0.0660
  975loPI   C2B15270   1.994   8.327   5.984  0.1995 -0.0176  0.0479
  975loPI   C3B15271   2.175   8.520   6.353 -0.1526 -0.1692 -0.0725
  975loPI   C4B15272   1.937   8.615   6.751 -0.2778 -0.2558 -0.0440
  976loPI    C115273  18.710  17.565   4.517 -0.1205  0.0995  0.1026
  976loPI    C215274  18.517  17.903   4.426 -0.0903  0.0060 -0.3277
  976loPI    C315275  18.910  17.872   4.357 -0.0900 -0.1121 -0.2757
  976loPI   PO415276  18.647  17.526   4.761  0.2113 -0.2230 -0.0884
  976loPI   GL115277  18.654  17.514   5.240 -0.0601 -0.3765  0.0430
  976loPI   GL215278  18.467  17.576   5.548  0.3047  0.0415 -0.4141
  976loPI   C1A15279  18.844  17.263   5.517 -0.2120 -0.2725  0.1306
  976loPI   C2A15280  18.913  17.247   6.019 -0.0644 -0.1378  0.1282
  976loPI   C3A15281  19.090  17.231   6.356 -0.0593 -0.1408  0.0168
  976loPI   C4A15282  19.035  17.410   6.744 -0.2878 -0.0935 -0.0320
  976loPI   C5A15283  19.229  17.280   7.121  0.4433  0.2451  0.0303
  976loPI   C6A15284  19.617  17.163   7.114  0.0721  0.1740 -0.1360
  976loPI   C1B15285  18.411  17.239   5.893 -0.4068 -0.3107  0.4061
  976loPI   C2B15286  18.530  17.140   6.374  0.1907  0.0418 -0.0056
  976loPI   C3B15287  18.744  17.000   6.773 -0.0931  0.1921  0.0808
  976loPI   C4B15288  18.852  17.008   7.175 -0.1949 -0.2019 -0.0909
  977loPI    C115289   4.642  18.445   4.872 -0.1199  0.0956  0.1997
  977loPI    C215290   4.485  18.785   5.011 -0.1280  0.1134  0.1472
  977loPI    C315291   4.561  18.745   4.621 -0.1338  0.0523  0.1523
  977loPI   PO415292   4.885  18.204   5.012 -0.2292 -0.0540 -0.2055
  977loPI   GL115293   5.258  18.067   5.357 -0.1444 -0.1440 -0.0510
  977loPI   GL215294   5.432  18.235   5.521  0.0216  0.0321 -0.0168
  977loPI   C1A15295   5.420  17.755   5.737 -0.0433  0.0316 -0.0010
  977loPI   C2A15296   5.673  17.834   6.124  0.2170 -0.1082  0.2383
  977loPI   C3A15297   5.763  17.796   6.445 -0.2417 -0.0288 -0.0310
  977loPI   C4A15298   5.820  17.736   6.863  0.0933  0.1282  0.1458
  977loPI   C5A15299   5.701  17.883   7.189  0.1025  0.1247  0.0461
  977loPI   C6A15300   5.374  18.254   7.218  0.0551  0.0046 -0.0848
  977loPI   C1B15301   5.554  18.210   5.876  0.0267 -0.2264 -0.1921
  977loPI   C2B15302   5.417  18.214   6.233 -0.1550  0.0671 -0.1014
  977loPI   C3B15303   5.285  17.968   6.554 -0.0757 -0.0857 -0.0612
  977loPI   C4B15304   5.254  17.847   6.971 -0.0324  0.2002 -0.1870
  978loPI    C115305  12.378   8.832   4.808 -0.1724  0.0230 -0.1180
  978loPI    C215306  12.530   8.984   4.470 -0.0232  0.0171 -0.0542
  978loPI    C315307  12.288   8.666   4.455 -0.1099  0.0875 -0.1646
  978loPI   PO415308  12.393   9.103   4.936  0.2127 -0.1584  0.1292
  978loPI   GL115309  12.525   9.256   5.328 -0.0065  0.0860 -0.0780
  978loPI   GL215310  12.775   9.040   5.441 -0.0836 -0.0149  0.2020
  978loPI   C1A15311  12.523   9.430   5.726  0.1451  0.1905  0.0546
  978loPI   C2A15312  12.635   9.397   6.151 -0.3070  0.0934  0.3014
  978loPI   C3A15313  12.455   9.614   6.366  0.0447  0.1244 -0.1389
  978loPI   C4A15314  12.307   9.990   6.692 -0.1274  0.1139 -0.1594
  978loPI   C5A15315  12.372  10.336   6.964  0.1384 -0.1637  0.2131
  978loPI   C6A15316  12.274  10.682   7.144  0.0556  0.0806 -0.2535
  978loPI   C1B15317  13.073   9.036   5.873  0.0684  0.2093  0.0410
  978loPI   C2B15318  12.996   9.023   6.333  0.1799  0.0520  0.1649
  978loPI   C3B15319  12.890   9.128   6.729 -0.2637 -0.1399  0.0021
  978loPI   C4B15320  12.834   9.147   7.211  0.1811 -0.1016  0.1932
  979loPI    C115321   2.618  14.256   4.080  0.0452  0.1010  0.1580
  979loPI    C215322   2.865  14.018   3.875 -0.1078  0.1944 -0.1413
  979loPI    C315323   2.910  14.415   3.858 -0.1313  0.2033 -0.0047
  979loPI   PO415324   2.713  14.158   4.339  0.1926 -0.0288 -0.1016
  979loPI   GL115325   2.793  14.226   4.753  0.2285  0.0863  0.1847
  979loPI   GL215326   2.871  13.920   5.032 -0.1880  0.1675 -0.0864
  979loPI   C1A15327   2.732  14.344   5.200  0.0136 -0.2798 -0.0689
  979loPI   C2A15328   2.675  14.461   5.588 -0.0175  0.0791 -0.3625
  979loPI   C3A15329   2.675  14.699   5.965 -0.1141  0.0906  0.0404
  979loPI   C4A15330   2.552  14.654   6.389  0.1701 -0.0467  0.0239
  979loPI   C5A15331   2.794  14.426   6.572 -0.0793 -0.0254  0.0747
  979loPI   C6A15332   2.863  14.312   6.973 -0.2015 -0.0226  0.0229
  979loPI   C1B15333   2.635  13.893   5.459 -0.2333 -0.1052 -0.0977
  979loPI   C2B15334   2.592  14.026   5.849  0.1792 -0.3670  0.1482
  979loPI   C3B15335   2.544  13.973   6.234 -0.0759 -0.3446  0.0147
  979loPI   C4B15336   2.335  14.206   6.548 -0.0606  0.2839  0.4709
  980loPI    C115337   8.242   1.732   4.673 -0.0514  0.0655 -0.1908
  980loPI    C215338   8.634   1.730   4.597 -0.0459  0.2142 -0.1679
  980loPI    C315339   8.460   1.407   4.756  0.0893  0.1907 -0.0658
  980loPI   PO415340   8.181   1.888   4.918  0.4074 -0.1073 -0.0851
  980loPI   GL115341   8.499   2.048   5.260 -0.0889 -0.1232 -0.1351
  980loPI   GL215342   8.413   1.781   5.335  0.2179  0.0165  0.1527
  980loPI   C1A15343   8.226   2.255   5.546  0.3964 -0.0757 -0.0046
  980loPI   C2A15344   8.053   2.203   5.990 -0.2369 -0.0564 -0.1894
  980loPI   C3A15345   7.855   2.073   6.367  0.1189 -0.3837  0.0834
  980loPI   C4A15346   7.827   2.002   6.831 -0.1452  0.1019 -0.0090
  980loPI   C5A15347   7.915   1.879   7.391  0.0027 -0.2270 -0.0587
  980loPI   C6A15348   8.056   2.015   7.777 -0.4914 -0.1255 -0.0345
  980loPI   C1B15349   8.309   1.848   5.763  0.3123  0.1065 -0.0664
  980loPI   C2B15350   8.467   1.751   6.191 -0.2285  0.0579 -0.1582
  980loPI   C3B15351   8.645   1.726   6.526 -0.0996 -0.3518 -0.1117
  980loPI   C4B15352   8.954   1.543   6.846 -0.1141 -0.0154 -0.1710
  981loPI    C115353   8.990   3.896   4.261 -0.0801  0.0858 -0.2004
  981loPI    C215354   9.389   3.899   4.283 -0.0875 -0.0677 -0.0138
  981loPI    C315355   9.208   3.917   3.927  0.0815  0.2045 -0.0895
  981loPI   PO415356   8.951   3.694   4.511 -0.0327 -0.1004 -0.0593
  981loPI   GL115357   9.284   3.638   4.749  0.1025  0.2147 -0.0517
  981loPI   GL215358   9.206   3.615   5.099 -0.0356 -0.1062 -0.3132
  981loPI   C1A15359   9.458   4.024   5.137  0.0756  0.0401  0.1430
  981loPI   C2A15360   9.490   4.178   5.589 -0.0852 -0.1159  0.0628
  981loPI   C3A15361   9.637   4.205   6.031 -0.1442 -0.0623 -0.1186
  981loPI   C4A15362   9.730   4.305   6.477 -0.1731  0.1712  0.2867
  981loPI   C5A15363   9.949   4.357   6.929 -0.2259  0.1219  0.0321
  981loPI   C6A15364   9.817   4.774   7.182 -0.0341  0.3261  0.1495
  981loPI   C1B15365   9.200   3.768   5.549  0.2676  0.3373  0.0027
  981loPI   C2B15366   9.201   3.946   5.949  0.1252 -0.0705  0.3131
  981loPI   C3B15367   9.268   3.969   6.303 -0.2175  0.0551 -0.0725
  981loPI   C4B15368   9.179   4.247   6.696  0.1779  0.0336  0.1404
  982loPI    C115369  11.690   3.005   4.942  0.1345 -0.1539  0.0193
  982loPI    C215370  11.613   3.148   4.577 -0.0612 -0.2154  0.0354
  982loPI    C315371  11.910   3.305   4.794 -0.2274  0.1223  0.0263
  982loPI   PO415372  11.477   2.985   5.054 -0.0465 -0.0386  0.0642
  982loPI   GL115373  11.193   3.038   5.387 -0.0907  0.0387 -0.1191
  982loPI   GL215374  11.465   3.326   5.471  0.1836 -0.1965  0.0238
  982loPI   C1A15375  11.137   3.123   5.936 -0.1091 -0.0534 -0.1305
  982loPI   C2A15376  11.226   3.399   6.086 -0.0379  0.1159 -0.2515
  982loPI   C3A15377  11.135   3.360   6.540  0.0942  0.2360  0.0591
  982loPI   C4A15378  11.102   3.530   6.979 -0.0441 -0.2116 -0.0052
  982loPI   C5A15379  11.333   3.837   7.318 -0.2863 -0.0538  0.1352
  982loPI   C6A15380  11.593   4.155   7.293  0.1599  0.2347 -0.1996
  982loPI   C1B15381  11.663   3.193   5.909  0.1185 -0.0594 -0.0069
  982loPI   C2B15382  11.623   3.132   6.338  0.4253  0.1417  0.1020
  982loPI   C3B15383  11.562   3.241   6.812  0.1286  0.1068  0.0001
  982loPI   C4B15384  11.611   3.493   7.065 -0.1861 -0.2699 -0.0613
  983loPI    C115385  13.710   8.098   4.888 -0.2206  0.0115 -0.0279
  983loPI    C215386  13.382   8.187   4.677 -0.1055 -0.1884 -0.2969
  983loPI    C315387  13.534   7.817   4.664 -0.0202 -0.1683  0.0364
  983loPI   PO415388  13.716   8.265   5.130  0.2503  0.1347 -0.1360
  983loPI   GL115389  13.931   8.361   5.529 -0.3262 -0.2514 -0.1405
  983loPI   GL215390  14.217   8.193   5.557 -0.1880 -0.2846 -0.1798
  983loPI   C1A15391  13.854   7.960   5.850 -0.1656  0.0295  0.2530
  983loPI   C2A15392  14.112   7.691   6.139 -0.2770  0.0734  0.3325
  983loPI   C3A15393  14.366   7.663   6.359 -0.1964 -0.0899  0.1080
  983loPI   C4A15394  14.667   7.791   6.683  0.0859 -0.0723 -0.2469
  983loPI   C5A15395  14.999   7.932   6.872 -0.0259  0.1421 -0.2751
  983loPI   C6A15396  15.077   8.128   7.166 -0.5797  0.0730  0.1293
  983loPI   C1B15397  14.222   8.280   6.017  0.0408  0.0596  0.1850
  983loPI   C2B15398  14.147   8.136   6.419  0.0963  0.1821 -0.0787
  983loPI   C3B15399  14.203   8.174   6.924  0.2698  0.0628 -0.2119
  983loPI   C4B15400  14.322   7.930   7.258 -0.1104 -0.1745  0.0245
  984loPI    C115401  18.380  10.992   4.192 -0.0311  0.2637  0.1630
  984loPI    C215402  18.519  11.234   3.905 -0.0643 -0.0656 -0.1383
  984loPI    C315403  18.491  10.840   3.838  0.1510 -0.1818  0.4030
  984loPI   PO415404  18.511  11.020   4.444  0.1221 -0.0914  0.1623
  984loPI   GL115405  18.301  11.252   4.776 -0.1391  0.1596 -0.2746
  984loPI   GL215406  18.429  10.961   4.913 -0.0084  0.2996  0.2457
  984loPI   C1A15407  18.262  11.273   5.213  0.3078  0.1033  0.0813
  984loPI   C2A15408  18.124  11.105   5.619 -0.1551 -0.0015 -0.2302
  984loPI   C3A15409  18.232  10.992   6.069 -0.0007 -0.1772  0.4678
  984loPI   C4A15410  18.247  10.916   6.531  0.0586  0.1932  0.0141
  984loPI   C5A15411  18.057  11.146   6.945  0.2086  0.1488  0.1765
  984loPI   C6A15412  17.836  11.171   7.294  0.3328 -0.1063  0.0962
  984loPI   C1B15413  18.470  10.756   5.274  0.0277  0.1281  0.0418
  984loPI   C2B15414  18.429  10.738   5.682 -0.0069  0.0344 -0.0623
  984loPI   C3B15415  18.469  10.516   6.054 -0.3670 -0.0955  0.0899
  984loPI   C4B15416  18.603  10.446   6.562 -0.2801  0.0945 -0.0376
  985loPI    C115417   6.004   8.275   4.783  0.0365  0.0173  0.0642
  985loPI    C215418   6.334   8.194   4.573  0.0379  0.0010  0.0727
  985loPI    C315419   6.001   8.309   4.384 -0.0078 -0.1694  0.0476
  985loPI   PO415420   6.184   8.408   4.985  0.1745  0.2941  0.3000
  985loPI   GL115421   6.201   8.607   5.360 -0.1172 -0.1354 -0.1234
  985loPI   GL215422   6.463   8.416   5.420 -0.1258 -0.1156  0.0873
  985loPI   C1A15423   6.039   8.443   5.786 -0.1077 -0.0658 -0.1276
  985loPI   C2A15424   6.178   8.313   6.144 -0.0978  0.2761 -0.0809
  985loPI   C3A15425   6.187   8.219   6.582 -0.0319  0.0594 -0.0032
  985loPI   C4A15426   6.119   8.191   6.994 -0.0857  0.2254  0.0671
  985loPI   C5A15427   6.048   7.886   7.320 -0.0048 -0.2094 -0.3469
  985loPI   C6A15428   6.356   7.601   7.254 -0.2609  0.1071 -0.2201
  985loPI   C1B15429   6.471   8.690   5.775  0.0755  0.1744 -0.1661
  985loPI   C2B15430   6.438   8.808   6.146  0.1381 -0.2440 -0.0473
  985loPI   C3B15431   6.244   8.792   6.589  0.3660  0.2611 -0.0173
  985loPI   C4B15432   6.171   8.998   6.974  0.0585 -0.0126 -0.0266
  986loPI    C115433   4.737  16.343   4.616 -0.1564 -0.0879 -0.1432
  986loPI    C215434   4.740  16.724   4.493  0.1670 -0.0689 -0.0874
  986loPI    C315435   4.988  16.458   4.327 -0.0050 -0.2406 -0.0745
  986loPI   PO415436   4.748  16.376   4.897  0.0985 -0.1752  0.2614
  986loPI   GL115437   4.723  16.131   5.255 -0.0454  0.1966  0.1892
  986loPI   GL215438   5.059  16.010   5.284  0.1403  0.3785 -0.0195
  986loPI   C1A15439   4.772  16.258   5.671  0.0443 -0.0197  0.3521
  986loPI   C2A15440   4.798  16.367   6.156 -0.0804  0.1586 -0.1473
  986loPI   C3A15441   4.967  16.763   6.323  0.0497  0.1661  0.0781
  986loPI   C4A15442   4.705  16.942   6.628 -0.4090  0.0093  0.2493
  986loPI   C5A15443   4.612  17.205   6.967  0.0480 -0.1141  0.0861
  986loPI   C6A15444   4.445  17.422   7.335  0.1776  0.0964  0.2759
  986loPI   C1B15445   4.968  15.790   5.697 -0.3801  0.1069  0.2131
  986loPI   C2B15446   4.969  15.896   6.021 -0.1338 -0.1374  0.1502
  986loPI   C3B15447   4.930  15.820   6.485 -0.0046 -0.3059 -0.1649
  986loPI   C4B15448   5.169  15.999   6.920  0.0556 -0.1880  0.2028
  987loPI    C115449   5.002  18.851   4.925 -0.2780 -0.1238 -0.1777
  987loPI    C215450   5.346  18.831   4.722 -0.2649  0.3252 -0.2099
  987loPI    C315451   5.028  18.625   4.596  0.0089 -0.1581 -0.1343
  987loPI   PO415452   5.017  18.817   5.129  0.0413  0.3897  0.5216
  987loPI   GL115453   4.741  18.742   5.469 -0.0466  0.1143  0.1516
  987loPI   GL215454   4.948  18.414   5.469  0.1980 -0.0813 -0.0607
  987loPI   C1A15455   4.749  18.721   5.874 -0.1415  0.5048 -0.3107
  987loPI   C2A15456   4.896  18.535   6.207 -0.0413 -0.1217 -0.1738
  987loPI   C3A15457   4.848  18.204   6.401  0.0600 -0.2211  0.1226
  987loPI   C4A15458   4.511  17.983   6.746 -0.0123  0.1929 -0.1578
  987loPI   C5A15459   4.225  17.799   6.997  0.1244 -0.1643  0.0309
  987loPI   C6A15460   4.051  17.775   7.392 -0.1382  0.2224  0.2422
  987loPI   C1B15461   4.985  18.154   5.821 -0.0100 -0.0495  0.5035
  987loPI   C2B15462   5.042  17.765   6.185  0.1379 -0.0979  0.0261
  987loPI   C3B15463   5.383  17.420   6.214  0.0178 -0.2536 -0.1037
  987loPI   C4B15464   5.556  17.303   6.563 -0.2896 -0.0104  0.0936
  988loPI    C115465   7.749   1.588   4.704  0.1266 -0.0861 -0.0187
  988loPI    C215466   7.473   1.700   4.437  0.0045 -0.1437  0.0820
  988loPI    C315467   7.789   1.935   4.509  0.0806 -0.1650 -0.1705
  988loPI   PO415468   7.533   1.407   4.952  0.3524 -0.1802 -0.1728
  988loPI   GL115469   7.590   1.221   5.307 -0.1609  0.0007  0.1333
  988loPI   GL215470   7.815   1.304   5.611 -0.0330  0.1058 -0.0252
  988loPI   C1A15471   7.415   1.613   5.551 -0.0126  0.0960 -0.0377
  988loPI   C2A15472   7.065   1.804   5.731  0.3083 -0.5506 -0.1485
  988loPI   C3A15473   6.953   2.046   6.071 -0.1563 -0.2502 -0.3438
  988loPI   C4A15474   6.957   2.084   6.491  0.3224  0.2999 -0.2409
  988loPI   C5A15475   6.917   1.960   6.944 -0.1779  0.2525  0.0836
  988loPI   C6A15476   7.006   1.973   7.452 -0.1582 -0.1813  0.0729
  988loPI   C1B15477   7.745   1.114   6.017  0.1060  0.1980 -0.2610
  988loPI   C2B15478   7.821   0.965   6.434 -0.0250  0.4469 -0.0550
  988loPI   C3B15479   7.512   0.780   6.785  0.0505 -0.1564  0.1160
  988loPI   C4B15480   7.435   0.548   7.137  0.0511 -0.2159  0.0171
  989loPI    C115481   3.364   3.033   4.762  0.6126 -0.1901 -0.0957
  989loPI    C215482   3.401   3.387   4.579  0.2511 -0.0278  0.1339
  989loPI    C315483   3.319   3.058   4.366  0.0534  0.1206 -0.0220
  989loPI   PO415484   3.129   3.095   4.992  0.0846 -0.2093  0.0576
  989loPI   GL115485   3.048   2.825   5.420 -0.3898 -0.0126  0.0890
  989loPI   GL215486   2.904   3.094   5.447 -0.0306  0.0764  0.0289
  989loPI   C1A15487   2.891   2.672   5.820  0.0494  0.0762  0.1349
  989loPI   C2A15488   2.717   2.676   6.182  0.0879 -0.0404  0.1181
  989loPI   C3A15489   2.596   2.481   6.566  0.0206 -0.0799  0.1605
  989loPI   C4A15490   2.350   2.345   6.813 -0.3654 -0.1194 -0.4142
  989loPI   C5A15491   2.366   2.177   7.148  0.0058 -0.1505  0.0072
  989loPI   C6A15492   2.422   1.975   7.530 -0.2401  0.0243  0.0300
  989loPI   C1B15493   2.902   3.199   5.875 -0.2208  0.0017  0.0456
  989loPI   C2B15494   2.812   3.181   6.194 -0.1066  0.0080  0.0396
  989loPI   C3B15495   2.703   3.083   6.618  0.0324  0.2749  0.3358
  989loPI   C4B15496   2.674   2.812   6.956  0.0589 -0.2298 -0.0871
  990loPI    C115497  18.976   5.347   5.119 -0.1015 -0.1112  0.0104
  990loPI    C215498  19.297   5.434   4.896 -0.1637  0.0115 -0.0321
  990loPI    C315499  18.930   5.514   4.759 -0.2051  0.0319  0.0890
  990loPI   PO415500  19.095   5.048   5.154  0.0269  0.1021 -0.0955
  990loPI   GL115501  19.158   4.903   5.514  0.0733 -0.1112  0.0067
  990loPI   GL215502  19.212   4.610   5.593 -0.0715 -0.0552  0.1259
  990loPI   C1A15503  19.286   5.066   5.930  0.0900  0.2216  0.3389
  990loPI   C2A15504  19.467   4.994   6.270 -0.2317  0.0405 -0.1863
  990loPI   C3A15505  19.603   4.980   6.644 -0.0295 -0.2427 -0.0116
  990loPI   C4A15506  19.730   5.171   6.993 -0.0057 -0.1979  0.0719
  990loPI   C5A15507  19.822   5.295   7.458  0.0547  0.0620 -0.0933
  990loPI   C6A15508  20.069   5.157   7.825 -0.0013 -0.3503 -0.1214
  990loPI   C1B15509  18.891   4.654   5.816 -0.1330 -0.2387 -0.0264
  990loPI   C2B15510  18.696   4.536   6.091 -0.2798 -0.1989 -0.0046
  990loPI   C3B15511  18.483   4.588   6.471 -0.2189 -0.2535 -0.2869
  990loPI   C4B15512  18.581   4.908   6.632  0.0690  0.1654 -0.1945
  991loPI    C115513   7.226  14.943   4.293  0.1213 -0.2247 -0.1743
  991loPI    C215514   7.606  14.949   4.170  0.2086 -0.0242  0.0978
  991loPI    C315515   7.371  15.267   4.109  0.0673 -0.1677 -0.1174
  991loPI   PO415516   7.210  14.907   4.544 -0.0015  0.1465 -0.1544
  991loPI   GL115517   7.022  15.087   4.964 -0.0524 -0.0514 -0.0137
  991loPI   GL215518   6.928  15.450   4.718 -0.0506  0.0334 -0.1837
  991loPI   C1A15519   7.276  15.256   5.304 -0.3090  0.0822 -0.0943
  991loPI   C2A15520   7.360  15.467   5.615 -0.0368  0.0804  0.2878
  991loPI   C3A15521   7.588  15.775   5.933 -0.3358 -0.1747 -0.1437
  991loPI   C4A15522   7.636  16.192   6.121  0.1606 -0.0935 -0.0907
  991loPI   C5A15523   7.571  16.247   6.580 -0.1888 -0.0685 -0.0048
  991loPI   C6A15524   7.378  16.091   6.947 -0.1926 -0.2712  0.3579
  991loPI   C1B15525   6.934  15.608   5.205  0.2164  0.2806 -0.2115
  991loPI   C2B15526   6.673  15.925   5.519  0.1935  0.0837  0.0175
  991loPI   C3B15527   6.708  16.093   5.814 -0.1541  0.2746 -0.1824
  991loPI   C4B15528   6.657  16.167   6.290  0.1662 -0.2422  0.2415
  992loPI    C115529   8.742   6.811   4.792 -0.2496  0.0027 -0.1011
  992loPI    C215530   8.623   6.471   4.618 -0.1805 -0.1846  0.2107
  992loPI    C315531   8.413   6.807   4.564 -0.2187 -0.2614 -0.1441
  992loPI   PO415532   8.781   6.819   5.051  0.0769 -0.2067  0.1360
  992loPI   GL115533   8.909   7.185   5.273  0.1091  0.0076 -0.0613
  992loPI   GL215534   9.091   7.403   5.218 -0.0725 -0.1666 -0.3274
  992loPI   C1A15535   8.591   7.202   5.581 -0.0040  0.0569 -0.0808
  992loPI   C2A15536   8.586   7.125   6.042 -0.1130 -0.1116  0.3597
  992loPI   C3A15537   8.480   7.004   6.428  0.0356  0.0421  0.1052
  992loPI   C4A15538   8.539   7.004   6.901 -0.0205  0.2535  0.1856
  992loPI   C5A15539   8.455   7.323   7.206  0.0079  0.0158  0.2632
  992loPI   C6A15540   8.046   7.456   7.382  0.1002 -0.0122 -0.1376
  992loPI   C1B15541   8.786   7.615   5.530  0.2755  0.0056  0.0238
  992loPI   C2B15542   8.685   7.655   5.952  0.1641  0.0859  0.0099
  992loPI   C3B15543   8.618   7.498   6.389  0.1890 -0.0891  0.1063
  992loPI   C4B15544   8.377   7.430   6.646 -0.1696  0.3601 -0.2706
  993loPI    C115545  14.312  17.454   4.976  0.1527  0.1247 -0.0849
  993loPI    C215546  14.316  17.248   4.633  0.2576 -0.0417  0.0151
  993loPI    C315547  14.378  17.060   4.980  0.2329  0.1394  0.1189
  993loPI   PO415548  13.989  17.576   5.002  0.4881 -0.2728 -0.0917
  993loPI   GL115549  13.642  17.831   5.278  0.2564  0.0141 -0.0827
  993loPI   GL215550  13.881  17.895   5.386 -0.3675 -0.1084  0.3244
  993loPI   C1A15551  13.566  18.063   5.718 -0.0489 -0.1865  0.2680
  993loPI   C2A15552  13.430  18.411   6.007 -0.0028 -0.1585  0.1350
  993loPI   C3A15553  13.355  18.453   6.507 -0.4170 -0.0769  0.0064
  993loPI   C4A15554  13.305  18.417   6.951 -0.1079  0.5108  0.3238
  993loPI   C5A15555  13.329  18.170   7.297  0.0406  0.3287 -0.0564
  993loPI   C6A15556  13.246  17.875   7.495 -0.2516  0.2329  0.1883
  993loPI   C1B15557  13.883  17.603   5.728  0.2938  0.0135  0.3669
  993loPI   C2B15558  14.018  17.293   6.016  0.0173 -0.1119 -0.0589
  993loPI   C3B15559  14.457  17.159   6.010 -0.2869 -0.0560 -0.1882
  993loPI   C4B15560  14.785  17.445   5.856 -0.3108 -0.2249  0.2636
  994loPI    C115561  16.247   3.143   4.607 -0.2329 -0.0863 -0.0564
  994loPI    C215562  16.533   2.943   4.411  0.0662  0.0729  0.2079
  994loPI    C315563  16.468   3.329   4.331 -0.2654 -0.0302 -0.0447
  994loPI   PO415564  16.286   3.093   4.862 -0.1836  0.0730 -0.2439
  994loPI   GL115565  16.390   2.741   5.203  0.1809 -0.1659 -0.0042
  994loPI   GL215566  16.062   2.744   5.222 -0.1174  0.2502  0.0421
  994loPI   C1A15567  16.731   2.582   5.564  0.1661  0.3097 -0.2159
  994loPI   C2A15568  16.905   2.359   5.915 -0.4185 -0.0585  0.0610
  994loPI   C3A15569  16.936   2.013   6.153 -0.1195 -0.3309  0.1542
  994loPI   C4A15570  17.066   1.912   6.503 -0.2798 -0.0928  0.0830
  994loPI   C5A15571  17.039   1.552   6.758 -0.0625  0.0211  0.4732
  994loPI   C6A15572  17.022   1.077   6.896  0.0991 -0.0027 -0.1838
  994loPI   C1B15573  16.242   2.570   5.643 -0.0027 -0.7155  0.0118
  994loPI   C2B15574  16.378   2.501   5.989  0.1617 -0.0514 -0.0894
  994loPI   C3B15575  16.598   2.388   6.319 -0.0284  0.1657 -0.1651
  994loPI   C4B15576  16.690   2.214   6.673 -0.1734  0.1006  0.5259
  995loPI    C115577   3.685   4.711   4.382  0.0032 -0.0010 -0.1154
  995loPI    C215578   3.369   4.468   4.357  0.0611 -0.0690 -0.1929
  995loPI    C315579   3.539   4.610   4.024  0.1554 -0.0892 -0.1537
  995loPI   PO415580   3.690   4.836   4.518  0.0278 -0.2779  0.0759
  995loPI   GL115581   3.577   5.008   4.937 -0.0426 -0.2304 -0.2479
  995loPI   GL215582   3.402   5.063   5.142  0.4176  0.2190 -0.3906
  995loPI   C1A15583   3.483   4.664   5.312 -0.2186  0.3812 -0.0781
  995loPI   C2A15584   3.706   4.587   5.742 -0.0867  0.0952  0.0469
  995loPI   C3A15585   3.663   4.727   6.094  0.1586  0.0219  0.0443
  995loPI   C4A15586   3.549   4.853   6.504  0.0894 -0.0315 -0.2529
  995loPI   C5A15587   3.389   5.237   6.652 -0.1068 -0.1813  0.0422
  995loPI   C6A15588   3.202   5.291   7.027  0.0532 -0.1109  0.1841
  995loPI   C1B15589   3.535   5.074   5.640 -0.1434  0.3692 -0.1912
  995loPI   C2B15590   3.447   5.219   6.028  0.0217  0.2846 -0.2737
  995loPI   C3B15591   3.461   5.566   6.256 -0.0468  0.2042  0.0225
  995loPI   C4B15592   3.280   5.926   6.182  0.1935 -0.0356  0.5556
  996loPI    C115593   4.706  14.700   4.265 -0.0632 -0.1239  0.1879
  996loPI    C215594   4.426  14.763   3.987  0.1419 -0.1070 -0.0173
  996loPI    C315595   4.526  14.389   4.088  0.1161 -0.1136 -0.0160
  996loPI   PO415596   4.665  14.823   4.541 -0.0274  0.1532  0.1748
  996loPI   GL115597   4.507  14.844   4.902  0.1067 -0.1311 -0.2816
  996loPI   GL215598   4.214  14.492   5.050  0.2086  0.1122 -0.2946
  996loPI   C1A15599   4.493  14.820   5.348 -0.0775 -0.0005  0.2093
  996loPI   C2A15600   4.691  14.777   5.773 -0.0401 -0.2216 -0.1084
  996loPI   C3A15601   4.721  14.519   6.159 -0.2226  0.1448  0.2450
  996loPI   C4A15602   5.044  14.471   6.558 -0.0325  0.3671 -0.3722
  996loPI   C5A15603   5.051  14.493   7.056 -0.2611 -0.0880  0.0523
  996loPI   C6A15604   5.050  14.196   7.410  0.1431  0.1605 -0.0977
  996loPI   C1B15605   4.137  14.502   5.484  0.2168 -0.3989  0.0034
  996loPI   C2B15606   4.209  14.520   5.896  0.0275  0.0898 -0.1961
  996loPI   C3B15607   4.168  14.699   6.305  0.3114 -0.0574 -0.1674
  996loPI   C4B15608   3.990  14.779   6.634 -0.0848  0.1750  0.2972
  997loPI    C115609   2.873   0.136   4.619  0.0442 -0.2243  0.2313
  997loPI    C215610   3.158   0.289   4.383 -0.0460 -0.1387  0.1773
  997loPI    C315611   3.166  -0.099   4.480 -0.1000 -0.2122 -0.1026
  997loPI   PO415612   2.791   0.389   4.763 -0.1740  0.2133  0.1109
  997loPI   GL115613   2.610   0.454   5.154 -0.0526 -0.0107 -0.2130
  997loPI   GL215614   2.269   0.506   5.278 -0.1486  0.0397  0.3571
  997loPI   C1A15615   2.604   0.254   5.512 -0.0895  0.2355 -0.1735
  997loPI   C2A15616   2.562   0.083   5.976  0.2614  0.0439 -0.3933
  997loPI   C3A15617   2.604  -0.042   6.434  0.1194  0.1241  0.0310
  997loPI   C4A15618   2.471  -0.103   6.975 -0.0214 -0.0707 -0.0150
  997loPI   C5A15619   2.229  -0.022   7.305 -0.3067 -0.2301 -0.1098
  997loPI   C6A15620   1.799   0.362   7.386 -0.0611  0.3346 -0.1982
  997loPI   C1B15621   2.196   0.441   5.793  0.2218  0.3803  0.0267
  997loPI   C2B15622   2.094   0.505   6.228 -0.3472 -0.0289 -0.2237
  997loPI   C3B15623   2.216   0.305   6.631  0.2146  0.0918  0.0907
  997loPI   C4B15624   1.995   0.236   6.918 -0.2203 -0.1831 -0.2450
  998loPI    C115625  16.052  11.080   4.254 -0.0273 -0.0736 -0.1773
  998loPI    C215626  15.881  10.719   4.238  0.0422 -0.1126 -0.0552
  998loPI    C315627  15.685  11.039   4.101 -0.0738 -0.1767 -0.0402
  998loPI   PO415628  16.179  11.054   4.525 -0.0486  0.1818 -0.1679
  998loPI   GL115629  16.186  11.028   5.037  0.1222 -0.0960  0.0546
  998loPI   GL215630  15.899  10.974   5.019  0.3439 -0.0900  0.0387
  998loPI   C1A15631  16.247  11.400   5.312 -0.0899 -0.0776  0.1370
  998loPI   C2A15632  16.117  11.405   5.666  0.1206  0.2338  0.2467
  998loPI   C3A15633  15.996  11.242   6.094  0.3969 -0.1713 -0.0208
  998loPI   C4A15634  15.910  11.197   6.544  0.1593 -0.2816 -0.0151
  998loPI   C5A15635  15.594  11.110   6.851 -0.2725  0.1614  0.0854
  998loPI   C6A15636  15.322  11.060   7.216  0.1232  0.2680  0.0723
  998loPI   C1B15637  15.651  11.364   5.220 -0.1885 -0.0286  0.4784
  998loPI   C2B15638  15.536  11.659   5.536 -0.2813  0.2677  0.0900
  998loPI   C3B15639  15.644  11.545   5.893  0.1144 -0.0354 -0.0270
  998loPI   C4B15640  15.861  11.730   6.181 -0.0602  0.0406 -0.1751
  999loPI    C115641  10.542  18.714   4.878  0.2069  0.3283  0.1374
  999loPI    C215642  10.631  18.852   4.513  0.2648  0.1463  0.0814
  999loPI    C315643  10.885  18.608   4.702 -0.0014 -0.1839  0.0216
  999loPI   PO415644  10.490  19.014   4.971 -0.0518  0.1815 -0.0139
  999loPI   GL115645  10.566  19.170   5.351  0.1007  0.1975  0.0746
  999loPI   GL215646  10.438  18.882   5.457 -0.2603 -0.2446  0.5079
  999loPI   C1A15647  10.850  19.267   5.648 -0.0030 -0.0575  0.0809
  999loPI   C2A15648  11.044  19.439   6.058 -0.2290 -0.1850  0.1158
  999loPI   C3A15649  11.372  19.657   6.392  0.1261  0.1327 -0.1860
  999loPI   C4A15650  11.430  19.597   6.843  0.2732 -0.0775  0.0091
  999loPI   C5A15651  11.596  19.438   7.234 -0.4198  0.0702  0.0906
  999loPI   C6A15652  11.671  19.652   7.685  0.0482  0.4689 -0.3880
  999loPI   C1B15653  10.538  19.052   5.971  0.1171  0.2196 -0.0306
  999loPI   C2B15654  10.745  19.198   6.355 -0.2266  0.1734 -0.1720
  999loPI   C3B15655  10.705  18.897   6.759  0.2087  0.6061 -0.0001
  999loPI   C4B15656  10.510  18.699   7.200 -0.0538  0.0040 -0.1505
 1000loPI    C115657   2.854  13.541   4.185 -0.0531 -0.0962  0.1311
 1000loPI    C215658   2.679  13.501   3.827  0.0433  0.3297  0.0303
 1000loPI    C315659   2.491  13.696   4.121 -0.1568 -0.2605  0.3110
 1000loPI   PO415660   2.979  13.277   4.351 -0.0060 -0.0630  0.0168
 1000loPI   GL115661   2.887  12.926   4.660 -0.0590  0.0099  0.3018
 1000loPI   GL215662   2.518  12.928   4.532 -0.1385 -0.0797  0.0574
 1000loPI   C1A15663   2.821  12.874   5.052  0.0898  0.4244  0.0196
 1000loPI   C2A15664   2.485  13.059   5.340  0.1339  0.0274  0.0636
 1000loPI   C3A15665   2.248  13.255   5.613  0.1695 -0.1880  0.0456
 1000loPI   C4A15666   2.172  13.091   6.119  0.2155 -0.0170  0.0288
 1000loPI   C5A15667   2.277  13.149   6.469 -0.0052  0.1040 -0.1464
 1000loPI   C6A15668   2.524  12.969   6.766 -0.2099  0.1033 -0.0722
 1000loPI   C1B15669   2.438  13.205   4.879  0.1966  0.1755  0.0145
 1000loPI   C2B15670   2.330  13.528   5.191 -0.0912  0.1826  0.0119
 1000loPI   C3B15671   2.187  13.721   5.692 -0.0948 -0.3512  0.6474
 1000loPI   C4B15672   2.109  13.615   6.139 -0.1694  0.1081 -0.1637
 1001loPI    C115673   4.991   6.930   4.426 -0.2282  0.2052 -0.0217
 1001loPI    C215674   4.656   6.827   4.233 -0.0928  0.0363 -0.1707
 1001loPI    C315675   5.007   6.671   4.122  0.0255  0.1499  0.0363
 1001loPI   PO415676   4.910   7.035   4.690  0.0596 -0.2080  0.2412
 1001loPI   GL115677   4.933   6.813   5.053 -0.1874  0.0211  0.0920
 1001loPI   GL215678   4.886   6.440   5.154 -0.0933 -0.2938  0.0386
 1001loPI   C1A15679   4.939   7.177   5.332  0.0041  0.4419 -0.5255
 1001loPI   C2A15680   5.204   7.215   5.743  0.0001 -0.0058  0.0369
 1001loPI   C3A15681   5.489   7.082   6.066 -0.1064  0.1716 -0.0017
 1001loPI   C4A15682   5.647   6.801   6.476 -0.1485  0.0780 -0.1855
 1001loPI   C5A15683   6.048   6.594   6.703  0.1598 -0.0433  0.1450
 1001loPI   C6A15684   6.495   6.717   6.666 -0.1504  0.3939  0.1440
 1001loPI   C1B15685   4.971   6.638   5.515 -0.2086  0.2081 -0.0752
 1001loPI   C2B15686   4.886   6.702   5.922  0.0734 -0.1655  0.1350
 1001loPI   C3B15687   5.113   6.636   6.394  0.0933  0.2024  0.0247
 1001loPI   C4B15688   5.183   6.624   6.848 -0.0746  0.0338 -0.1857
 1002loPI    C115689   1.731   5.185   4.893 -0.0574  0.0948  0.0116
 1002loPI    C215690   1.664   5.236   4.502  0.1192 -0.0374 -0.0369
 1002loPI    C315691   2.036   5.173   4.635  0.0537 -0.0411  0.1474
 1002loPI   PO415692   1.545   5.042   5.001 -0.1509  0.0864  0.1175
 1002loPI   GL115693   1.443   4.849   5.363 -0.0391  0.1007 -0.1819
 1002loPI   GL215694   1.295   5.034   5.514  0.2595  0.0839  0.1699
 1002loPI   C1A15695   1.738   4.733   5.724  0.1024 -0.0033 -0.0930
 1002loPI   C2A15696   1.678   4.953   6.034 -0.1382 -0.0524  0.1455
 1002loPI   C3A15697   1.755   4.869   6.413  0.0694  0.0274  0.0516
 1002loPI   C4A15698   1.552   4.901   6.775  0.0610  0.0371  0.2150
 1002loPI   C5A15699   1.171   4.868   6.980  0.2310 -0.1284 -0.0233
 1002loPI   C6A15700   0.952   4.436   6.978  0.1735  0.1173 -0.0777
 1002loPI   C1B15701   1.213   5.150   5.924  0.0088 -0.0868  0.5121
 1002loPI   C2B15702   0.956   5.337   6.084  0.0134  0.0016 -0.0238
 1002loPI   C3B15703   0.667   5.442   6.515  0.2305 -0.0040  0.4224
 1002loPI   C4B15704   0.644   5.491   6.875  0.3090  0.4099 -0.3214
 1003loPI    C115705   4.996   4.169   4.924  0.1266  0.0699 -0.1001
 1003loPI    C215706   4.985   3.900   4.629  0.0931 -0.0236 -0.0140
 1003loPI    C315707   5.320   3.949   4.842  0.1080  0.0230 -0.0480
 1003loPI   PO415708   4.766   4.167   5.002  0.0525  0.0557  0.1381
 1003loPI   GL115709   4.507   4.066   5.387  0.0577 -0.0918 -0.0650
 1003loPI   GL215710   4.492   3.764   5.421  0.3401 -0.2004 -0.1423
 1003loPI   C1A15711   4.661   4.040   5.836  0.0214  0.1999  0.0942
 1003loPI   C2A15712   4.574   3.934   6.288 -0.2729 -0.1609 -0.1862
 1003loPI   C3A15713   4.676   4.007   6.717  0.2721  0.0711 -0.1722
 1003loPI   C4A15714   4.886   3.818   7.024 -0.2026  0.1028  0.1510
 1003loPI   C5A15715   4.707   3.557   7.408  0.0875 -0.0396  0.2166
 1003loPI   C6A15716   4.216   3.530   7.531  0.0207 -0.0648  0.1694
 1003loPI   C1B15717   4.573   3.549   5.679 -0.1961  0.0954  0.0501
 1003loPI   C2B15718   4.574   3.453   6.143  0.2451 -0.4902  0.0984
 1003loPI   C3B15719   4.885   3.457   6.506 -0.1650  0.1893 -0.4037
 1003loPI   C4B15720   5.318   3.518   6.635 -0.1520  0.3989 -0.2988
 1004loPI    C115721   5.564   0.554   4.684 -0.0199  0.1662  0.1080
 1004loPI    C215722   5.522   0.892   4.474 -0.1473  0.0899  0.0097
 1004loPI    C315723   5.688   0.570   4.304 -0.1585  0.0588  0.0574
 1004loPI   PO415724   5.384   0.525   4.909  0.2560  0.0380  0.1271
 1004loPI   GL115725   5.211   0.613   5.291 -0.1905 -0.0605 -0.0031
 1004loPI   GL215726   4.931   0.578   5.299 -0.2864 -0.1759  0.2056
 1004loPI   C1A15727   5.403   0.720   5.676  0.1340 -0.0082  0.0330
 1004loPI   C2A15728   5.587   0.719   6.005  0.3453 -0.1091  0.0001
 1004loPI   C3A15729   5.677   0.443   6.334  0.0999  0.0703 -0.1911
 1004loPI   C4A15730   5.703   0.484   6.771 -0.1979 -0.1234 -0.0141
 1004loPI   C5A15731   5.850   0.310   7.186  0.1204  0.1456  0.1129
 1004loPI   C6A15732   5.590   0.505   7.589  0.1739  0.2065 -0.2706
 1004loPI   C1B15733   4.863   0.590   5.704  0.0265  0.0585  0.0537
 1004loPI   C2B15734   4.686   0.632   6.118 -0.0096  0.0102 -0.0839
 1004loPI   C3B15735   4.612   0.413   6.469  0.2549 -0.2380  0.0787
 1004loPI   C4B15736   4.504   0.387   6.878 -0.0754  0.0022  0.0915
 1005loPI    C115737  10.201   7.315   4.272  0.2875 -0.1360  0.2085
 1005loPI    C215738  10.589   7.369   4.187  0.2034 -0.0437 -0.1332
 1005loPI    C315739  10.312   7.432   3.906 -0.0793  0.1186  0.1738
 1005loPI   PO415740  10.231   7.499   4.545  0.1025 -0.3783  0.0739
 1005loPI   GL115741  10.300   7.489   5.037 -0.2250 -0.1459  0.0830
 1005loPI   GL215742  10.069   7.714   5.045  0.1948 -0.1478 -0.2114
 1005loPI   C1A15743  10.221   7.314   5.512 -0.1064  0.2390 -0.0235
 1005loPI   C2A15744  10.256   7.165   5.961  0.1848  0.2303  0.1043
 1005loPI   C3A15745   9.965   7.154   6.336  0.1747 -0.0847  0.0833
 1005loPI   C4A15746   9.940   7.329   6.776  0.2100 -0.0310  0.3627
 1005loPI   C5A15747  10.235   7.600   6.984  0.2549  0.1034 -0.2149
 1005loPI   C6A15748  10.425   7.877   7.295  0.0435 -0.2115 -0.1298
 1005loPI   C1B15749  10.212   7.841   5.416  0.0454  0.0039  0.0484
 1005loPI   C2B15750  10.291   8.042   5.847 -0.0191 -0.0375  0.0931
 1005loPI   C3B15751  10.512   7.945   6.216  0.1743 -0.0228  0.0373
 1005loPI   C4B15752  10.597   7.797   6.708 -0.0444 -0.0683  0.3028
 1006loPI    C115753   8.518  15.779   4.359  0.1510 -0.0887 -0.2579
 1006loPI    C215754   8.828  16.031   4.334  0.0584  0.0201 -0.3140
 1006loPI    C315755   8.454  16.169   4.297 -0.0479  0.0347  0.5960
 1006loPI   PO415756   8.558  15.650   4.542  0.4383  0.0746  0.0988
 1006loPI   GL115757   8.700  15.524   4.971  0.0450  0.1098 -0.1047
 1006loPI   GL215758   8.715  15.154   5.055 -0.4082 -0.0512 -0.1097
 1006loPI   C1A15759   8.508  15.565   5.282 -0.0117 -0.1349  0.1149
 1006loPI   C2A15760   8.557  15.473   5.722  0.0802  0.0196  0.1246
 1006loPI   C3A15761   8.632  15.292   6.054 -0.1037  0.0538  0.2602
 1006loPI   C4A15762   8.641  15.528   6.430  0.2682 -0.3841 -0.1212
 1006loPI   C5A15763   9.040  15.694   6.823  0.0455  0.3135  0.0579
 1006loPI   C6A15764   9.402  15.633   7.091  0.0998 -0.1803  0.2563
 1006loPI   C1B15765   8.724  14.922   5.454  0.1585 -0.0525 -0.1848
 1006loPI   C2B15766   8.985  14.945   5.737  0.1566  0.1729  0.1951
 1006loPI   C3B15767   8.916  14.870   6.109 -0.1711 -0.1771  0.2640
 1006loPI   C4B15768   8.716  14.969   6.486 -0.0487  0.1408 -0.2593
 1007loPI    C115769   7.379   3.875   4.864  0.0113  0.0138 -0.2972
 1007loPI    C215770   7.088   4.107   4.717  0.1011  0.2291 -0.1395
 1007loPI    C315771   7.384   4.269   4.933  0.3142  0.0061 -0.2585
 1007loPI   PO415772   7.222   3.659   5.001  0.1463  0.1152  0.1841
 1007loPI   GL115773   6.799   3.543   5.322  0.2826  0.0050  0.2551
 1007loPI   GL215774   6.683   3.301   5.322 -0.0905  0.1567  0.1144
 1007loPI   C1A15775   6.711   3.390   5.807 -0.1357 -0.2054  0.2392
 1007loPI   C2A15776   6.576   3.513   6.244  0.2276  0.4171 -0.3886
 1007loPI   C3A15777   6.330   3.311   6.558 -0.0226 -0.2736 -0.1287
 1007loPI   C4A15778   6.074   3.410   6.950  0.1239 -0.1690  0.2271
 1007loPI   C5A15779   6.184   3.106   7.326  0.2553  0.1097 -0.1089
 1007loPI   C6A15780   6.332   2.864   7.719 -0.2469  0.0783  0.1702
 1007loPI   C1B15781   6.807   2.953   5.570 -0.0372  0.1327 -0.1502
 1007loPI   C2B15782   7.038   2.977   5.888  0.1712 -0.1126 -0.0739
 1007loPI   C3B15783   7.168   2.790   6.325  0.1927 -0.0020 -0.0501
 1007loPI   C4B15784   7.030   2.530   6.676  0.3456  0.0851  0.2837
 1008loPI    C115785   9.023   2.500   4.609  0.2679 -0.1136 -0.0492
 1008loPI    C215786   9.318   2.547   4.343  0.4045 -0.2647  0.0733
 1008loPI    C315787   9.166   2.183   4.411  0.0654 -0.1636 -0.1184
 1008loPI   PO415788   9.193   2.618   4.828  0.0547 -0.0216 -0.0666
 1008loPI   GL115789   9.500   2.710   5.137  0.1032 -0.2794  0.1939
 1008loPI   GL215790   9.758   2.492   5.243  0.1459 -0.2564  0.1962
 1008loPI   C1A15791   9.583   2.787   5.679  0.0361  0.0343 -0.4056
 1008loPI   C2A15792   9.419   2.602   6.062 -0.1221 -0.0889  0.0728
 1008loPI   C3A15793   9.257   2.349   6.275  0.0098  0.1676 -0.0876
 1008loPI   C4A15794   9.031   2.055   6.554 -0.0950  0.0919  0.0021
 1008loPI   C5A15795   8.793   2.003   6.966 -0.3070  0.1349 -0.4801
 1008loPI   C6A15796   8.511   2.122   7.350 -0.1065  0.1288 -0.0582
 1008loPI   C1B15797   9.805   2.250   5.602  0.0665  0.0764  0.1172
 1008loPI   C2B15798   9.495   2.082   5.907 -0.1015 -0.0424  0.0881
 1008loPI   C3B15799   9.136   1.992   5.859  0.2131 -0.2115 -0.1481
 1008loPI   C4B15800   8.877   1.902   6.116 -0.1413 -0.0863 -0.0928
 1009loPI    C115801   7.301  13.624   4.232 -0.0325 -0.2426 -0.1542
 1009loPI    C215802   7.468  13.297   4.075  0.3621 -0.1514  0.0628
 1009loPI    C315803   7.457  13.636   3.864  0.2149 -0.2251 -0.0504
 1009loPI   PO415804   6.996  13.660   4.446 -0.2840 -0.0318 -0.1684
 1009loPI   GL115805   6.792  13.665   4.814  0.0768 -0.1935  0.0912
 1009loPI   GL215806   6.845  13.883   4.976 -0.0233 -0.0313 -0.0099
 1009loPI   C1A15807   6.646  13.306   5.077  0.0946 -0.2673  0.0637
 1009loPI   C2A15808   6.350  13.370   5.401 -0.1389 -0.1879 -0.1261
 1009loPI   C3A15809   6.418  13.255   5.773 -0.0373 -0.2765  0.1547
 1009loPI   C4A15810   6.499  13.054   6.109  0.1104 -0.3650  0.1368
 1009loPI   C5A15811   6.828  13.039   6.446 -0.1779  0.1469 -0.3975
 1009loPI   C6A15812   7.125  13.134   6.858  0.2537  0.2852  0.0034
 1009loPI   C1B15813   6.664  13.814   5.348  0.1216  0.2793  0.1088
 1009loPI   C2B15814   6.622  13.687   5.740 -0.1977 -0.0317  0.1221
 1009loPI   C3B15815   6.649  13.556   6.090 -0.0754  0.1626 -0.3880
 1009loPI   C4B15816   6.666  13.537   6.526  0.2706 -0.0700  0.2489
 1010loPI    C115817   8.543   5.092   4.793  0.2067  0.0429 -0.0585
 1010loPI    C215818   8.779   5.119   4.471  0.0886  0.1809 -0.1348
 1010loPI    C315819   8.381   5.130   4.429  0.0683  0.0027 -0.0021
 1010loPI   PO415820   8.756   5.098   5.013 -0.0818  0.0604  0.3338
 1010loPI   GL115821   8.727   5.068   5.357  0.1601  0.0203 -0.2097
 1010loPI   GL215822   9.070   5.246   5.438 -0.1024  0.2250  0.0782
 1010loPI   C1A15823   8.670   4.974   5.735  0.0040  0.1836 -0.1361
 1010loPI   C2A15824   8.510   4.853   5.971  0.1952 -0.0050  0.0571
 1010loPI   C3A15825   8.590   4.743   6.355  0.2476  0.0315  0.1216
 1010loPI   C4A15826   8.737   4.747   6.725 -0.0422  0.1645  0.2535
 1010loPI   C5A15827   9.024   4.627   7.010 -0.3175 -0.0282 -0.1771
 1010loPI   C6A15828   9.274   4.915   7.148 -0.0239 -0.2303 -0.0133
 1010loPI   C1B15829   9.201   4.874   5.559  0.0072  0.1487  0.0326
 1010loPI   C2B15830   9.479   4.656   5.710  0.0897  0.4424  0.0272
 1010loPI   C3B15831   9.646   4.812   5.996 -0.1693 -0.0676 -0.1967
 1010loPI   C4B15832   9.754   4.920   6.377  0.0182  0.2783 -0.1034
 1011loPI    C115833   4.127   3.595   4.762 -0.0107 -0.0677 -0.1490
 1011loPI    C215834   3.803   3.830   4.778 -0.0517 -0.1421  0.1844
 1011loPI    C315835   4.101   3.916   4.525 -0.2109  0.0809  0.0700
 1011loPI   PO415836   4.130   3.477   5.081 -0.1549  0.0610  0.1108
 1011loPI   GL115837   3.951   3.563   5.435 -0.0852 -0.2060  0.0010
 1011loPI   GL215838   4.021   3.252   5.489 -0.0734  0.2468  0.3001
 1011loPI   C1A15839   3.767   3.543   5.905 -0.2033 -0.0498  0.0407
 1011loPI   C2A15840   3.543   3.729   6.261  0.0756 -0.1408 -0.2564
 1011loPI   C3A15841   3.362   3.837   6.628  0.3117 -0.0656  0.2684
 1011loPI   C4A15842   3.230   3.632   7.032 -0.1164 -0.2812  0.2516
 1011loPI   C5A15843   3.187   3.433   7.393 -0.3170  0.3350 -0.1456
 1011loPI   C6A15844   3.130   3.366   7.806 -0.0696  0.0733  0.0346
 1011loPI   C1B15845   4.202   3.189   5.977  0.1942  0.2827  0.0937
 1011loPI   C2B15846   4.286   3.101   6.424  0.2673 -0.0810 -0.0588
 1011loPI   C3B15847   4.134   2.992   6.716  0.4115 -0.1879 -0.2873
 1011loPI   C4B15848   4.061   2.620   6.837 -0.1268 -0.3195 -0.0078
 1012loPI    C115849  14.668  18.348   4.816  0.0237 -0.0123 -0.0463
 1012loPI    C215850  15.037  18.342   4.660 -0.0165 -0.0615 -0.1400
 1012loPI    C315851  14.728  18.199   4.450 -0.0623 -0.1845  0.0088
 1012loPI   PO415852  14.732  18.203   5.075 -0.3383  0.0114  0.0075
 1012loPI   GL115853  14.524  18.152   5.454  0.0771 -0.0375  0.0618
 1012loPI   GL215854  14.381  17.886   5.486  0.1483  0.1678  0.1822
 1012loPI   C1A15855  14.616  18.245   5.867  0.1334 -0.2730  0.0330
 1012loPI   C2A15856  14.452  18.378   6.309 -0.0534 -0.1347  0.4128
 1012loPI   C3A15857  14.350  18.668   6.653  0.0297 -0.2761 -0.0782
 1012loPI   C4A15858  14.712  18.542   6.985  0.3406  0.1953  0.0660
 1012loPI   C5A15859  15.110  18.760   6.941  0.0366  0.0389 -0.0484
 1012loPI   C6A15860  15.372  18.922   7.065 -0.1029  0.0340  0.0755
 1012loPI   C1B15861  14.338  17.795   5.898  0.2165 -0.0048 -0.2568
 1012loPI   C2B15862  14.296  17.627   6.297 -0.1319 -0.2117 -0.0279
 1012loPI   C3B15863  14.194  17.605   6.711  0.2230 -0.0771  0.0257
 1012loPI   C4B15864  14.300  17.502   7.049  0.3244  0.0752  0.0109
 1013loPI    C115865  11.470  13.456   3.982 -0.0142  0.0351  0.0811
 1013loPI    C215866  11.824  13.639   4.015  0.1126 -0.1260 -0.3264
 1013loPI    C315867  11.795  13.295   3.813 -0.2490 -0.1990 -0.1569
 1013loPI   PO415868  11.398  13.480   4.283 -0.2438  0.2235 -0.2981
 1013loPI   GL115869  11.454  13.591   4.700  0.0342 -0.2254  0.5393
 1013loPI   GL215870  11.704  13.816   4.573  0.1280 -0.1868  0.1613
 1013loPI   C1A15871  11.725  13.464   5.015  0.3030 -0.3070 -0.5653
 1013loPI   C2A15872  11.825  13.409   5.442 -0.0079  0.1740 -0.2397
 1013loPI   C3A15873  11.789  13.420   5.864  0.1809  0.0089  0.2255
 1013loPI   C4A15874  11.676  13.534   6.285  0.0492 -0.0447 -0.1511
 1013loPI   C5A15875  11.767  13.561   6.772  0.1701 -0.2209  0.0358
 1013loPI   C6A15876  11.625  13.562   7.210  0.1203 -0.1377 -0.0489
 1013loPI   C1B15877  11.917  14.051   4.868  0.2748 -0.1326  0.0631
 1013loPI   C2B15878  12.264  14.107   5.120  0.0938  0.1711 -0.1816
 1013loPI   C3B15879  12.380  14.193   5.598  0.0591 -0.1736  0.0649
 1013loPI   C4B15880  12.204  14.461   5.851  0.0426  0.2344  0.1310
 1014loPI    C115881  11.578   2.402   4.856 -0.2566  0.2174  0.0067
 1014loPI    C215882  11.819   2.654   4.660 -0.1858  0.1271 -0.0233
 1014loPI    C315883  11.422   2.680   4.615 -0.1687  0.0814 -0.2102
 1014loPI   PO415884  11.741   2.441   5.085  0.0900 -0.0313  0.0525
 1014loPI   GL115885  11.803   2.720   5.408  0.1831 -0.2255 -0.0290
 1014loPI   GL215886  11.491   2.632   5.505  0.0558  0.0264  0.0311
 1014loPI   C1A15887  11.865   2.616   5.841  0.1802 -0.1712 -0.5990
 1014loPI   C2A15888  11.520   2.641   6.103 -0.2103  0.2191  0.2115
 1014loPI   C3A15889  11.260   2.802   6.408  0.0635 -0.1197  0.1698
 1014loPI   C4A15890  11.220   2.906   6.825  0.1263  0.0692  0.2555
 1014loPI   C5A15891  11.077   2.705   7.174 -0.1553 -0.1818 -0.1172
 1014loPI   C6A15892  10.608   2.664   7.144 -0.0871 -0.4145  0.1180
 1014loPI   C1B15893  11.125   2.688   5.773 -0.1076  0.0958 -0.2222
 1014loPI   C2B15894  10.801   2.820   6.176  0.2566 -0.0828  0.2233
 1014loPI   C3B15895  10.761   2.919   6.642  0.1565 -0.0856  0.1083
 1014loPI   C4B15896  10.421   2.962   6.825 -0.1324 -0.1423  0.0990
 1015loPI    C115897   6.999  18.497   4.628 -0.0379 -0.2780  0.3033
 1015loPI    C215898   6.886  18.147   4.471 -0.1827 -0.0987 -0.0026
 1015loPI    C315899   7.026  18.437   4.234  0.0692  0.0040  0.2654
 1015loPI   PO415900   6.737  18.564   4.893 -0.0918 -0.1546  0.0160
 1015loPI   GL115901   6.537  18.429   5.229  0.2298  0.0889  0.0297
 1015loPI   GL215902   6.195  18.616   5.272 -0.0833  0.3817 -0.1354
 1015loPI   C1A15903   6.405  18.101   5.576 -0.3522  0.1949 -0.1849
 1015loPI   C2A15904   6.603  18.129   5.985  0.0635  0.1934 -0.1310
 1015loPI   C3A15905   6.686  18.261   6.416 -0.0084 -0.1071  0.1386
 1015loPI   C4A15906   6.980  18.480   6.680 -0.0266 -0.1367 -0.1041
 1015loPI   C5A15907   7.318  18.614   6.961 -0.0406  0.2659  0.1300
 1015loPI   C6A15908   7.661  18.394   7.064  0.3453  0.1237  0.1592
 1015loPI   C1B15909   6.341  18.613   5.753  0.0354 -0.3807 -0.0790
 1015loPI   C2B15910   6.308  18.462   6.185  0.0607  0.2654 -0.1730
 1015loPI   C3B15911   6.236  18.385   6.682  0.1876  0.1703  0.3072
 1015loPI   C4B15912   6.508  18.207   6.959 -0.2400  0.2778  0.1388
 1016loPI    C115913   2.970  19.010   4.675  0.0133 -0.2067 -0.1565
 1016loPI    C215914   2.844  18.712   4.439  0.0575 -0.2137 -0.1716
 1016loPI    C315915   3.151  18.942   4.324 -0.1639  0.0257 -0.2963
 1016loPI   PO415916   2.791  19.173   4.780 -0.0067 -0.3552  0.2267
 1016loPI   GL115917   2.824  19.547   5.121  0.1664  0.1728 -0.4816
 1016loPI   GL215918   2.501  19.279   5.162  0.3619  0.1794 -0.0904
 1016loPI   C1A15919   3.128  19.438   5.468 -0.1022 -0.0272 -0.2849
 1016loPI   C2A15920   3.102  19.118   5.804  0.0265  0.2034 -0.0370
 1016loPI   C3A15921   2.942  19.111   6.179  0.2578 -0.1150  0.0524
 1016loPI   C4A15922   2.838  19.049   6.605 -0.0237 -0.3122 -0.0124
 1016loPI   C5A15923   2.913  18.961   7.035  0.2626 -0.2924  0.1427
 1016loPI   C6A15924   3.068  18.887   7.415  0.0174  0.0012  0.0159
 1016loPI   C1B15925   2.572  19.272   5.532 -0.0814  0.1776 -0.2451
 1016loPI   C2B15926   2.510  19.173   5.904 -0.0611  0.0084 -0.0299
 1016loPI   C3B15927   2.372  19.005   6.302  0.0852  0.0070 -0.4675
 1016loPI   C4B15928   2.613  18.607   6.422 -0.0865  0.2169  0.1212
 1017loPI    C115929   4.296   2.470   4.646 -0.0789 -0.2989 -0.2433
 1017loPI    C215930   4.239   2.805   4.436 -0.0769 -0.2638 -0.1880
 1017loPI    C315931   4.609   2.698   4.544 -0.1142 -0.0625  0.1546
 1017loPI   PO415932   4.105   2.413   4.809  0.0279 -0.0652 -0.2552
 1017loPI   GL115933   4.062   2.234   5.226 -0.2485 -0.0509 -0.0551
 1017loPI   GL215934   4.367   2.284   5.303  0.0186 -0.2478 -0.2486
 1017loPI   C1A15935   4.100   2.360   5.647  0.0668 -0.0047  0.2560
 1017loPI   C2A15936   3.951   2.514   5.967 -0.0185  0.0666 -0.2605
 1017loPI   C3A15937   3.520   2.374   6.278  0.0113  0.1731  0.3639
 1017loPI   C4A15938   3.537   2.453   6.713  0.0293  0.0653  0.0857
 1017loPI   C5A15939   3.748   2.534   7.160  0.1555 -0.0494 -0.1934
 1017loPI   C6A15940   3.609   2.567   7.585  0.0236 -0.0663  0.0168
 1017loPI   C1B15941   4.345   1.839   5.394 -0.0212 -0.2079 -0.0974
 1017loPI   C2B15942   4.200   1.458   5.559 -0.2497 -0.0837 -0.2275
 1017loPI   C3B15943   4.307   1.450   6.033 -0.2252 -0.2504 -0.0574
 1017loPI   C4B15944   4.227   1.524   6.465 -0.0588  0.1695 -0.1340
 1018loPI    C115945   8.716  14.365   4.850 -0.1299  0.0337 -0.2384
 1018loPI    C215946   8.438  14.535   4.617 -0.2295  0.0380 -0.1170
 1018loPI    C315947   8.488  14.660   4.994 -0.0185  0.0814 -0.1577
 1018loPI   PO415948   8.713  14.096   4.748 -0.2375 -0.0779  0.1747
 1018loPI   GL115949   8.608  13.689   4.970  0.0706 -0.1859  0.0264
 1018loPI   GL215950   8.460  13.776   5.338  0.0082 -0.3094 -0.2017
 1018loPI   C1A15951   8.882  13.517   5.228 -0.4129 -0.0814 -0.1585
 1018loPI   C2A15952   8.781  13.455   5.687  0.0556  0.2573 -0.0218
 1018loPI   C3A15953   8.738  13.465   6.201  0.0866 -0.0294 -0.2589
 1018loPI   C4A15954   8.872  13.412   6.581 -0.0474  0.0097  0.2025
 1018loPI   C5A15955   9.042  13.349   6.958 -0.2544  0.1047 -0.0250
 1018loPI   C6A15956   8.877  13.536   7.324 -0.0692  0.0301  0.1359
 1018loPI   C1B15957   8.518  13.839   5.886  0.0385 -0.1458 -0.1785
 1018loPI   C2B15958   8.544  13.944   6.285  0.0046  0.0312 -0.0164
 1018loPI   C3B15959   8.549  14.120   6.709  0.0085  0.1867  0.2319
 1018loPI   C4B15960   8.395  14.105   7.113 -0.3217  0.4260  0.1176
 1019loPI    C115961  12.123  18.521   4.897 -0.2851  0.1923 -0.2242
 1019loPI    C215962  11.834  18.495   5.172 -0.0931 -0.0766 -0.0418
 1019loPI    C315963  11.745  18.606   4.798 -0.4062 -0.0136  0.0480
 1019loPI   PO415964  12.230  18.322   4.926  0.0600 -0.0040 -0.1065
 1019loPI   GL115965  12.352  17.925   5.209 -0.0100 -0.1255  0.0438
 1019loPI   GL215966  12.657  17.976   5.368  0.1812 -0.1282  0.2376
 1019loPI   C1A15967  12.081  18.100   5.523  0.1671  0.3151 -0.0605
 1019loPI   C2A15968  11.744  17.821   5.786  0.0275  0.4620  0.3084
 1019loPI   C3A15969  11.501  17.630   6.150 -0.1628 -0.1991 -0.0834
 1019loPI   C4A15970  11.222  17.381   6.326 -0.1623 -0.0340  0.5449
 1019loPI   C5A15971  11.122  16.924   6.595  0.4291  0.1097  0.0557
 1019loPI   C6A15972  10.920  16.546   6.572  0.0667  0.1856  0.0240
 1019loPI   C1B15973  12.567  18.168   5.708 -0.2604  0.0742  0.2189
 1019loPI   C2B15974  12.411  18.400   6.029  0.2906 -0.0123  0.1686
 1019loPI   C3B15975  12.318  18.673   6.347  0.1515  0.2338 -0.0892
 1019loPI   C4B15976  11.951  18.986   6.286  0.1854  0.3218 -0.3408
 1020loPI    C115977  12.346  13.416   4.104  0.3037  0.1502 -0.2154
 1020loPI    C215978  12.540  13.089   4.231  0.0008 -0.0029 -0.1387
 1020loPI    C315979  12.238  13.054   3.970 -0.1545  0.1963  0.0111
 1020loPI   PO415980  12.301  13.560   4.371 -0.3279  0.0005 -0.2935
 1020loPI   GL115981  12.167  13.564   4.818 -0.1350 -0.1174  0.1285
 1020loPI   GL215982  12.085  13.192   4.902 -0.2404  0.1108 -0.0937
 1020loPI   C1A15983  12.252  13.640   5.224  0.1616  0.0707 -0.2228
 1020loPI   C2A15984  12.051  13.809   5.529  0.0348 -0.1717  0.0485
 1020loPI   C3A15985  11.935  13.882   5.953  0.1950  0.0485 -0.2182
 1020loPI   C4A15986  11.875  13.994   6.417 -0.3082  0.1754 -0.5053
 1020loPI   C5A15987  11.816  14.046   6.856 -0.1357  0.3791 -0.4384
 1020loPI   C6A15988  12.086  13.793   7.086 -0.0003  0.0969 -0.0822
 1020loPI   C1B15989  12.187  13.027   5.351  0.4291 -0.1345  0.2028
 1020loPI   C2B15990  12.203  12.893   5.716  0.1371  0.0497  0.0401
 1020loPI   C3B15991  11.911  12.625   6.055  0.3066 -0.0966  0.1913
 1020loPI   C4B15992  11.698  12.543   6.454  0.1838 -0.1099  0.5651
 1021loPI    C115993  12.028  12.681   4.273 -0.1419  0.0965 -0.1378
 1021loPI    C215994  11.709  12.446   4.330 -0.2788  0.2371 -0.3155
 1021loPI    C315995  11.832  12.530   3.959  0.1972 -0.1242 -0.2486
 1021loPI   PO415996  12.106  12.847   4.491 -0.1927 -0.0126  0.1558
 1021loPI   GL115997  12.060  12.589   4.934  0.1853 -0.0746  0.0208
 1021loPI   GL215998  11.999  12.354   4.841 -0.0641  0.2464  0.4861
 1021loPI   C1A15999  11.829  12.588   5.402 -0.0144  0.1343  0.0336
 1021loPI   C2A16000  11.487  12.486   5.374 -0.1214 -0.0417 -0.2062
 1021loPI   C3A16001  11.440  12.612   5.802  0.0734  0.2415 -0.1923
 1021loPI   C4A16002  11.224  12.617   6.188  0.3669  0.1827  0.0993
 1021loPI   C5A16003  11.212  12.903   6.583 -0.4156 -0.2938 -0.0375
 1021loPI   C6A16004  11.364  13.104   7.089 -0.1020 -0.2033  0.0157
 1021loPI   C1B16005  12.014  12.199   5.261  0.4944  0.0594 -0.0616
 1021loPI   C2B16006  12.029  12.199   5.744 -0.3540  0.0155  0.0151
 1021loPI   C3B16007  12.157  12.119   6.120 -0.1326 -0.0756 -0.1204
 1021loPI   C4B16008  12.353  11.814   6.342 -0.4747  0.1483 -0.0356
 1022loPI    C116009   0.746   3.136   4.743 -0.0045 -0.2846  0.0103
 1022loPI    C216010   1.134   3.233   4.725 -0.0253 -0.1869  0.0741
 1022loPI    C316011   0.941   3.115   4.395  0.0334 -0.1368  0.0217
 1022loPI   PO416012   0.702   3.262   4.944  0.2569 -0.0272 -0.0278
 1022loPI   GL116013   0.724   3.133   5.300 -0.2696 -0.1036  0.2175
 1022loPI   GL216014   0.468   2.973   5.386 -0.3441  0.0505  0.2136
 1022loPI   C1A16015   1.051   3.094   5.558  0.4696  0.0854  0.1440
 1022loPI   C2A16016   1.119   3.324   5.965  0.0077  0.0432 -0.0442
 1022loPI   C3A16017   1.375   3.100   6.235 -0.2062  0.0492  0.1585
 1022loPI   C4A16018   1.352   2.738   6.142  0.0114  0.1922 -0.0452
 1022loPI   C5A16019   1.015   2.513   6.295 -0.2767  0.0515  0.0604
 1022loPI   C6A16020   0.577   2.552   6.145  0.2268  0.1665 -0.1955
 1022loPI   C1B16021   0.490   2.994   5.817  0.3144 -0.1714  0.0184
 1022loPI   C2B16022   0.409   3.052   6.288  0.1054 -0.3087 -0.1005
 1022loPI   C3B16023   0.424   3.162   6.706  0.0536  0.1724 -0.2404
 1022loPI   C4B16024   0.601   3.527   6.894 -0.0128  0.0599  0.2545
 1023loPI    C116025   0.172   6.017   4.875  0.0036 -0.0435  0.0517
 1023loPI    C216026   0.513   5.879   4.720 -0.0030 -0.0509  0.0439
 1023loPI    C316027   0.171   5.681   4.659 -0.0194 -0.0083 -0.0032
 1023loPI   PO416028   0.216   6.049   5.236  0.3046  0.0482  0.3649
 1023loPI   GL116029   0.142   5.850   5.625  0.1723  0.2902  0.0415
 1023loPI   GL216030   0.497   5.816   5.633 -0.2715 -0.1685 -0.0549
 1023loPI   C1A16031   0.285   6.170   5.898  0.1380  0.1705 -0.0736
 1023loPI   C2A16032   0.235   6.445   6.249 -0.1497  0.0678  0.2056
 1023loPI   C3A16033   0.194   6.393   6.597 -0.1508 -0.1275  0.0067
 1023loPI   C4A16034   0.370   6.416   6.983 -0.0287  0.3969 -0.0668
 1023loPI   C5A16035   0.597   6.505   7.284 -0.3170 -0.1047  0.0254
 1023loPI   C6A16036   1.013   6.381   7.507  0.2226 -0.0192 -0.0747
 1023loPI   C1B16037   0.529   5.736   6.031 -0.1198 -0.1944 -0.1146
 1023loPI   C2B16038   0.436   5.936   6.506  0.3027 -0.3282  0.1057
 1023loPI   C3B16039   0.713   5.996   6.864  0.4246 -0.1772 -0.0221
 1023loPI   C4B16040   0.642   6.010   7.366  0.0497  0.1401 -0.2490
 1024loPI    C116041  16.823   9.730   4.251  0.0918 -0.0893 -0.0113
 1024loPI    C216042  17.003   9.603   3.917  0.0145  0.1931 -0.1634
 1024loPI    C316043  16.616   9.703   3.910 -0.0744 -0.1190  0.0909
 1024loPI   PO416044  16.972   9.478   4.406  0.0539  0.1190  0.1887
 1024loPI   GL116045  17.064   9.424   4.828 -0.0057 -0.1188 -0.1082
 1024loPI   GL216046  17.398   9.412   5.001 -0.4409 -0.1515  0.1620
 1024loPI   C1A16047  16.818   9.650   5.181  0.0366 -0.1668  0.2179
 1024loPI   C2A16048  16.829   9.981   5.516 -0.4672  0.0460  0.2458
 1024loPI   C3A16049  16.847  10.218   5.906  0.1842 -0.1632 -0.1116
 1024loPI   C4A16050  16.533  10.288   6.109  0.1229 -0.0785 -0.1029
 1024loPI   C5A16051  16.359  10.029   6.341  0.1071  0.1030  0.1340
 1024loPI   C6A16052  16.031  10.158   6.674  0.0714  0.1744  0.1820
 1024loPI   C1B16053  17.379   9.501   5.438  0.1187  0.1028 -0.0546
 1024loPI   C2B16054  17.385   9.329   5.874  0.2769  0.1148 -0.0856
 1024loPI   C3B16055  17.592   9.304   6.130  0.0173  0.2714 -0.0371
 1024loPI   C4B16056  17.499   9.065   6.514 -0.2215 -0.1342  0.0281
 1025loPI    C116057  14.630  10.381   4.305 -0.0276  0.0535  0.1208
 1025loPI    C216058  14.782  10.734   4.193  0.0877 -0.0076  0.0821
 1025loPI    C316059  14.533  10.536   3.949 -0.0600  0.0953  0.1477
 1025loPI   PO416060  14.641  10.468   4.584  0.0664  0.0620  0.2585
 1025loPI   GL116061  14.389  10.634   4.905  0.0721 -0.1227  0.1872
 1025loPI   GL216062  14.057  10.433   5.061 -0.1092  0.0419 -0.0074
 1025loPI   C1A16063  14.629  10.658   5.372 -0.1059  0.0679 -0.0190
 1025loPI   C2A16064  14.967  10.827   5.641  0.3370 -0.1389 -0.1162
 1025loPI   C3A16065  15.070  10.953   6.013  0.0728  0.2256 -0.1167
 1025loPI   C4A16066  15.289  11.260   6.246  0.0200  0.0618 -0.1519
 1025loPI   C5A16067  15.140  11.321   6.755 -0.0492  0.0607 -0.0348
 1025loPI   C6A16068  15.454  11.499   7.173 -0.2246  0.0593  0.0644
 1025loPI   C1B16069  14.032  10.536   5.511  0.4072  0.1079 -0.0984
 1025loPI   C2B16070  13.989  10.681   5.936 -0.0680  0.2203  0.3431
 1025loPI   C3B16071  13.947  10.791   6.329  0.0600  0.4409 -0.1331
 1025loPI   C4B16072  14.105  10.976   6.739  0.1282  0.0001  0.1377
 1026loPI    C116073  18.211  12.821   4.576  0.1513 -0.0182  0.0461
 1026loPI    C216074  18.197  12.905   4.185 -0.0170 -0.2329  0.0040
 1026loPI    C316075  17.858  12.842   4.389  0.0419  0.2743  0.2764
 1026loPI   PO416076  18.293  12.647   4.656 -0.2090  0.1561 -0.0916
 1026loPI   GL116077  18.365  12.452   4.999  0.1086 -0.1793 -0.1039
 1026loPI   GL216078  18.080  12.657   5.092 -0.0538  0.1522 -0.4338
 1026loPI   C1A16079  18.791  12.497   5.206 -0.2909 -0.0060 -0.2432
 1026loPI   C2A16080  19.180  12.521   5.531 -0.4183 -0.1704 -0.0911
 1026loPI   C3A16081  19.653  12.672   5.640 -0.1667  0.0836 -0.0551
 1026loPI   C4A16082  20.072  12.778   5.661 -0.0685 -0.1399  0.0118
 1026loPI   C5A16083  20.292  12.753   5.953 -0.1875 -0.3589 -0.1659
 1026loPI   C6A16084  20.307  12.847   6.382  0.2018  0.1177 -0.0688
 1026loPI   C1B16085  18.106  12.740   5.626 -0.0743 -0.0174  0.1309
 1026loPI   C2B16086  18.228  12.615   6.060  0.2499  0.1486 -0.0770
 1026loPI   C3B16087  18.533  12.451   6.113 -0.1558  0.1329  0.3717
 1026loPI   C4B16088  18.521  12.030   6.036  0.1578 -0.1586  0.1373
 1027loPI    C116089  16.007   9.244   4.525 -0.0853  0.1005  0.0424
 1027loPI    C216090  15.812   8.941   4.352  0.0441  0.0872 -0.0818
 1027loPI    C316091  15.670   9.314   4.321  0.0418  0.0785 -0.1768
 1027loPI   PO416092  16.066   9.169   4.704  0.0992 -0.1427 -0.0520
 1027loPI   GL116093  15.790   9.098   5.178 -0.1687  0.0088  0.4522
 1027loPI   GL216094  16.156   8.999   5.197 -0.1411 -0.0233 -0.2505
 1027loPI   C1A16095  15.632   9.004   5.502  0.0700 -0.0562 -0.2599
 1027loPI   C2A16096  15.649   9.164   6.059 -0.1805  0.0332 -0.3091
 1027loPI   C3A16097  15.843   9.423   6.381 -0.0320  0.3357  0.2537
 1027loPI   C4A16098  16.034   9.652   6.669 -0.0854 -0.0114  0.0944
 1027loPI   C5A16099  15.897   9.836   7.083 -0.1435 -0.0036  0.0848
 1027loPI   C6A16100  15.930   9.634   7.425 -0.0237  0.0615  0.2401
 1027loPI   C1B16101  16.573   8.866   5.460  0.0365 -0.0794 -0.1415
 1027loPI   C2B16102  16.802   8.825   5.770 -0.3324 -0.0643 -0.3639
 1027loPI   C3B16103  16.621   8.781   6.169 -0.0142 -0.0327 -0.0827
 1027loPI   C4B16104  16.532   8.668   6.582  0.0759 -0.0703  0.0696
 1028loPI    C116105   8.613   8.335   4.804 -0.1266  0.0275 -0.0902
 1028loPI    C216106   8.425   8.217   4.472 -0.2634  0.2025 -0.0766
 1028loPI    C316107   8.526   8.601   4.518 -0.1465  0.1588  0.0365
 1028loPI   PO416108   8.776   8.032   4.839  0.1332 -0.4231 -0.1502
 1028loPI   GL116109   9.003   7.953   5.246 -0.0771  0.2330 -0.0928
 1028loPI   GL216110   9.257   7.894   5.256  0.0249  0.0357  0.0437
 1028loPI   C1A16111   8.910   8.076   5.628 -0.0974  0.0315 -0.5629
 1028loPI   C2A16112   8.688   8.212   6.049  0.1441  0.2767 -0.2694
 1028loPI   C3A16113   8.552   7.969   6.509  0.0287 -0.3144 -0.1718
 1028loPI   C4A16114   8.558   7.791   6.886  0.0798  0.1674  0.2330
 1028loPI   C5A16115   8.788   7.759   7.260  0.0231  0.3698  0.0125
 1028loPI   C6A16116   9.085   7.488   7.508  0.3624  0.0501  0.1039
 1028loPI   C1B16117   9.231   7.696   5.664  0.0760  0.0301 -0.2828
 1028loPI   C2B16118   9.109   7.258   5.726 -0.0442 -0.0189  0.3207
 1028loPI   C3B16119   8.974   6.820   5.685  0.2160 -0.1487  0.0178
 1028loPI   C4B16120   8.874   6.433   5.556  0.2592 -0.0372  0.1554
 1029loPI    C116121  16.293  17.171   4.428 -0.0024  0.2015  0.1552
 1029loPI    C216122  16.592  17.099   4.682  0.1008  0.2740  0.0553
 1029loPI    C316123  16.656  17.080   4.288  0.0993  0.7672  0.0253
 1029loPI   PO416124  16.071  17.075   4.726  0.0431  0.0021  0.2925
 1029loPI   GL116125  16.333  17.209   5.080  0.0271 -0.1961  0.1294
 1029loPI   GL216126  16.684  17.049   5.169  0.2737  0.1815  0.0260
 1029loPI   C1A16127  16.168  17.106   5.504  0.0930 -0.2569  0.1063
 1029loPI   C2A16128  16.113  17.057   5.898  0.2509  0.0053  0.1560
 1029loPI   C3A16129  16.018  16.755   6.231  0.2526 -0.0854 -0.2199
 1029loPI   C4A16130  15.741  16.527   6.374  0.1223 -0.0895 -0.3619
 1029loPI   C5A16131  15.306  16.356   6.665 -0.0909 -0.0456 -0.0951
 1029loPI   C6A16132  15.204  16.248   7.054  0.1891 -0.1228  0.0565
 1029loPI   C1B16133  16.528  16.796   5.539 -0.2305 -0.0367  0.2924
 1029loPI   C2B16134  16.107  16.553   5.699 -0.0003 -0.0552  0.0102
 1029loPI   C3B16135  15.852  16.224   5.804 -0.1925 -0.0967 -0.0283
 1029loPI   C4B16136  15.588  16.172   6.128  0.3274  0.0298  0.0718
 1030loPI    C116137  13.944   2.250   4.669  0.0119 -0.1259  0.1423
 1030loPI    C216138  13.566   2.345   4.759  0.0598 -0.0712  0.2894
 1030loPI    C316139  13.642   2.045   4.505 -0.0883  0.1228  0.0103
 1030loPI   PO416140  14.066   2.281   4.911 -0.5373 -0.0665 -0.3673
 1030loPI   GL116141  14.375   2.488   5.201 -0.3560  0.2117  0.1797
 1030loPI   GL216142  14.591   2.252   5.304  0.0697  0.0789  0.0360
 1030loPI   C1A16143  14.455   2.661   5.686  0.0808  0.0660  0.3072
 1030loPI   C2A16144  14.439   2.935   6.048  0.0787  0.0252 -0.1455
 1030loPI   C3A16145  14.285   2.936   6.421 -0.0764 -0.1481  0.0094
 1030loPI   C4A16146  14.524   3.012   6.780 -0.2656  0.0014  0.0268
 1030loPI   C5A16147  14.624   3.137   7.185 -0.1594  0.1229  0.0848
 1030loPI   C6A16148  14.820   3.255   7.463 -0.0058 -0.2613 -0.1892
 1030loPI   C1B16149  14.786   2.156   5.768 -0.0890 -0.1565  0.1183
 1030loPI   C2B16150  14.871   2.122   6.164 -0.0415  0.2124 -0.0214
 1030loPI   C3B16151  14.868   1.983   6.568  0.4277  0.0951 -0.1873
 1030loPI   C4B16152  14.821   2.192   6.976  0.0172 -0.5620  0.0153
 1031loPI    C116153  12.878  18.241   4.645 -0.0800 -0.1742 -0.4628
 1031loPI    C216154  13.267  18.234   4.550 -0.0205 -0.1743 -0.2261
 1031loPI    C316155  13.025  18.505   4.383  0.2056  0.2252  0.0793
 1031loPI   PO416156  12.899  18.146   4.925 -0.0923  0.2482 -0.1579
 1031loPI   GL116157  13.128  18.063   5.386  0.0474 -0.1975 -0.2395
 1031loPI   GL216158  13.145  17.673   5.400  0.2435  0.1698 -0.0838
 1031loPI   C1A16159  13.045  18.139   5.818 -0.0538 -0.1950 -0.0050
 1031loPI   C2A16160  12.895  18.401   6.134 -0.0599 -0.2195 -0.1264
 1031loPI   C3A16161  12.753  18.442   6.510 -0.0043  0.1902 -0.1039
 1031loPI   C4A16162  12.688  18.088   6.822 -0.1018  0.0696  0.0323
 1031loPI   C5A16163  12.866  17.758   6.849 -0.4384  0.3101  0.0916
 1031loPI   C6A16164  13.084  17.400   7.196  0.0364 -0.2528  0.2772
 1031loPI   C1B16165  13.218  17.678   5.776  0.1041 -0.1915  0.0243
 1031loPI   C2B16166  13.315  17.902   6.149 -0.1325 -0.1848 -0.4299
 1031loPI   C3B16167  13.402  17.884   6.633 -0.3471  0.0020  0.1023
 1031loPI   C4B16168  13.479  17.762   7.108  0.1216 -0.0720  0.2347
 1032loPI    C116169   2.494  12.003   4.310 -0.2011  0.2994 -0.1728
 1032loPI    C216170   2.720  12.296   4.158 -0.0449  0.1591 -0.2131
 1032loPI    C316171   2.749  11.924   4.013 -0.1202  0.0883 -0.0493
 1032loPI   PO416172   2.517  11.956   4.596 -0.1444 -0.0687 -0.0851
 1032loPI   GL116173   2.505  11.906   5.047  0.2073 -0.0209 -0.0918
 1032loPI   GL216174   2.263  12.138   5.040  0.0570  0.3869  0.2925
 1032loPI   C1A16175   2.602  11.781   5.513 -0.0639 -0.0662  0.1244
 1032loPI   C2A16176   2.549  11.856   5.997  0.0902  0.2498 -0.0349
 1032loPI   C3A16177   2.978  11.678   6.303  0.2802  0.3416  0.2033
 1032loPI   C4A16178   3.171  11.460   6.657 -0.0154  0.0356 -0.1285
 1032loPI   C5A16179   3.168  11.302   7.097 -0.2392 -0.0304 -0.2014
 1032loPI   C6A16180   3.084  10.975   7.250 -0.2455  0.0009  0.1874
 1032loPI   C1B16181   2.188  12.043   5.474 -0.1224 -0.2389 -0.2306
 1032loPI   C2B16182   2.056  12.087   5.867 -0.0759 -0.1360  0.1456
 1032loPI   C3B16183   2.116  11.899   6.273  0.0219 -0.2834 -0.2582
 1032loPI   C4B16184   2.016  12.150   6.635  0.0066  0.3463 -0.1431
 1033loPI    C116185   6.668   7.417   5.020  0.0427  0.2874  0.0978
 1033loPI    C216186   6.587   7.235   4.674  0.1215 -0.0887  0.2724
 1033loPI    C316187   6.290   7.330   4.925  0.0457  0.3520  0.0258
 1033loPI   PO416188   6.873   7.589   4.932  0.0080 -0.0237 -0.2093
 1033loPI   GL116189   7.096   7.683   5.216 -0.0834  0.1078  0.2467
 1033loPI   GL216190   7.087   7.401   5.322 -0.0351 -0.3230 -0.0937
 1033loPI   C1A16191   7.412   8.082   5.482 -0.0827 -0.2760 -0.1181
 1033loPI   C2A16192   7.345   8.284   5.938 -0.2892 -0.1047 -0.0051
 1033loPI   C3A16193   7.353   8.599   6.290 -0.0912  0.0533  0.0435
 1033loPI   C4A16194   7.645   8.546   6.720 -0.0526  0.2199  0.1763
 1033loPI   C5A16195   7.691   8.150   6.885 -0.0435 -0.1193 -0.2747
 1033loPI   C6A16196   7.526   7.650   6.992  0.1222 -0.1030  0.0330
 1033loPI   C1B16197   7.221   7.684   5.699  0.2059  0.0507 -0.0004
 1033loPI   C2B16198   7.286   7.830   6.170 -0.0748 -0.1702  0.1040
 1033loPI   C3B16199   7.125   8.157   6.455 -0.0501 -0.1864  0.0225
 1033loPI   C4B16200   7.174   8.451   6.804  0.2481  0.0481  0.0673
 1034loPI    C116201   7.955   4.922   4.653 -0.1584  0.3707  0.0966
 1034loPI    C216202   7.935   5.092   4.291 -0.3255  0.3497  0.0952
 1034loPI    C316203   8.060   4.714   4.328 -0.2782  0.3621  0.0628
 1034loPI   PO416204   7.995   5.009   4.783 -0.0089 -0.1064 -0.1847
 1034loPI   GL116205   8.241   4.884   5.083  0.3547  0.1825  0.2446
 1034loPI   GL216206   8.340   4.666   5.281 -0.0500  0.1314  0.2600
 1034loPI   C1A16207   8.225   5.001   5.579  0.2780  0.1708 -0.3445
 1034loPI   C2A16208   8.072   4.989   6.025 -0.2133 -0.1700  0.2134
 1034loPI   C3A16209   7.810   4.909   6.299  0.3031  0.3977 -0.0465
 1034loPI   C4A16210   7.389   5.110   6.599 -0.0498  0.0076 -0.1982
 1034loPI   C5A16211   7.264   5.177   7.037 -0.1031 -0.2097 -0.1903
 1034loPI   C6A16212   7.544   5.355   7.438 -0.0702 -0.1056 -0.1968
 1034loPI   C1B16213   8.179   4.456   5.703 -0.0467 -0.3933 -0.0439
 1034loPI   C2B16214   8.190   4.465   6.151  0.0700  0.1674 -0.1035
 1034loPI   C3B16215   8.145   4.565   6.526  0.0163  0.1337  0.0840
 1034loPI   C4B16216   7.960   4.475   6.971  0.1206 -0.2824  0.0180
 1035loPI    C116217   1.516   6.011   4.868 -0.0263  0.0276 -0.2548
 1035loPI    C216218   1.737   6.037   5.200 -0.0915  0.1827 -0.2227
 1035loPI    C316219   1.751   6.329   4.927 -0.2171  0.1690 -0.2446
 1035loPI   PO416220   1.345   5.833   4.960  0.0986  0.1348  0.1699
 1035loPI   GL116221   1.142   5.923   5.381 -0.2629  0.1242  0.3437
 1035loPI   GL216222   1.294   6.251   5.359 -0.0184 -0.3092 -0.0320
 1035loPI   C1A16223   1.013   5.850   5.813 -0.0745 -0.0672 -0.0471
 1035loPI   C2A16224   0.983   5.806   6.281 -0.2906  0.1630 -0.0209
 1035loPI   C3A16225   1.053   5.713   6.676 -0.1814  0.1261  0.0162
 1035loPI   C4A16226   1.137   5.936   7.205 -0.1097  0.0782  0.2333
 1035loPI   C5A16227   1.220   5.754   7.623 -0.1353 -0.1723  0.1257
 1035loPI   C6A16228   1.415   5.304   7.765 -0.2357  0.0249  0.0508
 1035loPI   C1B16229   1.322   6.269   5.840 -0.0364  0.1177 -0.1323
 1035loPI   C2B16230   1.259   6.193   6.253  0.1396 -0.0318  0.2642
 1035loPI   C3B16231   1.165   6.200   6.643 -0.0410  0.0620  0.3366
 1035loPI   C4B16232   1.064   6.483   6.982 -0.3556 -0.4870 -0.1059
 1036loPI    C116233  14.067   7.728   4.943  0.1619  0.1974  0.0707
 1036loPI    C216234  14.417   7.768   4.753  0.2511 -0.0278  0.1832
 1036loPI    C316235  14.073   7.794   4.549  0.3317  0.1908  0.0716
 1036loPI   PO416236  14.109   7.808   5.209 -0.0530 -0.0926  0.0897
 1036loPI   GL116237  14.077   7.573   5.494 -0.3004  0.1718 -0.3161
 1036loPI   GL216238  14.292   7.725   5.643  0.2550  0.1964 -0.0690
 1036loPI   C1A16239  13.851   7.366   5.737  0.1129  0.2333 -0.1135
 1036loPI   C2A16240  13.813   7.229   6.181  0.2501 -0.1617  0.1283
 1036loPI   C3A16241  13.970   7.521   6.556 -0.0264  0.1076 -0.2014
 1036loPI   C4A16242  14.107   7.702   6.904 -0.4147 -0.1072  0.0145
 1036loPI   C5A16243  14.215   7.462   7.157  0.0923 -0.1142 -0.1981
 1036loPI   C6A16244  14.451   7.405   7.517  0.0665  0.0275 -0.1630
 1036loPI   C1B16245  14.572   7.864   5.937  0.3650  0.0147 -0.0721
 1036loPI   C2B16246  14.745   8.125   6.312 -0.3301  0.1541 -0.1207
 1036loPI   C3B16247  14.782   8.423   6.659  0.0671 -0.0277 -0.1514
 1036loPI   C4B16248  14.975   8.636   6.955 -0.3559 -0.0420 -0.0084
 1037loPI    C116249  11.744  10.787   4.480  0.2811  0.1536  0.2334
 1037loPI    C216250  11.956  10.471   4.355 -0.3076 -0.1208 -0.1149
 1037loPI    C316251  11.896  10.781   4.110 -0.0263  0.1127  0.1047
 1037loPI   PO416252  11.832  10.808   4.731 -0.1071  0.0947  0.4925
 1037loPI   GL116253  12.169  10.500   4.956 -0.0781  0.4516  0.0908
 1037loPI   GL216254  12.538  10.661   4.911  0.2163  0.1338  0.0357
 1037loPI   C1A16255  11.874  10.501   5.302  0.0442  0.0899  0.0433
 1037loPI   C2A16256  11.939  10.637   5.693 -0.3641 -0.0266  0.3055
 1037loPI   C3A16257  12.047  10.780   6.193  0.0399  0.2201 -0.4757
 1037loPI   C4A16258  12.140  11.005   6.578 -0.0464  0.3517  0.0078
 1037loPI   C5A16259  11.967  10.979   6.916 -0.3439  0.0803  0.1020
 1037loPI   C6A16260  11.774  11.301   7.159  0.1984  0.0920 -0.3768
 1037loPI   C1B16261  12.446  10.703   5.314 -0.0459 -0.3335  0.2443
 1037loPI   C2B16262  12.388  10.769   5.778  0.0600  0.1876 -0.0968
 1037loPI   C3B16263  12.565  10.878   6.130 -0.0712 -0.0548  0.0704
 1037loPI   C4B16264  12.964  11.077   6.103  0.0427  0.3537 -0.1280
 1038loPI    C116265   9.706   9.118   4.502 -0.0568  0.0126 -0.1489
 1038loPI    C216266   9.407   8.862   4.429 -0.1105  0.0075  0.0808
 1038loPI    C316267   9.628   9.004   4.127 -0.0152 -0.3879 -0.0409
 1038loPI   PO416268   9.868   8.975   4.752  0.0044  0.1501 -0.1537
 1038loPI   GL116269   9.864   8.832   5.197  0.2149 -0.1807  0.0659
 1038loPI   GL216270  10.112   8.867   5.349 -0.3189  0.3929  0.0834
 1038loPI   C1A16271   9.687   8.658   5.642 -0.2068  0.1510  0.2103
 1038loPI   C2A16272   9.646   8.511   6.018  0.0412 -0.1915 -0.1374
 1038loPI   C3A16273   9.775   8.202   6.352  0.1390  0.1234  0.2692
 1038loPI   C4A16274   9.740   7.892   6.726  0.1419 -0.1762 -0.4184
 1038loPI   C5A16275   9.800   7.905   7.111  0.1364  0.0643 -0.4170
 1038loPI   C6A16276   9.911   8.155   7.384  0.1486 -0.2168 -0.0456
 1038loPI   C1B16277  10.003   9.079   5.684 -0.1547  0.2689  0.2436
 1038loPI   C2B16278   9.901   8.951   6.116 -0.1618  0.3656 -0.1515
 1038loPI   C3B16279   9.724   8.796   6.521  0.3706 -0.1109  0.0605
 1038loPI   C4B16280   9.781   8.420   6.838 -0.1266 -0.2883 -0.1487
 1039loPI    C116281  13.186   1.837   4.335  0.0487  0.3518 -0.0038
 1039loPI    C216282  12.871   2.027   4.177 -0.1323  0.0147 -0.0570
 1039loPI    C316283  12.952   1.650   4.069  0.1155 -0.0029  0.1814
 1039loPI   PO416284  13.140   1.911   4.638 -0.2116  0.2904  0.1359
 1039loPI   GL116285  12.996   2.047   5.005 -0.1826  0.0855 -0.0204
 1039loPI   GL216286  12.689   2.136   5.098 -0.0483 -0.0822 -0.0711
 1039loPI   C1A16287  13.105   2.221   5.367  0.0973 -0.1844  0.0837
 1039loPI   C2A16288  13.413   2.354   5.759 -0.0742  0.3815  0.0264
 1039loPI   C3A16289  13.522   2.627   6.149 -0.0071 -0.0583  0.1622
 1039loPI   C4A16290  13.666   2.952   6.340  0.0456  0.2972  0.0226
 1039loPI   C5A16291  13.840   3.046   6.750 -0.0132  0.0531  0.3263
 1039loPI   C6A16292  14.129   2.969   7.037  0.1714  0.0904  0.0657
 1039loPI   C1B16293  12.577   2.224   5.532  0.0655 -0.2607  0.0526
 1039loPI   C2B16294  12.548   2.137   5.944  0.1631  0.3270  0.0067
 1039loPI   C3B16295  12.421   2.141   6.445  0.3370 -0.0482 -0.3528
 1039loPI   C4B16296  12.334   2.103   6.919  0.1810  0.0658  0.3324
 1040loPI    C116297   6.975   1.981   4.454 -0.0764  0.1262 -0.0446
 1040loPI    C216298   6.606   2.054   4.317 -0.1237 -0.0945 -0.0387
 1040loPI    C316299   6.815   1.744   4.174  0.0336 -0.0106  0.0068
 1040loPI   PO416300   6.884   1.907   4.808 -0.0583 -0.0164  0.0379
 1040loPI   GL116301   6.710   1.881   5.289 -0.2467  0.1595  0.0547
 1040loPI   GL216302   6.654   2.148   5.215  0.0614  0.4867 -0.0968
 1040loPI   C1A16303   6.575   1.747   5.695  0.0417  0.0228 -0.0570
 1040loPI   C2A16304   6.514   1.975   6.048 -0.1827  0.1162 -0.3294
 1040loPI   C3A16305   6.520   2.248   6.465  0.0188 -0.1237 -0.1095
 1040loPI   C4A16306   6.485   2.500   6.851  0.0139  0.2138 -0.2154
 1040loPI   C5A16307   6.442   2.641   7.282  0.0838  0.1464 -0.0884
 1040loPI   C6A16308   6.784   2.660   7.633 -0.0484 -0.0252  0.4313
 1040loPI   C1B16309   6.771   2.221   5.660 -0.3026  0.1075 -0.0408
 1040loPI   C2B16310   6.734   2.492   6.072 -0.1278 -0.3761  0.2097
 1040loPI   C3B16311   6.670   2.795   6.439  0.0125 -0.0397  0.2657
 1040loPI   C4B16312   6.538   3.020   6.833 -0.1868 -0.0167  0.0775
 1041loPI    C116313   5.573   5.062   4.288 -0.0657 -0.1693  0.2117
 1041loPI    C216314   5.226   4.959   4.458 -0.2183  0.1919  0.1281
 1041loPI    C316315   5.230   5.115   4.090  0.0695 -0.1566 -0.0224
 1041loPI   PO416316   5.678   5.310   4.457 -0.2484  0.1137 -0.0750
 1041loPI   GL116317   5.589   5.313   4.905 -0.2072  0.1045  0.0099
 1041loPI   GL216318   5.369   5.085   4.906 -0.1295  0.2305 -0.1604
 1041loPI   C1A16319   5.757   5.174   5.270 -0.2836 -0.0242  0.2875
 1041loPI   C2A16320   5.646   5.174   5.635 -0.1890  0.3182 -0.0905
 1041loPI   C3A16321   5.461   5.250   6.001  0.1079  0.0878 -0.1323
 1041loPI   C4A16322   5.458   5.274   6.508  0.1936 -0.2216  0.2294
 1041loPI   C5A16323   5.892   5.395   6.642  0.0897 -0.1942  0.2541
 1041loPI   C6A16324   6.107   5.823   6.625 -0.1222 -0.1272  0.1111
 1041loPI   C1B16325   5.452   4.773   5.296 -0.0110  0.0831 -0.1932
 1041loPI   C2B16326   5.230   4.880   5.716  0.0713  0.2797 -0.0570
 1041loPI   C3B16327   5.048   4.908   6.180  0.0537  0.0571 -0.0774
 1041loPI   C4B16328   5.013   4.921   6.588 -0.0068 -0.0227 -0.1758
 1042loPI    C116329   3.748  13.042   4.188 -0.0503  0.1004 -0.0478
 1042loPI    C216330   3.982  12.770   4.011  0.1086  0.0687  0.2059
 1042loPI    C316331   3.829  13.072   3.798  0.1271 -0.0838 -0.0265
 1042loPI   PO416332   3.823  12.930   4.466 -0.2614 -0.3309 -0.0773
 1042loPI   GL116333   4.113  12.679   4.841  0.0724 -0.0888  0.0140
 1042loPI   GL216334   4.081  12.442   5.007  0.1015  0.0645 -0.0030
 1042loPI   C1A16335   4.093  12.897   5.227 -0.1808 -0.5406  0.1199
 1042loPI   C2A16336   4.018  13.100   5.619  0.0831 -0.0550  0.1353
 1042loPI   C3A16337   4.077  13.185   5.981  0.0423 -0.2885 -0.3731
 1042loPI   C4A16338   4.148  13.187   6.302  0.0330  0.0617  0.3534
 1042loPI   C5A16339   3.915  13.301   6.710  0.2334  0.1823  0.2223
 1042loPI   C6A16340   3.791  13.547   7.184 -0.0951 -0.0043 -0.0273
 1042loPI   C1B16341   4.311  12.488   5.443  0.0923  0.0900  0.1680
 1042loPI   C2B16342   4.365  12.663   5.858  0.0263 -0.0843 -0.1127
 1042loPI   C3B16343   4.270  12.724   6.310  0.0629 -0.1126 -0.0866
 1042loPI   C4B16344   4.364  12.693   6.721 -0.0127  0.0831  0.0861
 1043loPI    C116345  14.064  15.738   4.495  0.0545  0.0795 -0.0021
 1043loPI    C216346  14.211  15.497   4.211  0.0574  0.1359 -0.0487
 1043loPI    C316347  13.855  15.673   4.161 -0.0480 -0.0366  0.0841
 1043loPI   PO416348  13.989  15.684   4.757 -0.0279  0.1074 -0.0850
 1043loPI   GL116349  13.966  15.785   5.176 -0.0835  0.2466 -0.1305
 1043loPI   GL216350  14.259  16.118   5.290  0.0234 -0.2750  0.1036
 1043loPI   C1A16351  13.610  15.887   5.477 -0.2343  0.0537  0.0650
 1043loPI   C2A16352  13.414  15.820   5.884 -0.0847 -0.1617 -0.0731
 1043loPI   C3A16353  13.267  15.829   6.353  0.0957 -0.0187  0.0405
 1043loPI   C4A16354  13.469  15.796   6.743 -0.0051  0.0106 -0.1287
 1043loPI   C5A16355  13.718  15.632   7.064 -0.1393 -0.0748 -0.2986
 1043loPI   C6A16356  14.125  15.577   7.166  0.1632  0.1332  0.0668
 1043loPI   C1B16357  14.065  16.011   5.689 -0.0546  0.3519 -0.4417
 1043loPI   C2B16358  13.860  15.986   6.056  0.5471  0.0753  0.0018
 1043loPI   C3B16359  13.877  15.722   6.404  0.2870 -0.0740  0.0259
 1043loPI   C4B16360  14.330  15.548   6.657 -0.1779  0.3576 -0.0908
 1044loPI    C116361  14.549  12.765   3.911  0.1378 -0.1884  0.1722
 1044loPI    C216362  14.381  12.522   3.641 -0.1709  0.1797  0.0236
 1044loPI    C316363  14.658  12.787   3.527  0.3479 -0.2567  0.2268
 1044loPI   PO416364  14.535  12.619   4.122 -0.1558 -0.0217  0.0224
 1044loPI   GL116365  14.282  12.697   4.518 -0.3263 -0.0642 -0.0909
 1044loPI   GL216366  14.527  12.587   4.640  0.3118  0.0028  0.1853
 1044loPI   C1A16367  14.225  12.728   4.971  0.1089  0.0719 -0.0915
 1044loPI   C2A16368  14.269  12.761   5.372  0.2497 -0.1677  0.0736
 1044loPI   C3A16369  14.368  12.588   5.744  0.4331 -0.0700 -0.1827
 1044loPI   C4A16370  14.410  12.336   6.178 -0.1143 -0.1334 -0.0771
 1044loPI   C5A16371  14.173  12.357   6.557  0.1196 -0.3495  0.0086
 1044loPI   C6A16372  13.721  12.402   6.624  0.0931  0.4426 -0.0647
 1044loPI   C1B16373  14.592  12.395   5.039  0.3190  0.3093 -0.1248
 1044loPI   C2B16374  14.666  12.205   5.512 -0.0147  0.1374 -0.0254
 1044loPI   C3B16375  14.277  12.097   5.779 -0.0545  0.0248 -0.0761
 1044loPI   C4B16376  14.216  11.870   6.158 -0.3907 -0.0623  0.1463
 1045loPI    C116377  18.363  16.761   4.448 -0.0135  0.1417  0.2156
 1045loPI    C216378  18.559  17.091   4.560  0.1137  0.1639 -0.0622
 1045loPI    C316379  18.631  16.928   4.202 -0.1223 -0.0299 -0.0242
 1045loPI   PO416380  18.374  16.614   4.644  0.1325 -0.1710  0.0943
 1045loPI   GL116381  18.317  16.539   4.922  0.0713  0.0323  0.1688
 1045loPI   GL216382  18.166  16.219   4.872 -0.2491 -0.1256 -0.0263
 1045loPI   C1A16383  18.148  16.629   5.278  0.0481  0.4312 -0.2619
 1045loPI   C2A16384  18.148  16.707   5.714 -0.0648 -0.0041 -0.1067
 1045loPI   C3A16385  18.290  16.784   6.119 -0.2132  0.2068 -0.2678
 1045loPI   C4A16386  18.472  16.611   6.493  0.1124  0.1334 -0.1079
 1045loPI   C5A16387  18.763  16.520   6.857 -0.2903  0.0224  0.1524
 1045loPI   C6A16388  19.066  16.408   7.156  0.1626  0.1939 -0.1345
 1045loPI   C1B16389  18.099  16.031   5.307  0.0303  0.4342 -0.2837
 1045loPI   C2B16390  17.926  16.247   5.645  0.1327 -0.0889 -0.2194
 1045loPI   C3B16391  17.962  16.410   6.047 -0.1122  0.1438 -0.4567
 1045loPI   C4B16392  17.887  16.441   6.478  0.0124  0.0779  0.2091
 1046loPI    C116393  13.197   6.614   4.945  0.1418  0.0610  0.1325
 1046loPI    C216394  13.441   6.771   4.670  0.0459  0.1689  0.1081
 1046loPI    C316395  13.177   6.488   4.566  0.4052 -0.2127  0.2055
 1046loPI   PO416396  13.365   6.572   5.183 -0.0327  0.2220 -0.2313
 1046loPI   GL116397  13.385   6.315   5.516 -0.0713  0.2351  0.0279
 1046loPI   GL216398  13.587   6.207   5.669  0.0483  0.0720  0.0088
 1046loPI   C1A16399  13.126   6.137   5.855  0.2351 -0.0325 -0.0477
 1046loPI   C2A16400  13.051   5.894   6.305  0.1498 -0.1437  0.0558
 1046loPI   C3A16401  12.865   5.773   6.662 -0.0560 -0.0523  0.0316
 1046loPI   C4A16402  12.967   5.584   6.971  0.0490  0.4109 -0.3529
 1046loPI   C5A16403  13.277   5.326   7.099 -0.1315 -0.2521 -0.1376
 1046loPI   C6A16404  13.605   5.122   7.358 -0.0978 -0.1681  0.3610
 1046loPI   C1B16405  13.579   5.889   5.960  0.1176 -0.0494 -0.1620
 1046loPI   C2B16406  13.512   5.756   6.357  0.1799 -0.3776  0.0801
 1046loPI   C3B16407  13.456   5.921   6.790 -0.0236  0.0340 -0.0044
 1046loPI   C4B16408  13.380   5.820   7.165 -0.2220 -0.1842  0.2742
 1047loPI    C116409   5.537   8.344   4.643 -0.1541  0.1282  0.0372
 1047loPI    C216410   5.214   8.173   4.480 -0.0308 -0.0750  0.0022
 1047loPI    C316411   5.492   8.340   4.245  0.1400 -0.3557  0.0012
 1047loPI   PO416412   5.512   8.226   4.928  0.2172  0.0917 -0.0672
 1047loPI   GL116413   5.647   8.341   5.314 -0.0251  0.1549 -0.1948
 1047loPI   GL216414   5.959   8.190   5.378  0.0861  0.0383 -0.1955
 1047loPI   C1A16415   5.530   8.432   5.748  0.0407  0.0291 -0.0775
 1047loPI   C2A16416   5.708   8.486   6.127 -0.2747 -0.0302 -0.3431
 1047loPI   C3A16417   5.781   8.444   6.493 -0.2657 -0.0020  0.1502
 1047loPI   C4A16418   5.866   8.607   6.894  0.2659  0.1232  0.0093
 1047loPI   C5A16419   5.669   8.929   7.181  0.1523 -0.0233  0.0809
 1047loPI   C6A16420   5.512   9.169   7.512 -0.0413  0.0146 -0.2890
 1047loPI   C1B16421   6.244   7.897   5.521 -0.2848 -0.5993 -0.2532
 1047loPI   C2B16422   6.284   7.799   5.964  0.1533  0.0430  0.0532
 1047loPI   C3B16423   6.105   7.799   6.346  0.1249 -0.2964  0.0239
 1047loPI   C4B16424   5.741   7.897   6.418 -0.2310 -0.1002  0.1921
 1048loPI    C116425  17.185   7.246   4.812  0.0076  0.0074 -0.1294
 1048loPI    C216426  17.407   7.097   4.514 -0.0759 -0.0570 -0.1599
 1048loPI    C316427  17.534   7.418   4.717  0.0384 -0.0857 -0.1853
 1048loPI   PO416428  17.116   6.995   4.946  0.0002 -0.2361  0.1440
 1048loPI   GL116429  17.126   6.950   5.282 -0.0454  0.0652 -0.1698
 1048loPI   GL216430  16.936   7.155   5.491 -0.1880  0.4887  0.3054
 1048loPI   C1A16431  17.399   6.976   5.740 -0.1003  0.2911 -0.1007
 1048loPI   C2A16432  17.651   7.320   5.986 -0.1279  0.2913  0.1432
 1048loPI   C3A16433  17.810   7.527   6.402  0.3261 -0.3017 -0.2361
 1048loPI   C4A16434  17.867   7.577   6.923  0.1136 -0.3180 -0.1223
 1048loPI   C5A16435  17.934   7.295   7.207 -0.4136 -0.0225  0.0188
 1048loPI   C6A16436  17.897   7.345   7.603 -0.0862  0.0529  0.0275
 1048loPI   C1B16437  16.848   7.015   5.893 -0.0601 -0.0084 -0.0204
 1048loPI   C2B16438  16.928   7.036   6.402 -0.1228  0.1890  0.0282
 1048loPI   C3B16439  16.991   6.955   6.767  0.2636  0.0536  0.1024
 1048loPI   C4B16440  16.766   6.680   6.921 -0.1306  0.2274 -0.0345
 1049loPI    C116441  11.670   8.572   4.628  0.0240  0.2303  0.1347
 1049loPI    C216442  11.826   8.765   4.314  0.1047  0.1460  0.1228
 1049loPI    C316443  11.565   8.467   4.256  0.0371  0.2019  0.1391
 1049loPI   PO416444  11.878   8.590   4.781  0.0384  0.0208  0.0327
 1049loPI   GL116445  12.043   8.623   5.173  0.1954  0.3095  0.0701
 1049loPI   GL216446  11.996   8.939   5.161  0.0297  0.0422  0.0075
 1049loPI   C1A16447  12.124   8.469   5.631  0.2732 -0.1206 -0.1107
 1049loPI   C2A16448  12.342   8.294   6.004  0.1583  0.1862 -0.3020
 1049loPI   C3A16449  12.432   8.094   6.469 -0.1963 -0.1179  0.2489
 1049loPI   C4A16450  12.458   8.094   6.916  0.1743 -0.0179  0.1114
 1049loPI   C5A16451  12.747   8.272   7.213 -0.2225 -0.2762  0.4047
 1049loPI   C6A16452  12.926   8.705   7.501 -0.3519  0.0506  0.2056
 1049loPI   C1B16453  12.258   9.000   5.588 -0.0608  0.0743 -0.2248
 1049loPI   C2B16454  12.300   8.967   6.135 -0.1814  0.1366  0.1015
 1049loPI   C3B16455  12.426   9.041   6.485 -0.0091  0.1270 -0.1172
 1049loPI   C4B16456  12.331   9.063   6.953  0.0383 -0.1029  0.3482
 1050loPI    C116457  11.906   7.076   4.852  0.1013  0.0297 -0.1996
 1050loPI    C216458  11.811   7.192   4.481 -0.0094  0.0067 -0.1787
 1050loPI    C316459  12.143   6.979   4.544 -0.1459 -0.2493 -0.3079
 1050loPI   PO416460  11.891   7.226   4.958  0.0885  0.2626  0.2763
 1050loPI   GL116461  11.938   7.331   5.362  0.0243  0.2095  0.2205
 1050loPI   GL216462  11.967   6.952   5.391  0.0069  0.4014  0.4577
 1050loPI   C1A16463  11.639   7.499   5.774 -0.0529  0.1684  0.0308
 1050loPI   C2A16464  11.783   7.468   6.282 -0.2467  0.2671 -0.1305
 1050loPI   C3A16465  11.878   7.302   6.769  0.0918  0.0252  0.3217
 1050loPI   C4A16466  12.002   7.206   7.068 -0.0783 -0.0046 -0.0259
 1050loPI   C5A16467  12.210   6.940   7.315  0.1413 -0.3137 -0.0176
 1050loPI   C6A16468  12.729   6.876   7.445  0.0163 -0.4032 -0.0451
 1050loPI   C1B16469  12.073   7.175   5.844  0.4674  0.0118 -0.1026
 1050loPI   C2B16470  12.208   7.222   6.285  0.1158  0.2274  0.1221
 1050loPI   C3B16471  12.399   7.318   6.723 -0.2349 -0.1362 -0.0664
 1050loPI   C4B16472  12.603   7.180   6.999  0.2182 -0.0324  0.0167
 1051loPI    C116473   9.079  11.914   4.576  0.0796 -0.3047 -0.2514
 1051loPI    C216474   8.831  12.064   4.301  0.0227 -0.3009 -0.1980
 1051loPI    C316475   9.178  11.901   4.189  0.1793  0.0525 -0.2414
 1051loPI   PO416476   8.995  12.078   4.825  0.4096  0.1835  0.1791
 1051loPI   GL116477   8.812  12.153   5.114  0.0438  0.0430  0.1675
 1051loPI   GL216478   8.836  12.497   5.172 -0.0394  0.2789 -0.1407
 1051loPI   C1A16479   9.127  12.058   5.474 -0.0853 -0.0092 -0.3068
 1051loPI   C2A16480   9.193  11.821   5.833 -0.0643 -0.2377  0.0091
 1051loPI   C3A16481   9.216  11.678   6.325  0.2139 -0.1900  0.0394
 1051loPI   C4A16482   9.159  11.628   6.676 -0.0810 -0.0451 -0.0098
 1051loPI   C5A16483   9.155  11.652   7.022 -0.3810 -0.2461 -0.0595
 1051loPI   C6A16484   9.393  12.048   7.181 -0.0485  0.1215  0.3214
 1051loPI   C1B16485   8.997  12.527   5.626 -0.1574 -0.0296 -0.2139
 1051loPI   C2B16486   9.145  12.754   6.062  0.4993 -0.2776  0.0460
 1051loPI   C3B16487   9.325  12.558   6.452 -0.0557  0.0342  0.0557
 1051loPI   C4B16488   9.309  12.124   6.635 -0.0799  0.1141  0.0134
 1052loPI    C116489  16.887  10.345   4.326  0.0467 -0.2284  0.1770
 1052loPI    C216490  16.850  10.171   3.968  0.0364  0.0759  0.0270
 1052loPI    C316491  16.551  10.149   4.233 -0.0775  0.1049 -0.0983
 1052loPI   PO416492  17.091  10.382   4.489 -0.0913  0.0397 -0.2462
 1052loPI   GL116493  17.292  10.406   4.915  0.1297  0.2128 -0.3347
 1052loPI   GL216494  17.265  10.835   4.803  0.2794  0.0597  0.1825
 1052loPI   C1A16495  17.069  10.562   5.275 -0.2186  0.0229 -0.1241
 1052loPI   C2A16496  16.915  10.670   5.720  0.0729  0.1401  0.1278
 1052loPI   C3A16497  16.800  10.742   6.239  0.0478 -0.0112  0.1503
 1052loPI   C4A16498  16.775  10.855   6.718  0.0684  0.2251 -0.0915
 1052loPI   C5A16499  16.913  10.753   7.073 -0.1609 -0.0072  0.1394
 1052loPI   C6A16500  16.963  10.654   7.562  0.0731  0.0511  0.0337
 1052loPI   C1B16501  17.528  10.848   5.273 -0.1389  0.2207 -0.1717
 1052loPI   C2B16502  17.427  10.649   5.657 -0.0994 -0.1563 -0.1137
 1052loPI   C3B16503  17.342  10.699   6.119 -0.0581  0.1699 -0.1289
 1052loPI   C4B16504  17.235  10.842   6.522 -0.2674  0.2461 -0.4131
 1053loPI    C116505   0.604  11.935   4.034  0.0758 -0.0836 -0.0454
 1053loPI    C216506   0.294  12.049   3.809 -0.0988 -0.1579  0.1536
 1053loPI    C316507   0.468  11.694   3.745 -0.0554 -0.1171  0.0430
 1053loPI   PO416508   0.488  11.978   4.427 -0.3994 -0.1905  0.2930
 1053loPI   GL116509   0.366  12.092   4.832 -0.2155  0.1047  0.0244
 1053loPI   GL216510   0.198  11.775   4.935  0.0449 -0.2470  0.0322
 1053loPI   C1A16511   0.854  11.935   5.025  0.1682  0.0641 -0.3097
 1053loPI   C2A16512   0.843  11.795   5.411  0.1933 -0.0733  0.0026
 1053loPI   C3A16513   0.505  11.830   5.799  0.0464  0.3614 -0.0114
 1053loPI   C4A16514   0.457  11.556   6.141 -0.0194 -0.0397 -0.3449
 1053loPI   C5A16515   0.627  11.307   6.531  0.1344  0.0923 -0.2832
 1053loPI   C6A16516   0.649  10.845   6.632 -0.0206  0.0546  0.2466
 1053loPI   C1B16517  -0.072  11.807   5.197  0.0200  0.1606 -0.2919
 1053loPI   C2B16518  -0.485  11.844   5.498 -0.5897  0.3309 -0.1157
 1053loPI   C3B16519  -0.877  12.078   5.514  0.0815 -0.2040  0.0355
 1053loPI   C4B16520  -1.159  12.349   5.647  0.1187 -0.0584 -0.2396
 1054loPI    C116521  10.167   3.343   4.629 -0.0219 -0.1022  0.0769
 1054loPI    C216522  10.313   3.396   4.261  0.0306  0.0645  0.1211
 1054loPI    C316523  10.061   3.095   4.334  0.0835 -0.0181 -0.0327
 1054loPI   PO416524  10.369   3.355   4.742  0.4003 -0.1027 -0.0364
 1054loPI   GL116525  10.408   3.547   5.127  0.1621  0.0275 -0.2233
 1054loPI   GL216526  10.477   3.793   5.365  0.0454  0.4030 -0.2281
 1054loPI   C1A16527  10.148   3.330   5.461 -0.1689 -0.0690 -0.0191
 1054loPI   C2A16528   9.915   3.114   5.772 -0.0435 -0.1415 -0.2481
 1054loPI   C3A16529   9.748   3.107   6.098  0.0129 -0.0713 -0.0849
 1054loPI   C4A16530   9.656   2.901   6.424  0.1818 -0.0908 -0.3705
 1054loPI   C5A16531   9.184   2.745   6.554 -0.1457  0.1290  0.1230
 1054loPI   C6A16532   8.821   2.490   6.340 -0.1508 -0.2233  0.0251
 1054loPI   C1B16533  10.484   3.671   5.783 -0.0371  0.0799 -0.2498
 1054loPI   C2B16534  10.520   3.782   6.235  0.0538 -0.1466 -0.4240
 1054loPI   C3B16535  10.685   4.036   6.510 -0.2153  0.0031  0.0035
 1054loPI   C4B16536  10.804   3.987   6.856 -0.0616  0.0873  0.1229
 1055loPI    C116537   4.975   7.560   4.813  0.0570 -0.0070  0.1547
 1055loPI    C216538   4.688   7.550   5.091 -0.0862  0.2192  0.0187
 1055loPI    C316539   4.594   7.498   4.706  0.0745  0.1666 -0.0140
 1055loPI   PO416540   5.113   7.833   4.885 -0.1289 -0.1506  0.1122
 1055loPI   GL116541   5.050   7.972   5.180  0.0833  0.1978 -0.1583
 1055loPI   GL216542   5.134   8.261   5.281 -0.0233  0.0797 -0.0402
 1055loPI   C1A16543   4.986   7.695   5.489  0.1015  0.0431  0.2776
 1055loPI   C2A16544   4.884   7.526   5.983  0.0785 -0.3259  0.1931
 1055loPI   C3A16545   4.787   7.582   6.401 -0.0252 -0.1574 -0.0170
 1055loPI   C4A16546   4.630   7.542   6.715 -0.0535 -0.3073  0.2407
 1055loPI   C5A16547   4.575   7.368   7.111  0.1560 -0.0097 -0.1739
 1055loPI   C6A16548   4.465   7.059   7.276 -0.1256 -0.1173 -0.2288
 1055loPI   C1B16549   5.266   8.054   5.632 -0.2319  0.1812  0.1372
 1055loPI   C2B16550   5.419   7.735   5.822  0.0827  0.1316 -0.1687
 1055loPI   C3B16551   5.365   7.546   6.222  0.1436 -0.0579  0.1197
 1055loPI   C4B16552   5.090   7.169   6.324  0.2455  0.0254  0.2362
 1056loPI    C116553   7.753   4.376   4.657  0.0017  0.2376 -0.3692
 1056loPI    C216554   8.022   4.159   4.455  0.0014 -0.1182 -0.0013
 1056loPI    C316555   7.642   4.035   4.480 -0.0646  0.0749 -0.0232
 1056loPI   PO416556   7.851   4.454   4.816  0.0433 -0.1577 -0.1068
 1056loPI   GL116557   7.869   4.474   5.189  0.2338  0.1685 -0.1248
 1056loPI   GL216558   7.798   4.211   5.223 -0.0369  0.3146 -0.0280
 1056loPI   C1A16559   7.715   4.681   5.647  0.2490 -0.5221  0.1169
 1056loPI   C2A16560   7.514   4.656   6.029 -0.1288 -0.2734 -0.1896
 1056loPI   C3A16561   7.307   4.708   6.381  0.2567  0.3095  0.0438
 1056loPI   C4A16562   7.030   4.760   6.786 -0.0887 -0.2027 -0.2300
 1056loPI   C5A16563   7.023   4.721   7.203  0.2489 -0.0845 -0.3346
 1056loPI   C6A16564   6.695   4.841   7.514 -0.0139  0.1134  0.0078
 1056loPI   C1B16565   7.766   4.146   5.664 -0.3890  0.0389 -0.1268
 1056loPI   C2B16566   7.727   4.173   6.174  0.0133 -0.3388 -0.3914
 1056loPI   C3B16567   7.689   4.287   6.578 -0.0256  0.1637  0.0041
 1056loPI   C4B16568   7.564   4.123   7.034  0.0234 -0.2309  0.0703
 1057loPI    C116569   0.974   5.163   4.935  0.1158 -0.1582  0.0118
 1057loPI    C216570   1.242   5.386   4.738  0.0959  0.0219  0.1850
 1057loPI    C316571   0.873   5.526   4.801  0.0387 -0.1200  0.1714
 1057loPI   PO416572   1.024   5.071   5.105 -0.0897 -0.0545 -0.1742
 1057loPI   GL116573   0.810   4.844   5.461  0.2117 -0.0455  0.1272
 1057loPI   GL216574   0.952   4.627   5.381 -0.0887 -0.0332  0.2608
 1057loPI   C1A16575   0.675   5.134   5.739 -0.1034  0.2085  0.0358
 1057loPI   C2A16576   0.470   5.083   6.222  0.2774 -0.2889 -0.1184
 1057loPI   C3A16577   0.551   4.969   6.635  0.2476  0.3189  0.3528
 1057loPI   C4A16578   0.478   4.625   6.959 -0.3411  0.1457  0.0546
 1057loPI   C5A16579   0.214   4.455   7.327 -0.0417  0.2275  0.0371
 1057loPI   C6A16580   0.026   4.090   7.241 -0.0018  0.3565  0.1613
 1057loPI   C1B16581   1.207   4.588   5.757 -0.2018 -0.2097  0.0873
 1057loPI   C2B16582   1.449   4.548   6.167  0.0387  0.1791  0.3175
 1057loPI   C3B16583   1.324   4.479   6.583  0.1603  0.0788 -0.2364
 1057loPI   C4B16584   1.530   4.462   7.054  0.2067 -0.0565  0.1600
 1058loPI    C116585  17.541   8.806   4.378  0.1857  0.1656  0.2199
 1058loPI    C216586  17.638   8.945   4.741 -0.1440  0.1541  0.3152
 1058loPI    C316587  17.292   9.052   4.571  0.0735  0.2768 -0.0624
 1058loPI   PO416588  17.597   8.546   4.455 -0.0438 -0.1579 -0.2179
 1058loPI   GL116589  17.653   8.465   4.886  0.0377 -0.2248  0.0224
 1058loPI   GL216590  17.391   8.567   4.959  0.1812 -0.1650  0.1772
 1058loPI   C1A16591  17.852   8.625   5.227  0.1500 -0.0502 -0.1829
 1058loPI   C2A16592  18.144   8.564   5.543 -0.4058 -0.1438  0.2110
 1058loPI   C3A16593  18.100   8.500   5.980 -0.5213  0.2010  0.1289
 1058loPI   C4A16594  17.967   8.393   6.379  0.2309 -0.1594  0.2469
 1058loPI   C5A16595  17.892   8.467   6.812  0.2043  0.2585 -0.1819
 1058loPI   C6A16596  18.017   8.492   7.270 -0.0930  0.0406 -0.0441
 1058loPI   C1B16597  17.372   8.942   5.235  0.0579  0.3497 -0.0008
 1058loPI   C2B16598  17.284   8.939   5.620 -0.1532  0.1671 -0.1968
 1058loPI   C3B16599  17.256   8.844   6.089  0.2491  0.2035 -0.0327
 1058loPI   C4B16600  17.038   8.812   6.404 -0.1049 -0.1812 -0.1478
 1059loPI    C116601   0.257   7.628   4.736  0.2982  0.3308 -0.1733
 1059loPI    C216602   0.308   7.307   4.969  0.1499  0.5033  0.1030
 1059loPI    C316603   0.473   7.318   4.605  0.1627  0.1193  0.0926
 1059loPI   PO416604   0.188   7.783   4.892  0.1521 -0.0485 -0.5216
 1059loPI   GL116605   0.291   7.932   5.403  0.0845 -0.1542 -0.0389
 1059loPI   GL216606   0.270   8.263   5.239  0.1360 -0.2823  0.0394
 1059loPI   C1A16607   0.372   8.265   5.776 -0.1119 -0.0483 -0.3099
 1059loPI   C2A16608   0.368   8.424   6.234 -0.0625  0.0798 -0.1732
 1059loPI   C3A16609   0.599   8.315   6.544  0.2417  0.2349 -0.0253
 1059loPI   C4A16610   0.993   8.463   6.771  0.1806  0.1377 -0.0900
 1059loPI   C5A16611   1.089   8.515   7.154  0.0201 -0.0844 -0.0934
 1059loPI   C6A16612   1.086   8.630   7.518  0.3420 -0.0990  0.4077
 1059loPI   C1B16613  -0.026   8.323   5.536 -0.0188 -0.0884  0.0992
 1059loPI   C2B16614  -0.213   8.529   5.891  0.1917 -0.1030 -0.2084
 1059loPI   C3B16615  -0.117   8.371   6.347 -0.1787 -0.0677  0.3454
 1059loPI   C4B16616   0.157   8.429   6.786  0.0740  0.1730 -0.1085
 1060loPI    C116617   8.824  13.405   4.174 -0.0753 -0.0648  0.0242
 1060loPI    C216618   8.635  13.417   4.527  0.0634  0.0316  0.0956
 1060loPI    C316619   8.430  13.333   4.194 -0.0552 -0.1298  0.2078
 1060loPI   PO416620   9.112  13.295   4.340  0.2298 -0.2546  0.1034
 1060loPI   GL116621   9.385  13.314   4.759  0.2263 -0.0230 -0.4048
 1060loPI   GL216622   9.030  13.240   4.842 -0.1570  0.0942  0.4688
 1060loPI   C1A16623   9.364  13.376   5.291 -0.0699 -0.1562  0.0465
 1060loPI   C2A16624   9.426  13.507   5.745  0.0237 -0.0203 -0.2796
 1060loPI   C3A16625   9.442  13.571   6.122 -0.0389  0.0401 -0.0136
 1060loPI   C4A16626   9.535  13.528   6.510 -0.3161 -0.2526  0.1508
 1060loPI   C5A16627   9.609  13.299   6.835 -0.0821 -0.0311  0.1095
 1060loPI   C6A16628   9.540  12.887   6.868 -0.0462  0.2918  0.0435
 1060loPI   C1B16629   8.927  13.003   5.242 -0.1561 -0.0477  0.0123
 1060loPI   C2B16630   8.741  12.971   5.648  0.1039 -0.3894  0.0490
 1060loPI   C3B16631   8.627  12.836   6.021 -0.3326 -0.0970 -0.1636
 1060loPI   C4B16632   8.487  13.078   6.411  0.1870 -0.0508 -0.0341
 1061loPI    C116633  17.369   3.061   4.656 -0.0363 -0.2888  0.1901
 1061loPI    C216634  17.129   2.815   4.451  0.0739 -0.1079 -0.1645
 1061loPI    C316635  17.523   2.746   4.463  0.0845 -0.0419 -0.1252
 1061loPI   PO416636  17.190   3.184   4.791  0.1054  0.0797 -0.1954
 1061loPI   GL116637  17.033   3.369   5.200  0.0197 -0.2565  0.1117
 1061loPI   GL216638  17.317   3.483   5.200 -0.1411  0.2830  0.1689
 1061loPI   C1A16639  16.822   3.426   5.610  0.1249  0.0025 -0.1888
 1061loPI   C2A16640  16.913   3.269   6.023  0.2690  0.1419 -0.1215
 1061loPI   C3A16641  17.157   3.055   6.358 -0.3009  0.2794 -0.1314
 1061loPI   C4A16642  17.288   3.021   6.671  0.0269  0.0574 -0.2000
 1061loPI   C5A16643  17.639   3.230   6.953  0.0030  0.1858 -0.1061
 1061loPI   C6A16644  17.910   3.496   7.099 -0.0287 -0.1357  0.2145
 1061loPI   C1B16645  17.305   3.308   5.681 -0.2376  0.0705 -0.2187
 1061loPI   C2B16646  17.177   2.912   5.763  0.0278 -0.0001 -0.3912
 1061loPI   C3B16647  17.347   2.653   6.016  0.0880  0.1456  0.0682
 1061loPI   C4B16648  17.210   2.557   6.381  0.2449  0.1037 -0.1976
 1062loPI    C116649  11.290   8.063   4.545 -0.2393 -0.0984 -0.1220
 1062loPI    C216650  11.673   7.953   4.581 -0.1482  0.2136 -0.1040
 1062loPI    C316651  11.470   7.867   4.247 -0.0574  0.0656 -0.1220
 1062loPI   PO416652  11.195   7.936   4.818  0.0337 -0.2091 -0.0250
 1062loPI   GL116653  11.174   8.031   5.191  0.2194 -0.1366  0.4733
 1062loPI   GL216654  11.229   7.823   5.403 -0.2995  0.0209 -0.1697
 1062loPI   C1A16655  11.218   8.298   5.534 -0.0379 -0.0062  0.0020
 1062loPI   C2A16656  11.166   8.529   5.969 -0.1203 -0.1888  0.4197
 1062loPI   C3A16657  11.297   8.606   6.266 -0.0489 -0.0009 -0.2156
 1062loPI   C4A16658  11.447   8.666   6.659  0.0958  0.0822  0.2145
 1062loPI   C5A16659  11.369   8.896   7.056 -0.0137 -0.0866 -0.1799
 1062loPI   C6A16660  11.127   9.207   7.206  0.1023  0.2705  0.2779
 1062loPI   C1B16661  11.348   7.877   5.782 -0.1078  0.0078 -0.0612
 1062loPI   C2B16662  11.440   7.774   6.172 -0.1312 -0.0467  0.2990
 1062loPI   C3B16663  11.550   7.713   6.580  0.0185 -0.0094  0.1674
 1062loPI   C4B16664  11.472   7.454   7.017 -0.3386  0.3269 -0.1689
 1063loPI    C116665  14.093   0.372   4.841 -0.2744  0.0884 -0.1782
 1063loPI    C216666  13.907   0.418   4.489 -0.1153  0.0366 -0.2700
 1063loPI    C316667  14.307   0.430   4.507 -0.1173 -0.0977 -0.1114
 1063loPI   PO416668  13.901   0.433   4.992  0.1483  0.1782 -0.0107
 1063loPI   GL116669  13.923   0.319   5.376  0.1919 -0.3115  0.1633
 1063loPI   GL216670  13.534   0.202   5.375 -0.0548  0.0045  0.1252
 1063loPI   C1A16671  13.971   0.685   5.715  0.0673 -0.3187 -0.0095
 1063loPI   C2A16672  13.862   0.940   6.079 -0.0271  0.2021  0.0296
 1063loPI   C3A16673  13.880   1.223   6.438  0.1650 -0.2168  0.1976
 1063loPI   C4A16674  13.566   1.577   6.467  0.0041 -0.0515 -0.2552
 1063loPI   C5A16675  13.328   1.983   6.781 -0.4804  0.1838  0.1834
 1063loPI   C6A16676  12.929   2.214   6.602  0.0712 -0.1455  0.0736
 1063loPI   C1B16677  13.697   0.141   5.802 -0.2931 -0.0104 -0.0228
 1063loPI   C2B16678  13.800   0.282   6.161  0.0908  0.0216 -0.1414
 1063loPI   C3B16679  13.963   0.354   6.609 -0.0218 -0.1273 -0.1799
 1063loPI   C4B16680  14.009   0.320   7.120 -0.1967 -0.0182 -0.0423
 1064loPI    C116681  10.822   2.665   4.737 -0.0332  0.0862  0.1230
 1064loPI    C216682  10.634   2.473   4.441 -0.1654  0.0851  0.2066
 1064loPI    C316683  10.964   2.686   4.364 -0.0829 -0.0812  0.0937
 1064loPI   PO416684  10.722   2.571   4.938  0.0707 -0.0904  0.0843
 1064loPI   GL116685  10.830   2.686   5.346 -0.0550  0.0158 -0.4134
 1064loPI   GL216686  10.891   2.371   5.413 -0.0456  0.0416  0.3872
 1064loPI   C1A16687  10.618   2.960   5.607 -0.0067  0.1837  0.1706
 1064loPI   C2A16688  10.389   3.025   5.996 -0.0012  0.2020 -0.1463
 1064loPI   C3A16689  10.287   3.112   6.369  0.0717  0.1115 -0.2740
 1064loPI   C4A16690   9.935   3.184   6.673  0.1843  0.3125  0.0443
 1064loPI   C5A16691   9.629   3.531   6.953 -0.1734  0.0777  0.0881
 1064loPI   C6A16692   9.575   3.954   6.814 -0.0162 -0.1255  0.3459
 1064loPI   C1B16693  10.700   2.465   5.764  0.0952  0.1701 -0.0708
 1064loPI   C2B16694  10.482   2.441   6.160  0.3416  0.0640 -0.0621
 1064loPI   C3B16695  10.368   2.520   6.621 -0.3309  0.1856  0.0350
 1064loPI   C4B16696  10.178   2.291   6.969  0.1521 -0.2623 -0.2219
 1065loPI    C116697   3.148   3.737   4.953 -0.0102  0.3217  0.0355
 1065loPI    C216698   2.904   3.891   5.230  0.0324  0.2211  0.1294
 1065loPI    C316699   2.788   3.879   4.847 -0.1730  0.0363  0.1954
 1065loPI   PO416700   3.391   3.917   4.992  0.3573  0.1275 -0.5125
 1065loPI   GL116701   3.649   3.997   5.269  0.0222  0.0658 -0.0685
 1065loPI   GL216702   3.858   4.273   5.254 -0.0093 -0.1824 -0.0046
 1065loPI   C1A16703   3.733   3.966   5.657 -0.0694  0.2728  0.0589
 1065loPI   C2A16704   3.872   4.126   6.017 -0.1345  0.0875 -0.1888
 1065loPI   C3A16705   3.867   4.121   6.467 -0.2806 -0.0457  0.2236
 1065loPI   C4A16706   4.230   4.201   6.755 -0.1062  0.2878 -0.1828
 1065loPI   C5A16707   4.386   4.498   7.066  0.1397  0.0926 -0.4113
 1065loPI   C6A16708   4.384   4.866   7.296 -0.2112  0.1685  0.0400
 1065loPI   C1B16709   4.089   4.260   5.537  0.2778  0.3528  0.1413
 1065loPI   C2B16710   4.198   3.792   5.779  0.1099 -0.1637 -0.0946
 1065loPI   C3B16711   4.099   3.657   6.254  0.0103 -0.1409  0.4456
 1065loPI   C4B16712   4.146   3.706   6.714  0.2898 -0.1492  0.0371
 1066loPI    C116713  17.258   0.362   4.391 -0.2307  0.2487 -0.1214
 1066loPI    C216714  17.003   0.093   4.239 -0.0831 -0.0004  0.0654
 1066loPI    C316715  17.274   0.268   4.002 -0.2482  0.0638 -0.0782
 1066loPI   PO416716  17.154   0.408   4.686  0.2063 -0.1296  0.0020
 1066loPI   GL116717  17.099   0.679   4.957 -0.0533  0.0150  0.1944
 1066loPI   GL216718  17.454   0.708   4.988 -0.1827 -0.1650  0.1769
 1066loPI   C1A16719  17.085   1.010   5.296 -0.0895 -0.1000 -0.1154
 1066loPI   C2A16720  17.081   1.167   5.766  0.1680  0.2879  0.0293
 1066loPI   C3A16721  17.207   1.112   6.208  0.0415  0.1041 -0.3317
 1066loPI   C4A16722  17.500   1.298   6.503 -0.0577 -0.2435 -0.1406
 1066loPI   C5A16723  17.563   1.310   7.001 -0.3830  0.1475  0.1959
 1066loPI   C6A16724  17.729   1.104   7.331  0.1626  0.0147  0.1321
 1066loPI   C1B16725  17.362   0.532   5.371  0.0095  0.2794  0.0537
 1066loPI   C2B16726  17.078   0.582   5.614  0.0949 -0.1622  0.0627
 1066loPI   C3B16727  17.025   0.654   6.012  0.2141 -0.0254  0.1952
 1066loPI   C4B16728  16.865   0.812   6.413  0.1178 -0.3673 -0.0252
 1067loPI    C116729   5.507   2.335   4.854  0.1880  0.1503 -0.1829
 1067loPI    C216730   5.737   2.016   4.782 -0.1811 -0.1446 -0.0900
 1067loPI    C316731   5.586   2.226   4.478  0.2716  0.1048 -0.1526
 1067loPI   PO416732   5.677   2.488   5.006  0.2343 -0.1604  0.2251
 1067loPI   GL116733   5.784   2.506   5.494 -0.3003 -0.0870  0.0082
 1067loPI   GL216734   5.932   2.725   5.519 -0.0715 -0.1976  0.1315
 1067loPI   C1A16735   5.620   2.360   5.833 -0.4013 -0.1392 -0.0185
 1067loPI   C2A16736   5.596   2.253   6.298 -0.1641 -0.0462 -0.0800
 1067loPI   C3A16737   5.539   2.047   6.616 -0.2024 -0.2597 -0.5073
 1067loPI   C4A16738   5.689   1.920   7.026 -0.1775 -0.1942  0.2105
 1067loPI   C5A16739   5.735   2.149   7.522 -0.1076 -0.1512  0.1749
 1067loPI   C6A16740   6.065   2.426   7.536  0.0883 -0.0284  0.0702
 1067loPI   C1B16741   5.828   2.878   5.879 -0.3270  0.0282 -0.3605
 1067loPI   C2B16742   5.684   2.761   6.268 -0.2000  0.2891 -0.3114
 1067loPI   C3B16743   5.580   2.631   6.691 -0.3396 -0.2017  0.2861
 1067loPI   C4B16744   5.679   2.459   7.120  0.1688  0.3461  0.3699
 1068loPI    C116745   3.022   5.947   4.835 -0.2971  0.2200 -0.0940
 1068loPI    C216746   3.199   5.994   5.191 -0.1304 -0.4489 -0.0754
 1068loPI    C316747   3.384   6.117   4.858 -0.1861 -0.0301  0.0421
 1068loPI   PO416748   2.897   5.756   4.910 -0.0611 -0.0740 -0.2172
 1068loPI   GL116749   2.781   5.644   5.342  0.0092  0.0684 -0.0574
 1068loPI   GL216750   3.073   5.439   5.296  0.0001 -0.0724  0.2267
 1068loPI   C1A16751   2.773   5.733   5.732 -0.1757  0.3323  0.0709
 1068loPI   C2A16752   2.791   6.030   6.086 -0.1216 -0.1601 -0.1400
 1068loPI   C3A16753   3.048   6.347   6.435  0.2229 -0.0941  0.1056
 1068loPI   C4A16754   3.166   6.425   6.934 -0.0096 -0.0313  0.0679
 1068loPI   C5A16755   3.095   6.341   7.335  0.1194  0.1061 -0.0929
 1068loPI   C6A16756   2.768   6.402   7.635 -0.0610 -0.0510 -0.0455
 1068loPI   C1B16757   2.962   5.212   5.623 -0.2051 -0.0158  0.0399
 1068loPI   C2B16758   2.778   5.098   5.945  0.1674 -0.1598  0.0401
 1068loPI   C3B16759   2.751   5.061   6.418  0.1655  0.0138 -0.0199
 1068loPI   C4B16760   2.738   5.230   6.821  0.1760  0.0801 -0.0271
 1069loPI    C116761  18.632  11.912   4.407  0.0458 -0.1090  0.0800
 1069loPI    C216762  18.988  11.854   4.233  0.0289  0.1654 -0.0515
 1069loPI    C316763  18.651  11.798   4.024 -0.0017  0.0925  0.0165
 1069loPI   PO416764  18.613  11.834   4.609 -0.1938  0.4912 -0.0252
 1069loPI   GL116765  18.247  11.702   4.974 -0.1462 -0.0298  0.1876
 1069loPI   GL216766  18.300  11.926   5.227  0.1332  0.0835 -0.0259
 1069loPI   C1A16767  18.648  11.596   5.330  0.0023  0.0260 -0.0399
 1069loPI   C2A16768  18.671  11.633   5.738 -0.0618 -0.0011  0.2077
 1069loPI   C3A16769  18.409  11.423   5.971  0.0588 -0.0392  0.0721
 1069loPI   C4A16770  18.301  11.588   6.341  0.2226  0.0276 -0.0156
 1069loPI   C5A16771  18.457  11.864   6.533 -0.0099 -0.1366  0.1156
 1069loPI   C6A16772  18.758  12.033   6.765  0.1745 -0.1680  0.1474
 1069loPI   C1B16773  18.225  11.674   5.554 -0.2785 -0.0045  0.2031
 1069loPI   C2B16774  17.933  11.497   5.898 -0.0942  0.1357 -0.4103
 1069loPI   C3B16775  17.794  11.661   6.319 -0.0845  0.0406  0.1732
 1069loPI   C4B16776  17.670  11.666   6.796 -0.0033  0.1806  0.3334
 1070loPI    C116777   5.177   5.549   4.467 -0.1986  0.2069 -0.0730
 1070loPI    C216778   5.290   5.912   4.342 -0.0676  0.1484 -0.1269
 1070loPI    C316779   5.365   5.590   4.117  0.0865  0.0526  0.0583
 1070loPI   PO416780   5.281   5.692   4.795  0.1143 -0.1966 -0.1414
 1070loPI   GL116781   5.216   5.494   5.187  0.0380 -0.0207 -0.2063
 1070loPI   GL216782   5.189   5.263   5.430 -0.2918  0.1951 -0.2872
 1070loPI   C1A16783   5.458   5.614   5.633  0.0911 -0.1886  0.0414
 1070loPI   C2A16784   5.187   5.748   6.037 -0.0487  0.2924 -0.0520
 1070loPI   C3A16785   5.132   5.656   6.517  0.0569  0.0149 -0.1571
 1070loPI   C4A16786   5.212   5.467   6.940  0.1604  0.0865  0.2806
 1070loPI   C5A16787   5.266   5.438   7.368 -0.1905 -0.1075 -0.0258
 1070loPI   C6A16788   5.083   5.264   7.805  0.1939 -0.1484 -0.1505
 1070loPI   C1B16789   4.884   5.329   5.780  0.0933 -0.0330 -0.1085
 1070loPI   C2B16790   4.845   5.367   6.238  0.2013 -0.1161  0.5942
 1070loPI   C3B16791   4.786   5.316   6.561  0.1387 -0.4965  0.0787
 1070loPI   C4B16792   4.603   5.050   6.820  0.0195  0.1974 -0.2999
 1071loPI    C116793   4.860   1.746   4.766  0.0601 -0.0459  0.1328
 1071loPI    C216794   4.580   1.577   4.536  0.0920 -0.1520  0.1712
 1071loPI    C316795   4.920   1.710   4.372 -0.0665  0.1648  0.0930
 1071loPI   PO416796   4.828   1.638   4.955  0.2736  0.1224 -0.2278
 1071loPI   GL116797   4.691   1.464   5.331 -0.1818 -0.1442 -0.0149
 1071loPI   GL216798   4.554   1.023   5.358  0.0475 -0.0915  0.2311
 1071loPI   C1A16799   4.677   1.686   5.704 -0.1365  0.1004 -0.2662
 1071loPI   C2A16800   4.639   1.791   6.227  0.0365  0.5210  0.0402
 1071loPI   C3A16801   4.458   1.949   6.600 -0.3242  0.0283 -0.0890
 1071loPI   C4A16802   4.274   1.726   6.982 -0.1387 -0.1954  0.1050
 1071loPI   C5A16803   4.370   1.325   7.040 -0.0311 -0.0989 -0.3451
 1071loPI   C6A16804   4.354   1.051   7.413 -0.1008  0.0230 -0.1138
 1071loPI   C1B16805   4.595   1.138   5.698  0.0246 -0.0314  0.0563
 1071loPI   C2B16806   4.648   1.182   6.244 -0.0409 -0.1682  0.2135
 1071loPI   C3B16807   4.812   0.987   6.520 -0.2674 -0.3444  0.1082
 1071loPI   C4B16808   4.941   0.631   6.804  0.0364  0.2389  0.0993
 1072loPI    C116809   2.171   6.067   4.946 -0.1217  0.3360 -0.0487
 1072loPI    C216810   2.526   6.086   4.763 -0.1445  0.1828 -0.1101
 1072loPI    C316811   2.197   6.000   4.552 -0.1573 -0.0921  0.0169
 1072loPI   PO416812   2.213   5.897   5.189 -0.1208  0.0351  0.0701
 1072loPI   GL116813   2.256   5.588   5.553  0.0757 -0.1023 -0.2918
 1072loPI   GL216814   2.425   5.282   5.574 -0.0912  0.1940 -0.0431
 1072loPI   C1A16815   2.278   5.842   5.974  0.0984 -0.0690 -0.1933
 1072loPI   C2A16816   2.231   6.170   6.429 -0.0853 -0.0954  0.3893
 1072loPI   C3A16817   2.554   6.169   6.703 -0.1940 -0.0363 -0.0023
 1072loPI   C4A16818   2.907   5.914   6.724  0.0907  0.2946 -0.0083
 1072loPI   C5A16819   2.989   5.595   6.571 -0.1338  0.0232  0.1648
 1072loPI   C6A16820   2.960   5.528   6.161 -0.1042 -0.2254  0.1317
 1072loPI   C1B16821   2.402   5.342   6.082  0.2708  0.1236  0.3259
 1072loPI   C2B16822   2.482   5.527   6.518  0.0999  0.0465 -0.0469
 1072loPI   C3B16823   2.512   5.702   6.983 -0.1979 -0.1649  0.3257
 1072loPI   C4B16824   2.625   6.116   7.220  0.2766  0.0385  0.1607
 1073loPI    C116825  17.850  11.021   4.293  0.0697  0.0424  0.0882
 1073loPI    C216826  17.993  11.286   4.030  0.0177 -0.0365 -0.0203
 1073loPI    C316827  17.613  11.164   4.004  0.0901 -0.2538 -0.0792
 1073loPI   PO416828  17.941  11.053   4.450  0.2294  0.2422 -0.0150
 1073loPI   GL116829  17.841  11.065   4.866  0.1487 -0.1878 -0.1731
 1073loPI   GL216830  17.857  11.413   4.948  0.3553  0.1409 -0.2648
 1073loPI   C1A16831  18.017  10.742   5.112 -0.3033 -0.1753 -0.0509
 1073loPI   C2A16832  17.945  10.672   5.511  0.1014  0.0132 -0.2839
 1073loPI   C3A16833  17.919  10.636   5.996  0.1771 -0.2515  0.0387
 1073loPI   C4A16834  17.812  10.760   6.396 -0.2134  0.0915 -0.2564
 1073loPI   C5A16835  17.583  10.781   6.907  0.2517 -0.0194 -0.1525
 1073loPI   C6A16836  17.279  10.412   6.911  0.2596  0.1386  0.1542
 1073loPI   C1B16837  17.823  11.626   5.343 -0.0638  0.0928  0.6311
 1073loPI   C2B16838  17.500  11.672   5.718 -0.0996  0.1925  0.1149
 1073loPI   C3B16839  17.384  11.515   6.064  0.2170  0.1076  0.0145
 1073loPI   C4B16840  17.291  11.546   6.501 -0.0769 -0.0251 -0.0840
 1074loPI    C116841  15.294   7.696   4.530 -0.0054  0.1394  0.0977
 1074loPI    C216842  15.070   7.366   4.556 -0.0305  0.1600  0.1463
 1074loPI    C316843  14.998   7.634   4.268  0.3720 -0.1640 -0.2721
 1074loPI   PO416844  15.459   7.681   4.773  0.0641  0.0436 -0.0930
 1074loPI   GL116845  15.721   7.728   5.118  0.2105 -0.1151 -0.0751
 1074loPI   GL216846  15.672   7.491   5.333 -0.1019 -0.0125 -0.0558
 1074loPI   C1A16847  15.674   8.096   5.531 -0.1272  0.4269 -0.0129
 1074loPI   C2A16848  15.976   8.128   5.823 -0.1577 -0.0006  0.0375
 1074loPI   C3A16849  16.112   8.069   6.190 -0.0225 -0.0548  0.2305
 1074loPI   C4A16850  16.303   7.781   6.398  0.0199 -0.1497 -0.3727
 1074loPI   C5A16851  16.357   7.487   6.730  0.0470 -0.0884  0.0685
 1074loPI   C6A16852  16.648   7.537   7.024  0.1447 -0.0700  0.2826
 1074loPI   C1B16853  15.543   7.426   5.674  0.3818  0.0571 -0.1703
 1074loPI   C2B16854  15.397   7.249   6.114 -0.2851  0.4625  0.4000
 1074loPI   C3B16855  15.447   7.271   6.534 -0.0769  0.2348 -0.4766
 1074loPI   C4B16856  15.524   7.057   7.002 -0.0380  0.3340  0.0986
 1075loPI    C116857  16.452  16.584   4.850  0.1183 -0.0051  0.0183
 1075loPI    C216858  16.242  16.723   5.160  0.0120 -0.1750  0.0238
 1075loPI    C316859  16.192  16.345   5.039  0.1785 -0.1604 -0.0926
 1075loPI   PO416860  16.761  16.587   4.909 -0.2383 -0.2921  0.0218
 1075loPI   GL116861  16.925  16.583   5.342 -0.0194  0.0568 -0.0964
 1075loPI   GL216862  16.577  16.344   5.355 -0.3691 -0.2618  0.0472
 1075loPI   C1A16863  17.012  16.609   5.758 -0.0624 -0.1574  0.1110
 1075loPI   C2A16864  17.018  16.781   6.060  0.0384  0.0109  0.3398
 1075loPI   C3A16865  16.976  16.930   6.480  0.0776  0.2029 -0.1385
 1075loPI   C4A16866  17.174  16.918   6.922  0.3606 -0.0580 -0.0960
 1075loPI   C5A16867  17.536  17.105   7.058 -0.2347 -0.1008 -0.1266
 1075loPI   C6A16868  17.823  17.126   7.358 -0.0410 -0.0284  0.0789
 1075loPI   C1B16869  16.564  16.375   5.790 -0.0711 -0.0627 -0.2048
 1075loPI   C2B16870  16.300  16.404   6.171 -0.6025 -0.1957  0.3318
 1075loPI   C3B16871  16.197  16.072   6.486  0.0801  0.1757 -0.0007
 1075loPI   C4B16872  16.234  15.662   6.450  0.2243  0.1590 -0.0958
 1076loPI    C116873  13.749   9.536   4.760  0.1005 -0.0045 -0.0243
 1076loPI    C216874  13.929   9.720   4.454 -0.0456  0.1521 -0.0177
 1076loPI    C316875  13.734   9.377   4.393 -0.0417  0.1630 -0.0926
 1076loPI   PO416876  13.933   9.604   4.946 -0.0610 -0.0587 -0.2007
 1076loPI   GL116877  14.165   9.752   5.324 -0.0120 -0.1105 -0.2513
 1076loPI   GL216878  14.204  10.018   5.219 -0.1683 -0.0182  0.1143
 1076loPI   C1A16879  14.199   9.779   5.779 -0.0504 -0.0872 -0.1855
 1076loPI   C2A16880  14.074   9.952   6.114  0.0396 -0.1881 -0.1575
 1076loPI   C3A16881  13.996  10.139   6.536 -0.1174 -0.1933 -0.1525
 1076loPI   C4A16882  13.892  10.540   6.798  0.0859 -0.2411 -0.1267
 1076loPI   C5A16883  13.634  10.803   6.952 -0.2930  0.2984  0.1726
 1076loPI   C6A16884  13.675  11.281   6.940 -0.1881 -0.0117 -0.0887
 1076loPI   C1B16885  13.829  10.026   5.574  0.1069  0.1989  0.5080
 1076loPI   C2B16886  13.751  10.303   6.022 -0.0809 -0.0357 -0.2990
 1076loPI   C3B16887  13.493  10.559   6.329  0.0070  0.0018 -0.0387
 1076loPI   C4B16888  13.428  11.018   6.509 -0.4611  0.0445  0.3181
 1077loPI    C116889  18.961   1.580   4.787 -0.0718  0.0876 -0.0229
 1077loPI    C216890  18.716   1.297   4.648  0.0317  0.0156 -0.0599
 1077loPI    C316891  18.701   1.667   4.496  0.0774 -0.0377 -0.1956
 1077loPI   PO416892  18.992   1.635   4.985 -0.0105 -0.0571  0.1256
 1077loPI   GL116893  19.051   1.447   5.445  0.2164 -0.0337 -0.4691
 1077loPI   GL216894  18.696   1.523   5.721 -0.2215  0.1256 -0.3748
 1077loPI   C1A16895  19.166   1.385   5.890  0.0701 -0.1690  0.0628
 1077loPI   C2A16896  19.202   1.246   6.267  0.3300 -0.0394 -0.2137
 1077loPI   C3A16897  19.214   1.294   6.697 -0.1284  0.1428 -0.0358
 1077loPI   C4A16898  19.142   1.340   7.105  0.0780  0.0011 -0.1625
 1077loPI   C5A16899  18.850   1.243   7.538  0.4689 -0.2139 -0.2860
 1077loPI   C6A16900  18.787   1.655   7.820 -0.1611  0.0456  0.0159
 1077loPI   C1B16901  18.788   1.546   6.145 -0.1440 -0.3139  0.0670
 1077loPI   C2B16902  18.771   1.569   6.653  0.1297 -0.2703 -0.4116
 1077loPI   C3B16903  18.663   1.455   7.075 -0.0788 -0.0225  0.0223
 1077loPI   C4B16904  18.469   1.527   7.462  0.0315  0.0966  0.2411
 1078loPI    C116905   6.069   0.045   4.557  0.0984 -0.1483  0.0022
 1078loPI    C216906   5.903  -0.239   4.329  0.3127 -0.2689 -0.0065
 1078loPI    C316907   5.972   0.125   4.177 -0.3164 -0.0854  0.1161
 1078loPI   PO416908   6.262  -0.152   4.778  0.2550 -0.2712  0.1310
 1078loPI   GL116909   6.053  -0.112   5.228  0.0127  0.0904  0.0466
 1078loPI   GL216910   5.983  -0.488   5.195  0.1604 -0.0807 -0.0667
 1078loPI   C1A16911   6.269   0.032   5.588 -0.4347 -0.3305 -0.1476
 1078loPI   C2A16912   6.403  -0.102   6.102 -0.1246  0.3614  0.2192
 1078loPI   C3A16913   6.312  -0.115   6.598  0.1034  0.1408  0.4004
 1078loPI   C4A16914   6.395  -0.197   7.018  0.2339 -0.3485  0.0309
 1078loPI   C5A16915   6.663  -0.432   7.294 -0.3549 -0.3530  0.3718
 1078loPI   C6A16916   7.057  -0.259   7.534  0.0668 -0.0660 -0.4547
 1078loPI   C1B16917   6.210  -0.448   5.590  0.1064  0.0789  0.0819
 1078loPI   C2B16918   6.129  -0.486   5.914 -0.0488  0.2334  0.0169
 1078loPI   C3B16919   6.268  -0.579   6.351  0.0077  0.0328 -0.0664
 1078loPI   C4B16920   6.419  -0.688   6.799  0.1307  0.1265  0.0349
 1079loPI    C116921  13.314   2.911   4.378 -0.0032 -0.1467 -0.2916
 1079loPI    C216922  13.052   3.210   4.420  0.0102 -0.1706 -0.0193
 1079loPI    C316923  13.412   3.281   4.261  0.1166  0.0178  0.2979
 1079loPI   PO416924  13.347   2.757   4.650  0.0375  0.4460  0.2782
 1079loPI   GL116925  13.128   2.583   5.051  0.0513 -0.1719 -0.1904
 1079loPI   GL216926  13.283   2.910   5.193  0.2538 -0.2312 -0.1046
 1079loPI   C1A16927  13.558   2.451   5.284  0.2457  0.1175 -0.0468
 1079loPI   C2A16928  13.839   2.497   5.587 -0.0825 -0.1993  0.0243
 1079loPI   C3A16929  13.992   2.625   5.997  0.0724 -0.0617 -0.1197
 1079loPI   C4A16930  13.963   2.502   6.482 -0.0381  0.1409 -0.1066
 1079loPI   C5A16931  13.640   2.520   6.718  0.2571 -0.1905  0.0944
 1079loPI   C6A16932  13.203   2.456   6.921  0.1126  0.0530  0.0331
 1079loPI   C1B16933  13.118   3.079   5.605 -0.0653  0.1863  0.1376
 1079loPI   C2B16934  12.992   3.261   6.015 -0.1827 -0.0583 -0.3292
 1079loPI   C3B16935  12.898   3.133   6.447  0.1065  0.0553 -0.0193
 1079loPI   C4B16936  12.545   3.082   6.829  0.1816  0.0021  0.0724
 1080loPI    C116937   9.863   7.940   4.454 -0.1957  0.0422 -0.0306
 1080loPI    C216938   9.903   8.142   4.111  0.0791  0.1814  0.0800
 1080loPI    C316939  10.006   7.756   4.129 -0.0979  0.1277 -0.0367
 1080loPI   PO416940   9.866   8.179   4.623  0.3091  0.0564 -0.0753
 1080loPI   GL116941   9.984   8.247   5.063  0.3055 -0.1978 -0.1970
 1080loPI   GL216942   9.733   8.079   5.102  0.4257  0.0673  0.0438
 1080loPI   C1A16943  10.104   8.326   5.462  0.0334  0.0405  0.2240
 1080loPI   C2A16944  10.165   8.581   5.852  0.3889  0.0880 -0.4769
 1080loPI   C3A16945  10.150   8.552   6.226 -0.1579 -0.0442  0.0669
 1080loPI   C4A16946  10.247   8.537   6.591  0.2488 -0.0583 -0.0874
 1080loPI   C5A16947  10.531   8.708   6.826  0.1719 -0.0309  0.0662
 1080loPI   C6A16948  10.962   8.726   6.726 -0.1162 -0.1791 -0.3890
 1080loPI   C1B16949   9.644   8.155   5.523  0.2013  0.0003 -0.2073
 1080loPI   C2B16950   9.668   8.019   5.872 -0.0691  0.0962  0.2769
 1080loPI   C3B16951   9.593   7.711   6.163  0.2960 -0.0051 -0.2359
 1080loPI   C4B16952   9.473   7.487   6.558 -0.0709 -0.3035  0.1773
 1081loPI    C116953   3.347   5.513   4.826  0.0928 -0.0720 -0.0556
 1081loPI    C216954   3.058   5.238   4.793 -0.0379  0.0119  0.3364
 1081loPI    C316955   3.368   5.233   4.541 -0.3363 -0.1295 -0.0383
 1081loPI   PO416956   3.519   5.577   5.091 -0.4050 -0.0188  0.0701
 1081loPI   GL116957   3.683   5.863   5.468 -0.0655 -0.3879 -0.1275
 1081loPI   GL216958   3.564   6.284   5.346  0.0941  0.0384  0.1604
 1081loPI   C1A16959   3.635   5.933   5.870  0.0318  0.0339  0.1920
 1081loPI   C2A16960   3.725   6.027   6.254 -0.1094 -0.3345  0.2135
 1081loPI   C3A16961   3.546   6.062   6.634  0.0866 -0.2650 -0.2466
 1081loPI   C4A16962   3.379   5.754   6.860  0.1858  0.2027  0.0159
 1081loPI   C5A16963   2.974   5.724   7.155 -0.0669  0.2235  0.1528
 1081loPI   C6A16964   2.674   5.698   7.454  0.0160  0.3130 -0.3997
 1081loPI   C1B16965   3.495   6.427   5.638 -0.1009 -0.0522 -0.1874
 1081loPI   C2B16966   3.460   6.437   6.163  0.1304  0.2789 -0.1371
 1081loPI   C3B16967   3.566   6.568   6.564  0.0711  0.1323  0.3354
 1081loPI   C4B16968   3.822   6.764   6.995 -0.5051  0.1164  0.0247
 1082loPI    C116969   6.408  14.807   4.169  0.1275  0.0479  0.2535
 1082loPI    C216970   6.399  15.206   4.187  0.0004  0.0749 -0.2503
 1082loPI    C316971   6.710  15.021   4.017  0.0056 -0.0379 -0.1200
 1082loPI   PO416972   6.359  14.692   4.285  0.1830  0.0369  0.1907
 1082loPI   GL116973   6.391  14.623   4.871  0.1284 -0.1094  0.0544
 1082loPI   GL216974   6.519  14.837   5.131  0.1837  0.1208 -0.2213
 1082loPI   C1A16975   6.058  14.468   5.187 -0.0532  0.0890  0.0027
 1082loPI   C2A16976   5.974  14.524   5.631  0.1289  0.0082  0.3527
 1082loPI   C3A16977   5.892  14.203   5.980 -0.1922 -0.0308  0.0155
 1082loPI   C4A16978   5.843  13.943   6.314 -0.0107  0.1445 -0.0945
 1082loPI   C5A16979   5.729  13.928   6.795 -0.3088 -0.0220  0.1789
 1082loPI   C6A16980   5.597  13.811   7.155  0.0511  0.0419  0.3528
 1082loPI   C1B16981   6.705  15.228   5.503 -0.2842 -0.0103 -0.0111
 1082loPI   C2B16982   6.879  15.523   5.804  0.3521 -0.1009 -0.0135
 1082loPI   C3B16983   6.985  15.712   6.148 -0.1907 -0.1355 -0.0187
 1082loPI   C4B16984   7.045  15.621   6.499 -0.2755 -0.1069 -0.1252
 1083loPI    C116985  13.085  12.987   4.334 -0.0205 -0.1480 -0.1167
 1083loPI    C216986  13.450  13.145   4.378 -0.0547 -0.1412  0.1594
 1083loPI    C316987  13.359  12.943   4.046  0.1028  0.1155 -0.0439
 1083loPI   PO416988  13.028  13.009   4.589  0.1562  0.4045 -0.0096
 1083loPI   GL116989  13.374  12.973   4.936 -0.1674 -0.5824  0.1416
 1083loPI   GL216990  13.282  12.732   5.074  0.1673  0.3189 -0.0983
 1083loPI   C1A16991  13.456  13.296   5.132 -0.1954 -0.0961  0.3156
 1083loPI   C2A16992  13.471  13.562   5.484  0.1617  0.0748 -0.2098
 1083loPI   C3A16993  13.762  13.555   5.759  0.1789  0.3621  0.0766
 1083loPI   C4A16994  13.695  13.459   6.258  0.0030  0.0823  0.0063
 1083loPI   C5A16995  13.545  13.219   6.593 -0.0642  0.0878  0.1097
 1083loPI   C6A16996  13.424  13.112   7.033 -0.0119 -0.1987 -0.4861
 1083loPI   C1B16997  13.183  12.972   5.418 -0.1369 -0.0481  0.0857
 1083loPI   C2B16998  13.010  13.321   5.625 -0.1104 -0.1439  0.1711
 1083loPI   C3B16999  12.751  13.387   6.020 -0.1438  0.2292  0.0313
 1083loPI   C4B17000  12.624  13.533   6.363  0.1023  0.0021 -0.2662
 1084loPI    C117001   3.465  16.805   4.454 -0.0382  0.2483  0.3099
 1084loPI    C217002   3.568  17.141   4.262  0.1591 -0.0460 -0.1144
 1084loPI    C317003   3.186  17.023   4.268  0.0983  0.1519 -0.0147
 1084loPI   PO417004   3.539  16.927   4.729 -0.1834  0.0712 -0.1007
 1084loPI   GL117005   3.434  16.966   5.069  0.1914  0.1100 -0.0216
 1084loPI   GL217006   3.560  16.771   5.322  0.1345 -0.0172 -0.0317
 1084loPI   C1A17007   3.346  17.244   5.347 -0.3555  0.5557  0.0500
 1084loPI   C2A17008   3.241  17.283   5.844  0.1282  0.1520  0.2873
 1084loPI   C3A17009   3.164  17.447   6.301 -0.3175  0.1072  0.1798
 1084loPI   C4A17010   3.225  17.575   6.723 -0.3384 -0.0880  0.0912
 1084loPI   C5A17011   3.190  17.826   7.012 -0.0820  0.0667 -0.0581
 1084loPI   C6A17012   3.256  17.973   7.329 -0.0652 -0.1784 -0.1537
 1084loPI   C1B17013   3.523  16.480   5.672  0.2564 -0.0926 -0.1497
 1084loPI   C2B17014   3.614  16.497   6.128 -0.3231 -0.2414 -0.0172
 1084loPI   C3B17015   3.788  16.335   6.485  0.2511  0.1708 -0.0404
 1084loPI   C4B17016   4.150  16.297   6.803 -0.0905  0.2005 -0.2239
 1085loPI    C117017   0.928   1.820   4.550 -0.0101 -0.1839 -0.0340
 1085loPI    C217018   0.934   1.451   4.395 -0.1509 -0.1812 -0.0477
 1085loPI    C317019   1.008   1.768   4.162  0.2721 -0.2191  0.0270
 1085loPI   PO417020   0.993   1.703   4.821 -0.1847 -0.2809  0.1481
 1085loPI   GL117021   0.926   1.735   5.219 -0.0280  0.0383  0.1269
 1085loPI   GL217022   1.156   1.386   5.309 -0.3785 -0.2987 -0.0338
 1085loPI   C1A17023   1.043   1.743   5.661  0.1620 -0.0052  0.1170
 1085loPI   C2A17024   0.943   1.545   6.121 -0.1265 -0.0146  0.0866
 1085loPI   C3A17025   0.733   1.594   6.543 -0.0754 -0.1341  0.0187
 1085loPI   C4A17026   0.547   1.710   6.907 -0.3594 -0.0160 -0.1756
 1085loPI   C5A17027   0.696   1.589   7.337  0.0372  0.0283 -0.0696
 1085loPI   C6A17028   0.983   1.601   7.612  0.2324  0.1663  0.0925
 1085loPI   C1B17029   1.256   1.287   5.740 -0.0180 -0.0085  0.1139
 1085loPI   C2B17030   1.356   1.378   6.251  0.0958  0.1208 -0.0715
 1085loPI   C3B17031   1.217   1.331   6.646  0.1368  0.0108  0.5593
 1085loPI   C4B17032   1.075   1.294   7.104  0.0083 -0.0237 -0.1984
 1086loPI    C117033  13.877  11.819   4.022 -0.0516 -0.1825 -0.0114
 1086loPI    C217034  13.479  11.849   4.011 -0.0371 -0.0383 -0.2019
 1086loPI    C317035  13.703  12.071   3.764  0.1771  0.1799  0.1784
 1086loPI   PO417036  13.929  11.818   4.309  0.2636  0.0055  0.1855
 1086loPI   GL117037  13.886  11.936   4.684  0.0576 -0.2182 -0.0397
 1086loPI   GL217038  14.115  12.251   4.724 -0.3000  0.0017 -0.2002
 1086loPI   C1A17039  13.862  11.773   5.037 -0.1122 -0.2934 -0.0436
 1086loPI   C2A17040  13.837  11.837   5.520 -0.0879  0.3944 -0.0477
 1086loPI   C3A17041  13.807  11.913   5.938 -0.0787 -0.1090  0.1378
 1086loPI   C4A17042  13.793  11.789   6.392 -0.3160  0.1170  0.3521
 1086loPI   C5A17043  13.944  11.918   6.756  0.1674  0.0627 -0.0419
 1086loPI   C6A17044  14.385  12.014   6.889  0.2938  0.3709 -0.0668
 1086loPI   C1B17045  14.089  12.219   5.134 -0.0181 -0.2475  0.2424
 1086loPI   C2B17046  13.991  12.364   5.516 -0.1983  0.0658 -0.0196
 1086loPI   C3B17047  13.926  12.430   6.045 -0.2541 -0.2318  0.0476
 1086loPI   C4B17048  13.763  12.874   6.195  0.2996 -0.0315 -0.1448
 1087loPI    C117049  15.817  16.070   4.148  0.0111 -0.0283  0.1741
 1087loPI    C217050  15.494  15.888   3.997  0.1312 -0.1185  0.0232
 1087loPI    C317051  15.528  16.286   3.975 -0.0376 -0.0947  0.1726
 1087loPI   PO417052  15.867  15.805   4.394 -0.0737 -0.3329  0.1652
 1087loPI   GL117053  16.079  15.794   4.710  0.2351 -0.1594  0.1042
 1087loPI   GL217054  15.846  15.616   4.919 -0.0102  0.1468  0.1359
 1087loPI   C1A17055  16.299  15.907   5.129  0.1530 -0.0208 -0.2082
 1087loPI   C2A17056  16.292  16.073   5.569  0.1603  0.0949 -0.4085
 1087loPI   C3A17057  16.376  15.922   5.962  0.1271  0.1644 -0.0794
 1087loPI   C4A17058  16.643  16.007   6.313 -0.1611 -0.2691  0.1277
 1087loPI   C5A17059  16.761  15.814   6.723  0.0138 -0.2760 -0.0509
 1087loPI   C6A17060  16.970  15.570   6.890  0.2540  0.0576 -0.0902
 1087loPI   C1B17061  16.010  15.572   5.259 -0.0684  0.4347 -0.0901
 1087loPI   C2B17062  15.928  15.500   5.672 -0.1630 -0.1332  0.4616
 1087loPI   C3B17063  15.893  15.759   6.035  0.2652  0.2862  0.3411
 1087loPI   C4B17064  15.767  15.885   6.517 -0.0503 -0.0832 -0.0988
 1088loPI    C117065   6.212  13.499   4.559 -0.0532 -0.3140  0.2601
 1088loPI    C217066   6.566  13.379   4.414  0.1006  0.3491  0.0532
 1088loPI    C317067   6.259  13.442   4.166 -0.0791  0.0691  0.1985
 1088loPI   PO417068   6.230  13.709   4.683  0.2646  0.2861 -0.1486
 1088loPI   GL117069   6.383  14.102   5.032 -0.2957  0.0906 -0.1218
 1088loPI   GL217070   5.999  14.015   5.089  0.1299  0.1960 -0.2924
 1088loPI   C1A17071   6.503  14.379   5.298 -0.0583 -0.3230  0.1918
 1088loPI   C2A17072   6.511  14.684   5.706  0.0570 -0.2563  0.1252
 1088loPI   C3A17073   6.409  14.527   6.080 -0.0373  0.0488  0.0820
 1088loPI   C4A17074   6.606  14.485   6.513  0.2248 -0.1430  0.0223
 1088loPI   C5A17075   6.904  14.555   6.873 -0.2271 -0.0169 -0.1388
 1088loPI   C6A17076   7.204  14.582   7.168  0.1919 -0.2272 -0.0356
 1088loPI   C1B17077   6.158  14.050   5.507  0.0440 -0.1154 -0.1916
 1088loPI   C2B17078   6.368  14.099   5.908 -0.2066  0.0735  0.0703
 1088loPI   C3B17079   6.360  13.961   6.313 -0.0037 -0.2262  0.0106
 1088loPI   C4B17080   6.179  14.094   6.699  0.1079  0.1345 -0.0366
 1089loPI    C117081   7.181  10.380   4.856 -0.0705 -0.0406  0.1988
 1089loPI    C217082   7.001  10.719   4.970 -0.0061  0.0760 -0.0420
 1089loPI    C317083   7.004  10.614   4.584  0.0509 -0.1549  0.0200
 1089loPI   PO417084   7.068  10.205   5.079 -0.0287 -0.1130  0.0070
 1089loPI   GL117085   7.172   9.969   5.358  0.3623  0.1148  0.1746
 1089loPI   GL217086   7.141   9.679   5.235 -0.2771 -0.0550  0.2002
 1089loPI   C1A17087   7.179  10.149   5.798  0.1238  0.0650 -0.1143
 1089loPI   C2A17088   6.913  10.249   6.202 -0.0719  0.0269  0.0402
 1089loPI   C3A17089   6.796  10.343   6.634  0.0948  0.3545 -0.3273
 1089loPI   C4A17090   7.152  10.456   6.940  0.0744 -0.1062 -0.2789
 1089loPI   C5A17091   7.173  10.599   7.265 -0.0340 -0.1547 -0.2340
 1089loPI   C6A17092   7.200  10.665   7.692  0.0874  0.0268  0.1828
 1089loPI   C1B17093   7.302   9.534   5.648  0.1347  0.3620  0.2640
 1089loPI   C2B17094   7.371   9.500   6.088  0.2197 -0.1425 -0.1059
 1089loPI   C3B17095   7.583   9.633   6.566  0.0052 -0.0501  0.0559
 1089loPI   C4B17096   7.767   9.967   6.728  0.1335  0.1896 -0.0068
 1090loPI    C117097  15.282   5.149   4.754 -0.3904  0.1560  0.5675
 1090loPI    C217098  14.963   5.239   4.529 -0.1045 -0.0504  0.0642
 1090loPI    C317099  15.234   5.521   4.614  0.1029 -0.1067 -0.3820
 1090loPI   PO417100  15.143   5.044   4.939 -0.0501 -0.2580 -0.2263
 1090loPI   GL117101  15.197   4.969   5.350  0.1162 -0.0010 -0.3906
 1090loPI   GL217102  14.907   4.939   5.532  0.0524 -0.0719 -0.0939
 1090loPI   C1A17103  15.317   4.673   5.604 -0.1157 -0.2908 -0.1914
 1090loPI   C2A17104  15.227   4.723   6.029 -0.0835 -0.0179 -0.1798
 1090loPI   C3A17105  15.298   4.437   6.333 -0.3340  0.2589 -0.2405
 1090loPI   C4A17106  15.388   4.287   6.713  0.2460 -0.2854 -0.0451
 1090loPI   C5A17107  15.254   4.034   7.158 -0.0026  0.1671  0.1223
 1090loPI   C6A17108  15.540   3.862   7.454 -0.1393 -0.1986  0.2040
 1090loPI   C1B17109  14.854   5.011   6.061  0.0032  0.2470 -0.0857
 1090loPI   C2B17110  14.597   4.931   6.525 -0.1432  0.0946  0.3421
 1090loPI   C3B17111  14.415   4.864   6.962 -0.0041  0.3014 -0.2007
 1090loPI   C4B17112  14.426   4.476   7.308  0.1110  0.0406 -0.0048
 1091loPI    C117113   9.456   5.411   4.733 -0.0729 -0.2685  0.0468
 1091loPI    C217114   9.360   5.202   4.406  0.0560 -0.0874 -0.1084
 1091loPI    C317115   9.644   5.484   4.388  0.0704 -0.0823  0.1621
 1091loPI   PO417116   9.313   5.145   4.915  0.0615 -0.1750  0.2111
 1091loPI   GL117117   9.628   4.933   5.272  0.3246  0.2479 -0.2479
 1091loPI   GL217118   9.750   5.155   5.101  0.3130  0.0325 -0.1156
 1091loPI   C1A17119   9.834   4.654   5.417 -0.1014  0.0207  0.0061
 1091loPI   C2A17120  10.037   4.438   5.790 -0.0807  0.0089 -0.2053
 1091loPI   C3A17121  10.036   4.528   6.185 -0.0369 -0.0429 -0.3462
 1091loPI   C4A17122  10.168   4.702   6.593  0.3134 -0.0791 -0.0890
 1091loPI   C5A17123   9.970   5.032   6.791 -0.0564  0.0225  0.1458
 1091loPI   C6A17124   9.655   5.254   6.988 -0.1664 -0.2624 -0.1802
 1091loPI   C1B17125   9.997   5.206   5.520 -0.2697  0.3093  0.0926
 1091loPI   C2B17126  10.026   5.211   5.941  0.1158 -0.1823  0.0430
 1091loPI   C3B17127  10.042   5.371   6.233 -0.2222 -0.1175  0.1364
 1091loPI   C4B17128   9.868   5.489   6.568  0.1455  0.0768 -0.1330
 1092loPI    C117129  15.137   8.785   4.579  0.0896 -0.0668  0.0051
 1092loPI    C217130  15.468   8.623   4.423 -0.0070 -0.0178 -0.2565
 1092loPI    C317131  15.155   8.706   4.187 -0.1876 -0.0154 -0.0204
 1092loPI   PO417132  15.104   8.920   4.778  0.1864 -0.0171 -0.1370
 1092loPI   GL117133  15.174   9.149   5.188 -0.1798 -0.1417 -0.2613
 1092loPI   GL217134  15.148   9.427   4.970 -0.1453 -0.2997  0.1814
 1092loPI   C1A17135  15.190   9.362   5.580 -0.0835 -0.1687 -0.0030
 1092loPI   C2A17136  15.164   9.308   6.031 -0.0070  0.1547  0.0196
 1092loPI   C3A17137  15.318   9.311   6.480  0.1091 -0.0725  0.2547
 1092loPI   C4A17138  15.569   9.292   6.751  0.1955  0.0253 -0.1922
 1092loPI   C5A17139  15.662   9.051   7.067 -0.2299  0.1853 -0.0670
 1092loPI   C6A17140  15.734   8.914   7.479 -0.0170 -0.2686 -0.1151
 1092loPI   C1B17141  14.728   9.539   5.334  0.2037  0.0036  0.1235
 1092loPI   C2B17142  14.694   9.609   5.706 -0.2146 -0.0854  0.1033
 1092loPI   C3B17143  14.536   9.591   6.079  0.0056 -0.1804 -0.1043
 1092loPI   C4B17144  14.653  10.056   6.100  0.1614 -0.1226 -0.0752
 1093loPI    C117145   8.058  18.058   4.502 -0.0197 -0.2787  0.2324
 1093loPI    C217146   7.778  17.811   4.360 -0.0234 -0.0259 -0.2182
 1093loPI    C317147   8.110  17.880   4.148  0.1338  0.0948  0.0622
 1093loPI   PO417148   7.944  18.142   4.730 -0.1253 -0.0027  0.3110
 1093loPI   GL117149   8.023  18.206   5.141  0.0994 -0.0164  0.0386
 1093loPI   GL217150   8.033  18.535   5.277 -0.1561 -0.0236 -0.0271
 1093loPI   C1A17151   7.802  17.896   5.426  0.0592  0.2341 -0.1911
 1093loPI   C2A17152   7.780  17.934   5.813 -0.3193 -0.0774  0.1239
 1093loPI   C3A17153   7.538  18.099   6.062 -0.0741 -0.0378 -0.0742
 1093loPI   C4A17154   7.718  18.040   6.475  0.1023  0.0153 -0.0855
 1093loPI   C5A17155   7.842  17.990   6.956 -0.1971  0.1605 -0.0620
 1093loPI   C6A17156   7.974  17.757   7.316 -0.0561  0.1852  0.3678
 1093loPI   C1B17157   8.128  18.353   5.626 -0.2473 -0.0539  0.3078
 1093loPI   C2B17158   8.430  18.312   5.890 -0.1136 -0.1922  0.0636
 1093loPI   C3B17159   8.522  18.332   6.344 -0.1964  0.0673  0.0678
 1093loPI   C4B17160   8.532  18.423   6.810  0.3595  0.2082  0.3053
 1094loPI    C117161  12.177   4.246   4.434 -0.0931  0.0630  0.0249
 1094loPI    C217162  11.854   4.418   4.273 -0.2818 -0.2493  0.0624
 1094loPI    C317163  11.869   4.020   4.316  0.0163 -0.2192  0.2664
 1094loPI   PO417164  12.224   4.319   4.677 -0.1519  0.0530  0.1111
 1094loPI   GL117165  12.226   4.282   5.157 -0.3503 -0.1342 -0.4671
 1094loPI   GL217166  11.961   4.488   5.189 -0.3348 -0.3399 -0.0596
 1094loPI   C1A17167  12.400   4.150   5.486  0.0793 -0.0281 -0.0395
 1094loPI   C2A17168  12.621   3.888   5.731  0.1901 -0.3075  0.2324
 1094loPI   C3A17169  12.664   3.956   6.135  0.1043 -0.2091  0.0149
 1094loPI   C4A17170  12.898   3.971   6.493  0.3792  0.0225 -0.0982
 1094loPI   C5A17171  12.868   4.153   6.879  0.0885 -0.0229  0.0453
 1094loPI   C6A17172  12.795   4.577   6.955  0.1891 -0.3415  0.0122
 1094loPI   C1B17173  11.922   4.177   5.544 -0.0152  0.3079 -0.2877
 1094loPI   C2B17174  11.760   4.175   5.954 -0.0570  0.1578  0.1454
 1094loPI   C3B17175  11.925   4.111   6.353 -0.1260 -0.1429  0.0440
 1094loPI   C4B17176  11.951   4.104   6.919 -0.1906  0.0713  0.1280
 1095loPI    C117177   1.915   7.721   4.655 -0.0256 -0.1761 -0.1735
 1095loPI    C217178   2.277   7.808   4.801 -0.1588 -0.2186  0.1933
 1095loPI    C317179   2.196   7.437   4.675 -0.0346 -0.1751 -0.0202
 1095loPI   PO417180   1.753   7.780   4.817  0.0593 -0.0728  0.0662
 1095loPI   GL117181   1.344   7.888   5.006  0.1872  0.1721 -0.0549
 1095loPI   GL217182   1.318   8.293   5.053 -0.2929  0.3370 -0.1573
 1095loPI   C1A17183   1.289   7.938   5.435 -0.0696 -0.0677  0.2795
 1095loPI   C2A17184   1.355   7.743   5.820  0.0867 -0.0054  0.0393
 1095loPI   C3A17185   1.282   7.676   6.248  0.2632 -0.0670 -0.0822
 1095loPI   C4A17186   1.491   7.612   6.621 -0.2766  0.2889  0.1577
 1095loPI   C5A17187   1.485   7.802   7.054 -0.0484 -0.0507  0.0974
 1095loPI   C6A17188   1.341   7.668   7.552  0.0263 -0.1170 -0.1757
 1095loPI   C1B17189   1.198   8.460   5.428 -0.1879  0.2978  0.1002
 1095loPI   C2B17190   1.256   8.461   5.840  0.0595  0.1744  0.1001
 1095loPI   C3B17191   1.238   8.644   6.280 -0.1293  0.3848 -0.2248
 1095loPI   C4B17192   1.415   8.753   6.687 -0.1921  0.1383 -0.2064
 1096loPI    C117193   3.523  15.788   4.445 -0.0931 -0.0847  0.0045
 1096loPI    C217194   3.832  15.994   4.594 -0.1394  0.0728 -0.1136
 1096loPI    C317195   3.875  15.785   4.256 -0.0941 -0.1086  0.0029
 1096loPI   PO417196   3.506  15.637   4.739  0.1375  0.0679  0.2034
 1096loPI   GL117197   3.373  15.598   5.020 -0.1045  0.0081  0.4308
 1096loPI   GL217198   3.154  15.386   5.032  0.0520  0.0692  0.1130
 1096loPI   C1A17199   3.460  15.794   5.424 -0.2911  0.0906 -0.1668
 1096loPI   C2A17200   3.414  15.982   5.878  0.1542 -0.0071  0.2501
 1096loPI   C3A17201   3.505  15.978   6.208 -0.4006 -0.1528  0.2426
 1096loPI   C4A17202   3.223  16.140   6.613  0.0252  0.2760  0.0391
 1096loPI   C5A17203   3.300  16.111   7.077  0.0101 -0.3699 -0.0968
 1096loPI   C6A17204   3.457  15.778   7.179  0.0017  0.0960  0.0161
 1096loPI   C1B17205   3.073  15.447   5.550  0.0277  0.2050  0.1387
 1096loPI   C2B17206   3.022  15.668   5.991  0.1673 -0.0892 -0.0644
 1096loPI   C3B17207   2.876  15.801   6.437  0.3622 -0.2445  0.1650
 1096loPI   C4B17208   3.016  15.715   6.844 -0.2307 -0.1526 -0.2078
 1097loPI    C117209  12.282  14.231   3.903  0.3239 -0.0220 -0.0729
 1097loPI    C217210  12.286  13.836   3.840 -0.2088 -0.0663  0.1225
 1097loPI    C317211  11.968  14.053   3.731 -0.0003  0.2813  0.1906
 1097loPI   PO417212  12.472  14.265   4.127 -0.0264  0.0192  0.0340
 1097loPI   GL117213  12.437  14.081   4.573  0.1476  0.2632 -0.2087
 1097loPI   GL217214  12.411  14.295   4.674  0.3274  0.2151 -0.1447
 1097loPI   C1A17215  12.625  13.843   4.938  0.0060  0.1525  0.1923
 1097loPI   C2A17216  12.680  13.822   5.408 -0.0232 -0.1719 -0.1270
 1097loPI   C3A17217  12.600  13.857   5.885  0.0110  0.2991  0.0069
 1097loPI   C4A17218  12.333  14.034   6.132  0.2796 -0.3919  0.1684
 1097loPI   C5A17219  12.475  14.040   6.555 -0.0316 -0.1877  0.0648
 1097loPI   C6A17220  12.348  14.153   6.932 -0.4588  0.1208  0.1961
 1097loPI   C1B17221  12.536  14.527   5.053 -0.1742  0.1196  0.0227
 1097loPI   C2B17222  12.302  14.693   5.415  0.0883 -0.1086  0.1421
 1097loPI   C3B17223  12.074  14.933   5.724 -0.1647 -0.0491  0.1896
 1097loPI   C4B17224  12.008  14.894   6.109  0.1568 -0.0736 -0.1642
 1098loPI    C117225  11.500   4.772   4.451  0.0785  0.0740  0.4134
 1098loPI    C217226  11.360   5.127   4.331 -0.0238 -0.0191  0.2557
 1098loPI    C317227  11.753   5.074   4.381  0.0132  0.0470  0.0443
 1098loPI   PO417228  11.436   4.695   4.618  0.0483 -0.3120 -0.2274
 1098loPI   GL117229  11.450   4.678   5.007  0.0391  0.2115 -0.1820
 1098loPI   GL217230  11.462   4.416   5.185  0.1194 -0.0925  0.1852
 1098loPI   C1A17231  11.234   4.764   5.425 -0.0970  0.5469  0.0959
 1098loPI   C2A17232  10.995   4.569   5.806  0.1620 -0.2513  0.2199
 1098loPI   C3A17233  10.820   4.716   6.128  0.2532  0.1115  0.2052
 1098loPI   C4A17234  10.766   4.816   6.521 -0.2139 -0.3052  0.2472
 1098loPI   C5A17235  10.721   4.904   6.913  0.1862  0.0284 -0.2270
 1098loPI   C6A17236  10.749   4.647   7.304  0.1248 -0.3332 -0.0156
 1098loPI   C1B17237  11.361   4.227   5.553  0.0832 -0.1093 -0.2377
 1098loPI   C2B17238  11.307   4.222   5.986  0.4268 -0.1578 -0.1575
 1098loPI   C3B17239  11.432   4.206   6.342  0.0952  0.0738 -0.2498
 1098loPI   C4B17240  11.665   4.484   6.578  0.1543  0.0285  0.0518
 1099loPI    C117241   3.641  16.447   4.886 -0.0121 -0.2091 -0.0942
 1099loPI    C217242   3.418  16.279   5.172 -0.0086 -0.1900 -0.0802
 1099loPI    C317243   3.380  16.159   4.793 -0.2361 -0.0014 -0.1194
 1099loPI   PO417244   3.807  16.530   4.965 -0.0366  0.1361 -0.1330
 1099loPI   GL117245   3.954  16.426   5.382  0.0113 -0.3581 -0.2507
 1099loPI   GL217246   4.207  16.221   5.424  0.2559  0.0755 -0.2636
 1099loPI   C1A17247   3.927  16.774   5.678  0.1465  0.1750 -0.2033
 1099loPI   C2A17248   3.724  17.021   5.921  0.2428  0.0475 -0.1198
 1099loPI   C3A17249   3.626  17.281   6.157 -0.0788  0.0510 -0.0704
 1099loPI   C4A17250   3.604  17.254   6.677  0.0729  0.4139  0.1248
 1099loPI   C5A17251   3.535  17.040   7.084 -0.1786  0.1269 -0.0977
 1099loPI   C6A17252   3.367  16.758   7.215  0.0632 -0.1035  0.0141
 1099loPI   C1B17253   3.924  16.065   5.761  0.0817 -0.2726  0.0578
 1099loPI   C2B17254   4.028  15.874   6.200 -0.0377 -0.1691  0.2641
 1099loPI   C3B17255   3.793  15.725   6.599 -0.2497 -0.2030  0.2534
 1099loPI   C4B17256   3.814  15.949   6.914  0.0321 -0.0160  0.0608
 1100loPI    C117257  12.665  17.398   4.477 -0.0032 -0.0503 -0.1080
 1100loPI    C217258  12.509  17.076   4.298 -0.1455 -0.0927  0.0893
 1100loPI    C317259  12.898  17.084   4.392 -0.0206  0.0148 -0.4084
 1100loPI   PO417260  12.413  17.434   4.620  0.0570  0.0573 -0.0428
 1100loPI   GL117261  12.292  17.451   5.110  0.3646  0.0445  0.2234
 1100loPI   GL217262  11.991  17.487   5.079 -0.1426  0.1383  0.2497
 1100loPI   C1A17263  12.521  17.487   5.499  0.1537 -0.0585  0.0598
 1100loPI   C2A17264  12.538  17.294   5.859 -0.1244 -0.1314 -0.0965
 1100loPI   C3A17265  12.384  17.485   6.267 -0.0449 -0.1788  0.1119
 1100loPI   C4A17266  12.431  17.957   6.410  0.0085 -0.0799  0.0114
 1100loPI   C5A17267  12.237  18.278   6.714 -0.1767  0.2883  0.1200
 1100loPI   C6A17268  12.015  18.349   7.136 -0.0777 -0.0424 -0.1741
 1100loPI   C1B17269  12.026  17.479   5.540 -0.1280 -0.1494 -0.2064
 1100loPI   C2B17270  12.212  17.695   5.871  0.1967 -0.1512  0.3562
 1100loPI   C3B17271  12.727  17.780   5.996 -0.3273  0.1274 -0.1561
 1100loPI   C4B17272  12.894  17.806   6.351 -0.0860 -0.0545 -0.0466
 1101loPI    C117273   0.364   5.537   5.093  0.0059 -0.1840  0.0860
 1101loPI    C217274   0.483   5.199   5.271  0.3647 -0.1453 -0.0720
 1101loPI    C317275   0.474   5.222   4.872 -0.1006 -0.1164 -0.0647
 1101loPI   PO417276   0.111   5.568   5.221 -0.0208 -0.1330  0.1924
 1101loPI   GL117277  -0.197   5.364   5.488  0.1409 -0.4560 -0.0550
 1101loPI   GL217278   0.097   5.217   5.599  0.2227  0.0770 -0.1078
 1101loPI   C1A17279  -0.264   5.520   5.867 -0.3294 -0.2636  0.0223
 1101loPI   C2A17280  -0.327   5.405   6.281 -0.4007 -0.0238 -0.0566
 1101loPI   C3A17281  -0.713   5.398   6.532  0.0266 -0.1430  0.2214
 1101loPI   C4A17282  -0.931   5.326   6.951  0.0629 -0.1902 -0.2315
 1101loPI   C5A17283  -1.033   4.959   7.267 -0.0521 -0.3824 -0.0593
 1101loPI   C6A17284  -0.901   4.517   7.303 -0.2660 -0.0560  0.1182
 1101loPI   C1B17285   0.225   5.350   5.929 -0.0760  0.1133  0.0384
 1101loPI   C2B17286   0.180   5.495   6.284  0.2613 -0.2000 -0.2268
 1101loPI   C3B17287   0.027   5.483   6.670  0.0379 -0.0229  0.1403
 1101loPI   C4B17288  -0.340   5.155   6.830  0.0674  0.2182  0.0904
 1102loPI    C117289  16.053   1.557   4.962 -0.0333  0.0855 -0.0223
 1102loPI    C217290  15.969   1.906   4.784 -0.0254  0.0912 -0.0150
 1102loPI    C317291  16.083   1.591   4.564  0.0042  0.1040 -0.0179
 1102loPI   PO417292  16.324   1.577   5.094  0.0071 -0.1719  0.1501
 1102loPI   GL117293  16.395   1.850   5.355  0.0951 -0.0420 -0.1728
 1102loPI   GL217294  16.659   2.027   5.273 -0.2704 -0.1523  0.1283
 1102loPI   C1A17295  16.387   1.943   5.792  0.1341  0.2939 -0.0183
 1102loPI   C2A17296  16.445   1.851   6.239  0.4006 -0.0684 -0.0195
 1102loPI   C3A17297  16.516   1.765   6.612 -0.5231  0.1170  0.1745
 1102loPI   C4A17298  16.626   1.941   7.034  0.1315  0.2241  0.2883
 1102loPI   C5A17299  16.577   2.265   7.233 -0.0426 -0.1322  0.1679
 1102loPI   C6A17300  16.207   2.459   7.421  0.0572  0.3265  0.4078
 1102loPI   C1B17301  16.862   1.975   5.596  0.1168 -0.1112 -0.3327
 1102loPI   C2B17302  17.304   1.732   5.794 -0.3608 -0.1476  0.0101
 1102loPI   C3B17303  17.415   1.680   6.198 -0.3996  0.1484  0.1087
 1102loPI   C4B17304  17.576   1.744   6.616  0.0909 -0.0161 -0.2418
 1103loPI    C117305  13.650  17.773   4.413 -0.2026 -0.1991  0.0827
 1103loPI    C217306  14.008  17.613   4.493 -0.0545  0.0882  0.0078
 1103loPI    C317307  13.950  17.813   4.151 -0.2746  0.0819  0.0403
 1103loPI   PO417308  13.512  17.536   4.496 -0.0941  0.2668  0.1245
 1103loPI   GL117309  13.156  17.394   4.751 -0.0711 -0.3148 -0.1013
 1103loPI   GL217310  13.494  17.410   4.983  0.2766  0.1819 -0.0858
 1103loPI   C1A17311  13.031  17.264   5.178  0.1126  0.1934 -0.0693
 1103loPI   C2A17312  12.972  17.241   5.606 -0.0645  0.3996  0.1747
 1103loPI   C3A17313  12.996  17.134   6.018 -0.0157  0.1280 -0.1278
 1103loPI   C4A17314  13.181  16.868   6.273 -0.2606  0.0930 -0.3141
 1103loPI   C5A17315  13.514  16.691   6.610 -0.0326 -0.1721  0.1164
 1103loPI   C6A17316  13.951  16.590   6.760  0.1989  0.0771  0.1550
 1103loPI   C1B17317  13.551  17.359   5.418 -0.0676 -0.1562  0.1202
 1103loPI   C2B17318  13.493  17.261   5.852 -0.2682 -0.2132  0.1860
 1103loPI   C3B17319  13.281  17.452   6.268 -0.1399 -0.0129  0.0665
 1103loPI   C4B17320  13.001  17.293   6.647 -0.0932  0.1770 -0.2161
 1104loPI    C117321  17.674  16.168   4.275  0.0168 -0.2258  0.1069
 1104loPI    C217322  17.303  16.019   4.255 -0.0543 -0.0214 -0.1694
 1104loPI    C317323  17.474  16.173   3.928  0.3741 -0.3447 -0.1063
 1104loPI   PO417324  17.742  16.053   4.619  0.0171  0.0242 -0.0665
 1104loPI   GL117325  17.782  15.746   4.965 -0.0534 -0.3983  0.0869
 1104loPI   GL217326  17.869  15.490   4.818 -0.0600 -0.3036  0.0728
 1104loPI   C1A17327  17.698  15.854   5.459 -0.1676  0.2745 -0.0297
 1104loPI   C2A17328  17.475  15.655   5.870  0.0226 -0.0232 -0.3067
 1104loPI   C3A17329  17.497  15.532   6.233 -0.3028  0.2490  0.0677
 1104loPI   C4A17330  17.479  15.606   6.602 -0.1484 -0.0837  0.2528
 1104loPI   C5A17331  17.341  15.886   6.890 -0.0386  0.0680  0.0842
 1104loPI   C6A17332  17.368  15.950   7.361  0.2278 -0.0180 -0.0053
 1104loPI   C1B17333  18.020  15.424   5.321 -0.3599  0.0176  0.1256
 1104loPI   C2B17334  17.931  15.302   5.628 -0.0283  0.1190 -0.2819
 1104loPI   C3B17335  17.866  15.281   6.028 -0.2372 -0.1290  0.0553
 1104loPI   C4B17336  17.781  15.184   6.471  0.5735  0.2116  0.1190
 1105loPI    C117337   3.028  12.084   4.590 -0.2082  0.1482 -0.1781
 1105loPI    C217338   3.130  12.470   4.575  0.1418  0.0580 -0.2219
 1105loPI    C317339   3.276  12.214   4.305  0.0597 -0.1388 -0.0822
 1105loPI   PO417340   2.931  12.043   4.845  0.0001  0.3426  0.1374
 1105loPI   GL117341   3.006  12.368   5.073  0.3069 -0.0449  0.3400
 1105loPI   GL217342   2.923  12.087   5.334  0.3363  0.0718  0.2408
 1105loPI   C1A17343   3.075  12.639   5.413  0.0865 -0.3109  0.0976
 1105loPI   C2A17344   3.015  12.576   5.825 -0.1602  0.2780  0.1913
 1105loPI   C3A17345   2.972  12.617   6.334 -0.2036  0.0014 -0.1353
 1105loPI   C4A17346   2.802  12.520   6.715 -0.0918 -0.1388 -0.0054
 1105loPI   C5A17347   2.968  12.359   7.066 -0.2761  0.2297  0.0368
 1105loPI   C6A17348   3.340  12.258   6.967 -0.0871  0.4124 -0.0698
 1105loPI   C1B17349   2.661  12.241   5.583  0.0581 -0.0913  0.0075
 1105loPI   C2B17350   2.664  12.308   6.056  0.0575 -0.0569  0.1005
 1105loPI   C3B17351   2.532  12.174   6.471 -0.0732 -0.1570 -0.1276
 1105loPI   C4B17352   2.427  12.148   6.953  0.5708  0.2034  0.0176
 1106loPI    C117353   1.804   9.999   4.599 -0.0042 -0.1707  0.2286
 1106loPI    C217354   1.885   9.613   4.528 -0.0212 -0.1518  0.1042
 1106loPI    C317355   1.629   9.811   4.292  0.1704  0.0005  0.0209
 1106loPI   PO417356   1.778   9.955   4.914  0.3082 -0.2494 -0.1339
 1106loPI   GL117357   1.581   9.835   5.316  0.0264 -0.1214  0.0798
 1106loPI   GL217358   1.518  10.178   5.327  0.2233  0.0189 -0.1591
 1106loPI   C1A17359   1.271   9.836   5.604  0.4374 -0.0015  0.2509
 1106loPI   C2A17360   0.987   9.931   5.845 -0.1924  0.0885  0.2370
 1106loPI   C3A17361   1.000   9.991   6.246  0.3113  0.4606 -0.2967
 1106loPI   C4A17362   1.055   9.962   6.735  0.0418 -0.2131  0.2507
 1106loPI   C5A17363   1.103  10.107   7.138  0.1237 -0.1910 -0.4258
 1106loPI   C6A17364   1.078  10.424   7.475 -0.0654  0.0231 -0.2628
 1106loPI   C1B17365   1.636  10.611   5.552  0.0491 -0.2492  0.0448
 1106loPI   C2B17366   1.266  10.912   5.817 -0.0904  0.1803 -0.0158
 1106loPI   C3B17367   1.450  11.214   6.144  0.2966  0.1300  0.3133
 1106loPI   C4B17368   1.530  11.015   6.584 -0.1181  0.1157  0.2401
 1107loPI    C117369  16.764   8.942   4.332  0.1329  0.0505  0.0365
 1107loPI    C217370  17.090   9.002   4.109  0.1383 -0.0566  0.0154
 1107loPI    C317371  16.744   9.173   4.007  0.0688 -0.3421 -0.2449
 1107loPI   PO417372  16.825   9.003   4.550  0.0471  0.0078  0.0531
 1107loPI   GL117373  16.982   8.863   4.939  0.3479 -0.0910 -0.1719
 1107loPI   GL217374  16.715   8.653   4.890 -0.1494  0.1539 -0.1813
 1107loPI   C1A17375  16.961   9.179   5.309 -0.2554 -0.0906  0.0603
 1107loPI   C2A17376  16.936   9.440   5.627 -0.0684  0.1071  0.1564
 1107loPI   C3A17377  17.013   9.679   5.903  0.0807 -0.0504 -0.2903
 1107loPI   C4A17378  16.830   9.810   6.282  0.2820 -0.1883 -0.0312
 1107loPI   C5A17379  16.992   9.868   6.793  0.2306  0.0533  0.3798
 1107loPI   C6A17380  16.968   9.776   7.265 -0.3622  0.1552  0.0181
 1107loPI   C1B17381  17.003   8.569   5.315  0.1002  0.2623  0.1007
 1107loPI   C2B17382  17.275   8.459   5.503  0.3705  0.0196 -0.3351
 1107loPI   C3B17383  17.535   8.457   5.870 -0.0462  0.3591 -0.1287
 1107loPI   C4B17384  17.432   8.434   6.344 -0.0554  0.2629  0.1239
 1108loPI    C117385   1.266   8.460   4.586 -0.1750  0.0111 -0.0295
 1108loPI    C217386   1.487   8.129   4.625 -0.0983  0.0788  0.1190
 1108loPI    C317387   1.484   8.327   4.277 -0.2087 -0.1221  0.0035
 1108loPI   PO417388   0.999   8.483   4.722  0.0952  0.1200  0.0328
 1108loPI   GL117389   0.809   8.589   5.021  0.0415  0.0200  0.0418
 1108loPI   GL217390   0.652   8.937   5.086 -0.1139 -0.1630 -0.1436
 1108loPI   C1A17391   0.681   8.568   5.492 -0.0278 -0.1835  0.0247
 1108loPI   C2A17392   0.558   8.753   5.853 -0.2318  0.1523 -0.1805
 1108loPI   C3A17393   0.183   8.885   6.058  0.1440  0.1350 -0.0974
 1108loPI   C4A17394   0.240   8.828   6.555  0.3807  0.1859  0.0186
 1108loPI   C5A17395   0.044   9.009   6.956 -0.0620  0.0552 -0.0180
 1108loPI   C6A17396   0.051   9.253   7.280 -0.1492 -0.2047  0.3690
 1108loPI   C1B17397   0.518   9.090   5.470  0.1460 -0.2284 -0.1836
 1108loPI   C2B17398   0.598   9.245   5.890  0.0306 -0.2111  0.0253
 1108loPI   C3B17399   0.480   9.208   6.357 -0.0614 -0.0568 -0.0336
 1108loPI   C4B17400   0.520   9.103   6.881  0.2109  0.0634  0.1850
 1109loPI    C117401  15.194   9.678   4.370 -0.1509  0.0120  0.0106
 1109loPI    C217402  14.873   9.482   4.506 -0.1505 -0.0211 -0.0356
 1109loPI    C317403  15.220   9.289   4.460 -0.0622  0.0679  0.2354
 1109loPI   PO417404  15.273   9.956   4.566 -0.2832 -0.3170  0.3718
 1109loPI   GL117405  15.416   9.911   5.044  0.0470 -0.1084 -0.2329
 1109loPI   GL217406  15.526   9.597   5.285  0.0178  0.0641 -0.1406
 1109loPI   C1A17407  15.505  10.098   5.466  0.0950  0.2942  0.1740
 1109loPI   C2A17408  15.741  10.170   5.719 -0.0429  0.1449 -0.1730
 1109loPI   C3A17409  15.658  10.185   6.223  0.1300 -0.1510 -0.1477
 1109loPI   C4A17410  15.557  10.385   6.560  0.1721  0.1125  0.3565
 1109loPI   C5A17411  15.405  10.653   6.964  0.2985 -0.1702  0.1747
 1109loPI   C6A17412  14.992  10.840   6.928 -0.0333 -0.0486 -0.1870
 1109loPI   C1B17413  15.581   9.694   5.794  0.0070  0.0311  0.0684
 1109loPI   C2B17414  15.507   9.716   6.225 -0.0238 -0.0008  0.1739
 1109loPI   C3B17415  15.506   9.812   6.675 -0.2228 -0.1711  0.1443
 1109loPI   C4B17416  15.495  10.149   7.046  0.0363  0.0300  0.0801
 1110loPI    C117417   6.120  11.494   4.894  0.0302  0.2703  0.1397
 1110loPI    C217418   5.788  11.703   4.813 -0.0328  0.2480  0.3344
 1110loPI    C317419   5.846  11.346   4.643 -0.1362  0.2266  0.3436
 1110loPI   PO417420   6.211  11.696   5.139  0.0288  0.1428  0.0624
 1110loPI   GL117421   6.066  11.875   5.478  0.0941 -0.0919  0.0304
 1110loPI   GL217422   6.163  11.619   5.697 -0.0952 -0.0830  0.1578
 1110loPI   C1A17423   6.217  12.122   5.784  0.0003  0.1281  0.0362
 1110loPI   C2A17424   6.222  12.547   6.102  0.2751 -0.1108 -0.0237
 1110loPI   C3A17425   6.458  12.684   6.470 -0.3581 -0.4127  0.0206
 1110loPI   C4A17426   6.379  13.090   6.639 -0.1649 -0.2273  0.1046
 1110loPI   C5A17427   6.555  13.278   6.927 -0.1882  0.0141  0.0346
 1110loPI   C6A17428   6.977  13.506   7.031  0.3344 -0.1985 -0.0634
 1110loPI   C1B17429   6.618  11.727   6.010 -0.0456 -0.0402 -0.0626
 1110loPI   C2B17430   6.571  11.667   6.424 -0.2006 -0.5202 -0.4867
 1110loPI   C3B17431   6.526  11.889   6.855 -0.0497 -0.1367 -0.3011
 1110loPI   C4B17432   6.223  11.831   7.237  0.0418  0.2218 -0.5662
 1111loPI    C117433   5.454   6.304   4.751  0.1014  0.0976  0.0543
 1111loPI    C217434   5.322   6.673   4.669  0.0431  0.0652  0.0017
 1111loPI    C317435   5.260   6.376   4.408  0.2118  0.0475 -0.0192
 1111loPI   PO417436   5.421   6.349   5.058 -0.3068 -0.4360  0.2073
 1111loPI   GL117437   5.219   6.084   5.248 -0.3036 -0.0594  0.3047
 1111loPI   GL217438   4.912   5.904   5.176 -0.0524  0.0137  0.0617
 1111loPI   C1A17439   5.205   6.199   5.710 -0.1510 -0.0336 -0.2730
 1111loPI   C2A17440   5.068   6.220   6.075 -0.0242  0.1476  0.1043
 1111loPI   C3A17441   5.292   6.132   6.430  0.0744  0.3067  0.0801
 1111loPI   C4A17442   5.683   5.774   6.293  0.0405 -0.3192  0.3223
 1111loPI   C5A17443   5.879   5.517   5.972  0.1575 -0.0954 -0.2919
 1111loPI   C6A17444   5.957   5.545   5.561 -0.0368  0.0270 -0.0290
 1111loPI   C1B17445   4.970   5.822   5.537  0.3628 -0.0722  0.2360
 1111loPI   C2B17446   4.709   5.816   5.928 -0.0707  0.1376 -0.1669
 1111loPI   C3B17447   4.724   5.853   6.384 -0.0966  0.0733 -0.2018
 1111loPI   C4B17448   4.705   5.759   6.754  0.2704  0.1283 -0.1945
 1112loPI    C117449  14.088  14.791   4.535 -0.1359  0.1223  0.1422
 1112loPI    C217450  13.918  14.550   4.265 -0.1189  0.2194  0.0440
 1112loPI    C317451  13.869  14.479   4.656  0.0665 -0.0702  0.0175
 1112loPI   PO417452  14.036  15.119   4.546 -0.1668 -0.2438  0.0794
 1112loPI   GL117453  13.766  15.186   4.940  0.2540  0.1358 -0.4596
 1112loPI   GL217454  13.927  14.881   5.016  0.2096  0.1855 -0.0983
 1112loPI   C1A17455  13.640  15.424   5.337  0.2051 -0.0112 -0.3020
 1112loPI   C2A17456  13.308  15.343   5.772 -0.2745 -0.1413 -0.0550
 1112loPI   C3A17457  13.280  14.962   6.110 -0.1953 -0.1525  0.2130
 1112loPI   C4A17458  12.936  14.923   6.474  0.0254 -0.2302  0.1538
 1112loPI   C5A17459  12.513  14.803   6.718  0.1877  0.1016 -0.0224
 1112loPI   C6A17460  12.289  14.896   6.989 -0.1667  0.1052 -0.0758
 1112loPI   C1B17461  13.873  14.944   5.426  0.0106  0.1747  0.0873
 1112loPI   C2B17462  13.992  14.921   5.840 -0.2678  0.0116 -0.2913
 1112loPI   C3B17463  14.290  14.815   6.083  0.0422  0.1494  0.0353
 1112loPI   C4B17464  14.388  14.713   6.433  0.1391 -0.0323  0.1161
 1113loPI    C117465  15.473  15.492   4.394 -0.1218 -0.1134 -0.2304
 1113loPI    C217466  15.228  15.251   4.188 -0.3033 -0.0356 -0.1080
 1113loPI    C317467  15.133  15.636   4.240 -0.1965 -0.0248  0.0133
 1113loPI   PO417468  15.506  15.403   4.573 -0.1262 -0.2350 -0.1846
 1113loPI   GL117469  15.272  15.459   4.990  0.3051 -0.3130  0.0237
 1113loPI   GL217470  15.454  15.742   5.277 -0.2283  0.3560  0.1125
 1113loPI   C1A17471  15.594  15.275   5.246 -0.3371 -0.0589 -0.0829
 1113loPI   C2A17472  15.590  15.159   5.712 -0.0498  0.0360  0.1186
 1113loPI   C3A17473  15.605  15.249   6.106 -0.0479 -0.0730  0.2415
 1113loPI   C4A17474  15.708  15.393   6.425 -0.3339 -0.0168  0.1533
 1113loPI   C5A17475  15.558  15.618   6.858  0.1150 -0.1485  0.0225
 1113loPI   C6A17476  15.298  15.763   7.287 -0.2962  0.2361  0.2480
 1113loPI   C1B17477  15.509  15.778   5.704  0.0580 -0.0443  0.2790
 1113loPI   C2B17478  15.326  15.647   6.095 -0.1933  0.1657 -0.0366
 1113loPI   C3B17479  15.238  15.923   6.347  0.0840 -0.0107 -0.0510
 1113loPI   C4B17480  15.137  15.843   6.723 -0.3662  0.0377  0.2366
 1114loPI    C117481  12.042  18.991   4.782  0.0450 -0.0765  0.0159
 1114loPI    C217482  12.242  18.788   4.501  0.1828 -0.0357  0.0840
 1114loPI    C317483  12.130  19.166   4.433  0.1941 -0.0342  0.0744
 1114loPI   PO417484  12.197  19.026   5.076 -0.2831 -0.1616 -0.0392
 1114loPI   GL117485  12.299  19.450   5.270  0.1875  0.2687  0.1766
 1114loPI   GL217486  12.248  19.677   5.536 -0.0641  0.1289 -0.1803
 1114loPI   C1A17487  12.359  19.174   5.640 -0.0838 -0.1241  0.3501
 1114loPI   C2A17488  12.466  19.099   6.136  0.2253 -0.1452  0.0149
 1114loPI   C3A17489  12.641  18.993   6.521 -0.1533  0.0024  0.1839
 1114loPI   C4A17490  12.635  19.079   6.893 -0.1943  0.1015 -0.1421
 1114loPI   C5A17491  12.333  19.218   7.265 -0.1719  0.1484  0.3239
 1114loPI   C6A17492  11.879  19.165   7.514 -0.2051 -0.0091 -0.1131
 1114loPI   C1B17493  12.613  19.955   5.682 -0.4170 -0.2051 -0.2554
 1114loPI   C2B17494  12.780  19.823   6.166  0.4218 -0.1063  0.2084
 1114loPI   C3B17495  12.666  19.481   6.446  0.0396  0.2186  0.5647
 1114loPI   C4B17496  12.257  19.313   6.506 -0.1199 -0.0353  0.2747
 1115loPI    C117497  10.778   8.006   4.511 -0.0430 -0.0091 -0.0943
 1115loPI    C217498  10.822   8.056   4.117 -0.0049 -0.3832 -0.1419
 1115loPI    C317499  10.503   7.861   4.259 -0.1546 -0.0213  0.0329
 1115loPI   PO417500  10.769   8.246   4.651  0.0430  0.1635 -0.0485
 1115loPI   GL117501  10.786   8.343   5.101  0.0898  0.2724  0.0445
 1115loPI   GL217502  10.477   8.247   5.102 -0.0883 -0.1566  0.2331
 1115loPI   C1A17503  10.600   8.359   5.535  0.2944 -0.3205 -0.1923
 1115loPI   C2A17504  10.635   8.466   5.999 -0.2276  0.1110  0.1700
 1115loPI   C3A17505  10.722   8.552   6.352 -0.2634 -0.2679  0.1251
 1115loPI   C4A17506  10.711   8.267   6.575 -0.0570  0.3658 -0.0630
 1115loPI   C5A17507  10.793   8.313   6.972  0.1779  0.0830  0.1167
 1115loPI   C6A17508  11.116   8.393   7.086  0.0372  0.0165 -0.0568
 1115loPI   C1B17509  10.719   7.935   5.396 -0.3014 -0.0117  0.2917
 1115loPI   C2B17510  10.834   8.017   5.794  0.0749 -0.2470  0.4285
 1115loPI   C3B17511  11.062   8.119   6.199  0.0422 -0.2300  0.0732
 1115loPI   C4B17512  11.467   8.168   6.440  0.1782 -0.1178 -0.0563
 1116loPI    C117513  11.585   0.296   4.800 -0.0674 -0.1008 -0.1626
 1116loPI    C217514  11.597   0.523   4.471  0.3450  0.3025  0.1194
 1116loPI    C317515  11.877   0.244   4.532  0.0786 -0.0028 -0.0238
 1116loPI   PO417516  11.510   0.513   4.970 -0.2197 -0.1153  0.0458
 1116loPI   GL117517  11.541   0.564   5.400 -0.1952  0.2362  0.0811
 1116loPI   GL217518  11.689   0.922   5.161 -0.3618  0.0530  0.0110
 1116loPI   C1A17519  11.355   0.798   5.607 -0.0339 -0.0356 -0.1714
 1116loPI   C2A17520  11.438   0.756   5.989 -0.3604  0.1215 -0.1291
 1116loPI   C3A17521  11.649   0.564   6.320  0.0118 -0.2879 -0.0627
 1116loPI   C4A17522  11.830   0.451   6.755 -0.0694 -0.1050 -0.3060
 1116loPI   C5A17523  11.770   0.392   7.191 -0.0496 -0.2715 -0.0673
 1116loPI   C6A17524  12.095   0.074   7.417 -0.3852  0.0380 -0.0256
 1116loPI   C1B17525  11.891   1.008   5.582 -0.3428 -0.0258 -0.0408
 1116loPI   C2B17526  11.912   0.965   5.982 -0.0600  0.0507  0.2641
 1116loPI   C3B17527  12.027   0.894   6.449  0.2537  0.1105  0.0374
 1116loPI   C4B17528  12.308   0.853   6.781  0.2359  0.1233 -0.2818
 1117loPI    C117529   0.760  18.311   4.663  0.0891  0.1778 -0.1403
 1117loPI    C217530   0.607  18.375   4.299 -0.0702 -0.0735 -0.1201
 1117loPI    C317531   0.981  18.240   4.337 -0.0069  0.0808 -0.1852
 1117loPI   PO417532   0.626  18.480   4.842  0.3202  0.2455 -0.4263
 1117loPI   GL117533   0.512  18.659   5.166  0.0420  0.1613 -0.3100
 1117loPI   GL217534   0.411  18.480   5.305 -0.1795  0.0563 -0.0752
 1117loPI   C1A17535   0.615  18.799   5.632 -0.0310  0.1001  0.2585
 1117loPI   C2A17536   0.465  18.798   5.993 -0.2111  0.0789 -0.4405
 1117loPI   C3A17537   0.527  19.004   6.318 -0.0284  0.2763  0.0337
 1117loPI   C4A17538   0.254  18.882   6.646 -0.1811 -0.1288 -0.2117
 1117loPI   C5A17539   0.279  18.656   6.966 -0.2081 -0.1022  0.3565
 1117loPI   C6A17540   0.158  18.405   7.228 -0.1829  0.1297 -0.3173
 1117loPI   C1B17541   0.286  18.381   5.707 -0.1223  0.0308 -0.0185
 1117loPI   C2B17542   0.452  18.199   6.152 -0.2426 -0.2077  0.1157
 1117loPI   C3B17543   0.487  17.827   6.397  0.0464 -0.0255 -0.5882
 1117loPI   C4B17544   0.423  17.610   6.658  0.1026  0.2136  0.3603
 1118loPI    C117545   7.937   2.552   4.851  0.0414 -0.0997 -0.0575
 1118loPI    C217546   8.206   2.432   5.121 -0.1563  0.0522  0.2108
 1118loPI    C317547   8.147   2.823   5.057 -0.0272  0.0175 -0.1404
 1118loPI   PO417548   7.737   2.297   4.926 -0.1363  0.0599  0.2225
 1118loPI   GL117549   7.837   2.051   5.218 -0.0902  0.1799  0.1725
 1118loPI   GL217550   7.781   1.776   5.262 -0.2339 -0.0747 -0.3413
 1118loPI   C1A17551   7.641   2.225   5.602  0.0088 -0.3193  0.0586
 1118loPI   C2A17552   7.469   2.065   5.939 -0.1874  0.2065  0.2005
 1118loPI   C3A17553   7.474   1.830   6.250 -0.1498 -0.2315  0.0745
 1118loPI   C4A17554   7.377   1.994   6.701 -0.1028 -0.1614  0.0674
 1118loPI   C5A17555   7.437   2.121   7.151 -0.1843  0.0861 -0.0783
 1118loPI   C6A17556   7.411   2.297   7.588  0.1188 -0.2453 -0.0737
 1118loPI   C1B17557   7.844   1.813   5.703 -0.1601 -0.1053 -0.1505
 1118loPI   C2B17558   7.917   1.603   6.129 -0.0267  0.4557  0.0599
 1118loPI   C3B17559   8.053   1.562   6.556  0.0391  0.1821  0.0904
 1118loPI   C4B17560   8.221   1.723   6.988 -0.0887  0.2291  0.1928
 1119loPI    C117561  16.303   6.497   4.742  0.0252 -0.0090 -0.0735
 1119loPI    C217562  16.174   6.836   4.910 -0.1814 -0.0405 -0.1657
 1119loPI    C317563  16.315   6.839   4.535 -0.0461 -0.0317 -0.1154
 1119loPI   PO417564  16.455   6.430   4.892 -0.0579 -0.0554 -0.0348
 1119loPI   GL117565  16.623   6.381   5.300  0.2150 -0.0456  0.1665
 1119loPI   GL217566  16.479   6.082   5.495 -0.1415 -0.2486  0.0384
 1119loPI   C1A17567  16.932   6.567   5.598 -0.4461  0.2059  0.2542
 1119loPI   C2A17568  16.935   6.595   6.111 -0.1145 -0.0430  0.0307
 1119loPI   C3A17569  17.015   6.534   6.506 -0.2113  0.2188 -0.1151
 1119loPI   C4A17570  17.192   6.287   6.853 -0.0983  0.3680  0.0347
 1119loPI   C5A17571  17.561   6.268   7.050  0.0900  0.2255  0.2324
 1119loPI   C6A17572  17.720   6.236   7.364  0.0623 -0.2266 -0.0313
 1119loPI   C1B17573  16.453   6.305   5.919 -0.3926  0.1726  0.3981
 1119loPI   C2B17574  16.548   6.160   6.270  0.0974  0.2352 -0.2796
 1119loPI   C3B17575  16.335   5.853   6.553 -0.1555  0.0698 -0.1954
 1119loPI   C4B17576  16.235   5.517   6.882  0.0662 -0.1192  0.0378
 1120loPI    C117577   5.009   3.286   4.761  0.0492  0.0601 -0.0812
 1120loPI    C217578   4.979   2.896   4.844  0.0109  0.0687 -0.0544
 1120loPI    C317579   5.058   3.016   4.471  0.1403  0.0315 -0.0394
 1120loPI   PO417580   5.115   3.447   4.926 -0.2013  0.1438  0.0043
 1120loPI   GL117581   5.104   3.720   5.253  0.0224 -0.2561 -0.0035
 1120loPI   GL217582   4.977   3.930   5.406  0.0013  0.0110  0.2330
 1120loPI   C1A17583   5.045   3.448   5.661 -0.1110 -0.0563  0.2367
 1120loPI   C2A17584   5.160   3.152   6.028 -0.1402  0.1524 -0.2422
 1120loPI   C3A17585   5.235   3.090   6.449  0.1906  0.0781 -0.2099
 1120loPI   C4A17586   5.286   2.952   6.890 -0.1768  0.1094  0.0253
 1120loPI   C5A17587   5.246   2.691   7.237 -0.1657  0.0131 -0.1779
 1120loPI   C6A17588   5.253   2.432   7.509  0.3631 -0.0544 -0.0128
 1120loPI   C1B17589   5.162   3.905   5.796 -0.5044 -0.0298 -0.2567
 1120loPI   C2B17590   5.052   3.748   6.130  0.0826 -0.0347  0.0125
 1120loPI   C3B17591   5.152   4.046   6.523  0.4642 -0.1869  0.0945
 1120loPI   C4B17592   5.354   4.135   6.936 -0.0637  0.1553 -0.1500
 1121loPI    C117593  17.987  17.066   4.373 -0.2989 -0.0437  0.0895
 1121loPI    C217594  17.681  17.314   4.302 -0.0360  0.2018 -0.2171
 1121loPI    C317595  17.889  17.159   3.997 -0.0808 -0.2571 -0.0226
 1121loPI   PO417596  18.083  17.103   4.582 -0.1002 -0.1462  0.3400
 1121loPI   GL117597  17.880  16.915   4.997  0.0199  0.2763  0.2450
 1121loPI   GL217598  17.696  17.246   5.012 -0.2917  0.0080 -0.0531
 1121loPI   C1A17599  17.991  17.079   5.411 -0.0974 -0.2648 -0.0011
 1121loPI   C2A17600  17.951  17.171   5.847  0.1542 -0.1025  0.0609
 1121loPI   C3A17601  17.832  16.914   6.197  0.2010  0.1706 -0.3975
 1121loPI   C4A17602  17.610  16.882   6.625  0.0142  0.1061 -0.1925
 1121loPI   C5A17603  17.708  16.665   6.945  0.0811  0.2250  0.1393
 1121loPI   C6A17604  17.448  16.365   7.135  0.0709  0.1614  0.0668
 1121loPI   C1B17605  17.565  17.370   5.482 -0.0077  0.0644  0.0441
 1121loPI   C2B17606  17.504  17.536   5.821  0.2364  0.1419  0.0845
 1121loPI   C3B17607  17.681  17.559   6.176  0.1683  0.2094  0.0305
 1121loPI   C4B17608  18.058  17.330   6.340  0.3127  0.2600 -0.1136
 1122loPI    C117609   3.663   9.618   4.477 -0.0304 -0.0151 -0.1142
 1122loPI    C217610   3.811   9.315   4.262  0.2369  0.1509 -0.1678
 1122loPI    C317611   3.418   9.388   4.259  0.1820 -0.1341 -0.2302
 1122loPI   PO417612   3.760   9.548   4.658 -0.0321  0.2503  0.0843
 1122loPI   GL117613   3.835   9.714   5.115  0.0403 -0.1750  0.1809
 1122loPI   GL217614   4.109   9.730   5.094 -0.1242  0.2214  0.0110
 1122loPI   C1A17615   3.651   9.702   5.579 -0.0968  0.1084 -0.0507
 1122loPI   C2A17616   3.769   9.571   5.943  0.0024 -0.1299  0.0290
 1122loPI   C3A17617   3.846   9.628   6.445 -0.1832  0.1293  0.3402
 1122loPI   C4A17618   4.024   9.528   6.853  0.2812 -0.0576 -0.2158
 1122loPI   C5A17619   4.152   9.501   7.283  0.0785 -0.1279  0.0342
 1122loPI   C6A17620   4.526   9.382   7.673  0.2158 -0.3287  0.0581
 1122loPI   C1B17621   4.173   9.649   5.514  0.2719 -0.0375 -0.0238
 1122loPI   C2B17622   4.612   9.709   5.796  0.1509 -0.1256  0.1501
 1122loPI   C3B17623   4.775   9.659   6.283  0.1174  0.1303 -0.0212
 1122loPI   C4B17624   5.132   9.925   6.487 -0.0077 -0.3215  0.2698
 1123loPI    C117625   7.423  11.092   5.014 -0.1794 -0.2642  0.0914
 1123loPI    C217626   7.427  10.821   4.720  0.1510 -0.1422 -0.0205
 1123loPI    C317627   7.691  11.122   4.719 -0.2610  0.2309  0.0586
 1123loPI   PO417628   7.383  10.964   5.204  0.0352  0.3789 -0.2138
 1123loPI   GL117629   7.363  10.790   5.617  0.1225  0.1020 -0.1204
 1123loPI   GL217630   7.504  11.113   5.678  0.0023  0.4357 -0.1711
 1123loPI   C1A17631   7.473  10.520   5.971 -0.2264 -0.0948 -0.0910
 1123loPI   C2A17632   7.576  10.454   6.412 -0.0508  0.2287  0.1439
 1123loPI   C3A17633   7.568  10.676   6.799 -0.0783 -0.4295 -0.0472
 1123loPI   C4A17634   7.641  10.802   7.282  0.1958  0.1080 -0.1866
 1123loPI   C5A17635   7.715  10.574   7.628 -0.0782 -0.1917 -0.1348
 1123loPI   C6A17636   7.573  10.683   8.089 -0.1386  0.1095 -0.0326
 1123loPI   C1B17637   7.400  11.439   5.787  0.0498  0.0801  0.1344
 1123loPI   C2B17638   7.081  11.702   5.910 -0.2126  0.1858  0.2808
 1123loPI   C3B17639   7.058  11.859   6.304 -0.0112  0.0850 -0.0079
 1123loPI   C4B17640   7.068  11.939   6.844  0.4284 -0.0176 -0.0867
 1124loPI    C117641  10.384  16.604   4.490 -0.1631 -0.0803 -0.0618
 1124loPI    C217642  10.007  16.550   4.370 -0.1866 -0.0108 -0.0202
 1124loPI    C317643  10.298  16.596   4.099 -0.2325  0.1008 -0.0512
 1124loPI   PO417644  10.399  16.777   4.650 -0.0505 -0.2693  0.1596
 1124loPI   GL117645  10.605  16.932   5.016  0.0064  0.1110 -0.1680
 1124loPI   GL217646  10.753  16.702   5.193 -0.0482 -0.3666  0.0872
 1124loPI   C1A17647  10.207  16.956   5.295 -0.0392 -0.0557  0.0611
 1124loPI   C2A17648  10.193  16.964   5.726  0.1348  0.1193  0.3415
 1124loPI   C3A17649  10.193  16.758   6.140  0.2783 -0.0950 -0.0721
 1124loPI   C4A17650   9.769  16.616   6.342 -0.0622 -0.2163 -0.3096
 1124loPI   C5A17651   9.579  16.589   6.689  0.2405  0.1331 -0.0036
 1124loPI   C6A17652   9.223  16.646   6.952 -0.1385 -0.0091  0.0783
 1124loPI   C1B17653  10.512  16.553   5.382  0.0175  0.3159 -0.1377
 1124loPI   C2B17654  10.250  16.351   5.721  0.0820 -0.4116  0.1554
 1124loPI   C3B17655  10.080  16.208   6.096  0.3975  0.2561 -0.0983
 1124loPI   C4B17656   9.774  15.944   6.306 -0.5982 -0.1850 -0.1168
 1125loPI    C117657  16.845   1.675   4.826  0.1014 -0.2625  0.0655
 1125loPI    C217658  16.922   1.651   4.434 -0.0615  0.1448  0.0030
 1125loPI    C317659  16.623   1.438   4.592  0.1780 -0.2325 -0.0389
 1125loPI   PO417660  16.979   2.030   4.894 -0.4041  0.2811  0.1793
 1125loPI   GL117661  17.351   2.170   4.983 -0.3470  0.1723  0.0237
 1125loPI   GL217662  17.629   2.393   5.086  0.0873  0.0023 -0.1103
 1125loPI   C1A17663  17.478   2.087   5.405 -0.0238  0.0203 -0.1765
 1125loPI   C2A17664  17.457   2.156   5.896 -0.0197 -0.0010 -0.0135
 1125loPI   C3A17665  17.461   2.162   6.342 -0.1282 -0.2159 -0.1523
 1125loPI   C4A17666  17.437   2.220   6.785 -0.3717  0.0638 -0.1534
 1125loPI   C5A17667  17.132   1.979   7.028  0.1589  0.2642  0.1876
 1125loPI   C6A17668  16.989   1.700   7.314  0.1284  0.0887  0.1533
 1125loPI   C1B17669  17.783   2.658   5.388  0.0390  0.2845 -0.1956
 1125loPI   C2B17670  18.123   2.842   5.459 -0.2369 -0.0282 -0.0608
 1125loPI   C3B17671  18.179   2.823   5.897  0.3492 -0.1142  0.3771
 1125loPI   C4B17672  18.139   2.996   6.280 -0.0165 -0.3043 -0.1373
 1126loPI    C117673  14.855   6.512   4.897  0.1758 -0.1454  0.1666
 1126loPI    C217674  14.870   6.197   4.652  0.0390  0.0366 -0.0807
 1126loPI    C317675  14.527   6.292   4.834  0.1276 -0.0676  0.1441
 1126loPI   PO417676  15.065   6.461   5.022  0.0842  0.0065  0.0575
 1126loPI   GL117677  15.221   6.367   5.460 -0.0981 -0.3850  0.0746
 1126loPI   GL217678  15.475   6.409   5.475  0.0709  0.3121 -0.0860
 1126loPI   C1A17679  14.966   6.098   5.677  0.0850  0.0421 -0.2086
 1126loPI   C2A17680  15.007   5.772   6.030  0.2758 -0.2942 -0.1578
 1126loPI   C3A17681  15.143   5.600   6.373  0.2483  0.1975 -0.2615
 1126loPI   C4A17682  14.936   5.331   6.556 -0.0890  0.3320 -0.3041
 1126loPI   C5A17683  14.554   5.396   6.798  0.3507  0.1633 -0.0360
 1126loPI   C6A17684  14.451   5.263   7.209  0.2038  0.3041  0.3004
 1126loPI   C1B17685  15.589   6.678   5.851 -0.0827  0.3580 -0.2071
 1126loPI   C2B17686  15.513   6.623   6.319  0.0003  0.2249  0.3655
 1126loPI   C3B17687  15.643   6.570   6.692 -0.1073  0.0959 -0.3071
 1126loPI   C4B17688  15.706   6.430   7.122 -0.3123  0.0141 -0.0678
 1127loPI    C117689  13.275   9.458   4.474  0.2107 -0.1028  0.1675
 1127loPI    C217690  13.266   9.799   4.683 -0.0080 -0.0096  0.0099
 1127loPI    C317691  13.425   9.794   4.316  0.1885 -0.1267  0.0953
 1127loPI   PO417692  13.222   9.312   4.715 -0.0962  0.3465 -0.1450
 1127loPI   GL117693  13.347   9.458   5.124  0.0987 -0.0300  0.2630
 1127loPI   GL217694  13.513   9.754   5.174 -0.3175 -0.2295  0.0782
 1127loPI   C1A17695  13.082   9.537   5.444 -0.1904 -0.1813  0.2781
 1127loPI   C2A17696  12.982   9.534   5.804 -0.3184  0.0490 -0.2197
 1127loPI   C3A17697  13.113   9.543   6.259 -0.0527  0.0329  0.0536
 1127loPI   C4A17698  12.961   9.610   6.660  0.0780 -0.4563  0.1684
 1127loPI   C5A17699  13.057   9.583   7.127  0.2553 -0.3889 -0.1863
 1127loPI   C6A17700  12.859   9.532   7.534  0.1271 -0.0205  0.2691
 1127loPI   C1B17701  13.505   9.642   5.694  0.1527 -0.1199 -0.2023
 1127loPI   C2B17702  13.519   9.874   6.039  0.2686 -0.2253  0.0993
 1127loPI   C3B17703  13.437  10.061   6.423  0.3125  0.3796  0.3421
 1127loPI   C4B17704  13.355  10.408   6.803 -0.3000  0.1896 -0.2124
 1128loPI    C117705   9.641   9.432   4.968  0.0651 -0.1422 -0.1691
 1128loPI    C217706   9.935   9.582   4.743  0.0112 -0.1848 -0.2685
 1128loPI    C317707   9.555   9.624   4.628 -0.0378  0.0739 -0.0239
 1128loPI   PO417708   9.608   9.574   5.164 -0.4972 -0.1218 -0.3904
 1128loPI   GL117709   9.720   9.433   5.498  0.0797  0.0181 -0.1420
 1128loPI   GL217710   9.556   9.156   5.413  0.0676  0.0910  0.1089
 1128loPI   C1A17711   9.645   9.414   5.953 -0.0092 -0.1126  0.1508
 1128loPI   C2A17712   9.436   9.343   6.377 -0.0271 -0.0631  0.2301
 1128loPI   C3A17713   9.311   9.162   6.729 -0.2442 -0.1958 -0.5420
 1128loPI   C4A17714   8.929   8.974   6.805 -0.0207  0.0631 -0.1481
 1128loPI   C5A17715   8.522   8.835   6.996 -0.0846 -0.1143  0.1213
 1128loPI   C6A17716   8.255   8.731   7.132  0.1062 -0.0525  0.0933
 1128loPI   C1B17717   9.370   9.032   5.925  0.0473  0.2644  0.2707
 1128loPI   C2B17718   9.181   8.851   6.209 -0.2237 -0.1553  0.1258
 1128loPI   C3B17719   9.079   8.505   6.444 -0.0760 -0.2174  0.1132
 1128loPI   C4B17720   9.369   8.217   6.649  0.0799 -0.1546 -0.0010
 1129loPI    C117721   5.757   7.371   4.494  0.3046 -0.0551 -0.0208
 1129loPI    C217722   5.496   7.071   4.463 -0.0607  0.2564 -0.0324
 1129loPI    C317723   5.702   7.190   4.142  0.0854  0.0221 -0.0278
 1129loPI   PO417724   5.753   7.408   4.727  0.0778  0.0302 -0.0785
 1129loPI   GL117725   5.825   7.316   5.173  0.1988  0.2451  0.0681
 1129loPI   GL217726   5.698   7.109   5.377  0.2325  0.2558 -0.0309
 1129loPI   C1A17727   5.860   7.590   5.487  0.1795 -0.1352  0.3401
 1129loPI   C2A17728   5.832   7.477   6.010 -0.1251  0.0681  0.0803
 1129loPI   C3A17729   5.817   7.425   6.533  0.0513  0.1156  0.1477
 1129loPI   C4A17730   5.805   7.221   7.012 -0.1691 -0.2948  0.1938
 1129loPI   C5A17731   5.857   6.784   7.108 -0.1948 -0.1935 -0.4205
 1129loPI   C6A17732   5.984   6.364   7.390 -0.0105 -0.3947 -0.1658
 1129loPI   C1B17733   5.482   6.688   5.610 -0.0029  0.0370  0.0334
 1129loPI   C2B17734   5.499   6.575   6.018 -0.1123  0.3245  0.4040
 1129loPI   C3B17735   5.736   6.326   6.282  0.0904 -0.1098  0.0191
 1129loPI   C4B17736   5.626   6.334   6.803 -0.1656 -0.1356 -0.2005
 1130loPI    C117737   7.117  14.419   4.512 -0.1178 -0.0073  0.0214
 1130loPI    C217738   7.263  14.474   4.143 -0.1944  0.1921  0.0197
 1130loPI    C317739   6.887  14.582   4.228 -0.1670  0.1760  0.1641
 1130loPI   PO417740   7.229  14.097   4.624  0.1693 -0.2973 -0.1901
 1130loPI   GL117741   7.356  13.901   5.023 -0.1559 -0.0391 -0.1094
 1130loPI   GL217742   7.326  13.644   4.884  0.3717 -0.2635 -0.2483
 1130loPI   C1A17743   7.138  14.063   5.367  0.0262  0.3244 -0.0275
 1130loPI   C2A17744   6.887  14.225   5.580  0.4065 -0.1445 -0.0534
 1130loPI   C3A17745   6.983  14.485   5.903 -0.4384 -0.2063 -0.1744
 1130loPI   C4A17746   6.761  14.880   6.148  0.2118  0.0764  0.3048
 1130loPI   C5A17747   6.357  14.920   6.445 -0.2524  0.1213 -0.2207
 1130loPI   C6A17748   6.199  15.317   6.596  0.1450  0.1021  0.1805
 1130loPI   C1B17749   7.082  13.541   5.256  0.0447 -0.2116  0.2118
 1130loPI   C2B17750   7.111  13.588   5.654 -0.0644  0.1286  0.0682
 1130loPI   C3B17751   7.221  13.727   5.948 -0.0035 -0.1706  0.1934
 1130loPI   C4B17752   6.947  14.000   6.008  0.2321  0.1419  0.1486
 1131loPI    C117753   4.876  10.065   4.807 -0.1367 -0.2208  0.2157
 1131loPI    C217754   5.084   9.821   4.568 -0.2033 -0.1256  0.0591
 1131loPI    C317755   4.685   9.832   4.544 -0.2008 -0.0056  0.0695
 1131loPI   PO417756   5.033   9.968   5.024  0.0059 -0.1537 -0.0849
 1131loPI   GL117757   5.248   9.886   5.350  0.2295 -0.1060 -0.1824
 1131loPI   GL217758   4.922   9.663   5.381 -0.1215 -0.3412 -0.0537
 1131loPI   C1A17759   5.204   9.834   5.866  0.1236  0.0234  0.1374
 1131loPI   C2A17760   5.424   9.820   6.128 -0.0436  0.1722 -0.1902
 1131loPI   C3A17761   5.589   9.686   6.656 -0.1531  0.2410 -0.0304
 1131loPI   C4A17762   5.459   9.966   6.996 -0.0973 -0.1155 -0.1524
 1131loPI   C5A17763   5.286  10.034   7.401  0.0108  0.1389 -0.1235
 1131loPI   C6A17764   4.918  10.223   7.607  0.0899 -0.0697  0.2908
 1131loPI   C1B17765   4.602   9.339   5.436 -0.1563 -0.5757 -0.1076
 1131loPI   C2B17766   4.562   8.982   5.627 -0.1228 -0.0498  0.1432
 1131loPI   C3B17767   4.279   8.722   5.834 -0.1452 -0.1763  0.2119
 1131loPI   C4B17768   3.902   8.507   5.702 -0.1282  0.1179 -0.0117
 1132loPI    C117769  16.555   5.734   4.914 -0.0445  0.4429 -0.0355
 1132loPI    C217770  16.953   5.691   4.922 -0.0852 -0.0113 -0.1554
 1132loPI    C317771  16.792   6.046   4.834  0.2913  0.1703 -0.1315
 1132loPI   PO417772  16.446   5.611   5.069 -0.3089 -0.0359  0.0313
 1132loPI   GL117773  16.188   5.577   5.376  0.2823  0.0816 -0.1240
 1132loPI   GL217774  15.984   5.562   5.246  0.1447  0.3462 -0.2983
 1132loPI   C1A17775  16.242   5.798   5.776  0.3352 -0.5394 -0.0416
 1132loPI   C2A17776  16.050   5.842   6.146  0.0009 -0.1058 -0.0583
 1132loPI   C3A17777  15.861   5.674   6.548  0.0411  0.1459  0.2375
 1132loPI   C4A17778  15.564   5.545   6.839 -0.3970  0.0712  0.0502
 1132loPI   C5A17779  15.375   5.145   6.765  0.0324  0.0806  0.2832
 1132loPI   C6A17780  14.931   5.156   7.018 -0.2941  0.1294  0.2023
 1132loPI   C1B17781  15.780   5.540   5.634 -0.2273  0.1334  0.0774
 1132loPI   C2B17782  15.684   5.546   5.982  0.4211  0.0156  0.0702
 1132loPI   C3B17783  15.813   5.196   6.354 -0.0868 -0.1824  0.0070
 1132loPI   C4B17784  15.939   5.128   6.734 -0.3050  0.2169 -0.1291
 1133loPI    C117785   4.578  13.827   4.273  0.1139 -0.0608 -0.0339
 1133loPI    C217786   4.559  13.542   3.994  0.1829 -0.0177 -0.0828
 1133loPI    C317787   4.442  13.914   3.907  0.0826 -0.0334 -0.0158
 1133loPI   PO417788   4.489  13.631   4.524 -0.2269  0.2112 -0.0332
 1133loPI   GL117789   4.417  13.607   4.974 -0.0841 -0.1265  0.1661
 1133loPI   GL217790   4.407  13.967   5.029  0.0707  0.1265 -0.1382
 1133loPI   C1A17791   4.021  13.468   5.229  0.1671  0.2899 -0.3719
 1133loPI   C2A17792   3.673  13.342   5.444 -0.0907  0.1570 -0.1715
 1133loPI   C3A17793   3.551  13.192   5.752  0.0072  0.0022 -0.0905
 1133loPI   C4A17794   3.625  13.258   6.154 -0.3182 -0.0257 -0.1165
 1133loPI   C5A17795   3.460  13.398   6.514  0.1120 -0.1839  0.0020
 1133loPI   C6A17796   3.262  13.707   6.828 -0.3400  0.1897 -0.0264
 1133loPI   C1B17797   4.212  13.913   5.437 -0.0249  0.0630  0.1113
 1133loPI   C2B17798   4.132  13.639   5.760  0.0411 -0.3845  0.0377
 1133loPI   C3B17799   3.952  13.688   6.214 -0.3678  0.0159 -0.1368
 1133loPI   C4B17800   3.783  13.815   6.549  0.1399 -0.1168 -0.0152
 1134loPI    C117801  15.927   0.669   4.685 -0.1156  0.0802 -0.0566
 1134loPI    C217802  16.271   0.620   4.486 -0.0644 -0.0985  0.0731
 1134loPI    C317803  15.991   0.868   4.344  0.0852 -0.0122 -0.0748
 1134loPI   PO417804  15.938   0.747   4.935 -0.1182  0.1361  0.0626
 1134loPI   GL117805  15.903   0.722   5.338  0.0247  0.0174 -0.4215
 1134loPI   GL217806  15.711   0.750   5.510  0.3776 -0.1932  0.0887
 1134loPI   C1A17807  16.181   1.004   5.679 -0.0345  0.0895 -0.1599
 1134loPI   C2A17808  16.138   0.950   6.088  0.2657 -0.2841  0.3133
 1134loPI   C3A17809  16.138   0.872   6.509  0.1028 -0.2130 -0.0452
 1134loPI   C4A17810  16.431   0.834   6.864  0.1959  0.0472 -0.1207
 1134loPI   C5A17811  16.230   0.923   7.267 -0.1611 -0.3120 -0.3323
 1134loPI   C6A17812  15.954   0.622   7.540 -0.0768 -0.2491  0.1048
 1134loPI   C1B17813  15.857   0.506   5.789  0.2072 -0.3390  0.0753
 1134loPI   C2B17814  15.953   0.391   6.204 -0.2431  0.2609  0.1876
 1134loPI   C3B17815  15.985   0.414   6.596  0.2891  0.0825 -0.0521
 1134loPI   C4B17816  16.026   0.406   7.010  0.0696  0.0379 -0.1868
 1135loPI    C117817   3.829   0.156   4.685  0.0686  0.0174 -0.2164
 1135loPI    C217818   3.841   0.458   4.946  0.0566 -0.1923  0.0304
 1135loPI    C317819   3.611   0.485   4.620 -0.2419 -0.0877  0.2441
 1135loPI   PO417820   3.691  -0.043   4.936 -0.0052 -0.0611  0.3058
 1135loPI   GL117821   3.631   0.028   5.326  0.0041  0.1517 -0.0942
 1135loPI   GL217822   3.905   0.279   5.389  0.1592 -0.2840 -0.0781
 1135loPI   C1A17823   3.480   0.201   5.715  0.0561  0.3328  0.1027
 1135loPI   C2A17824   3.564   0.059   6.279 -0.1549 -0.2097  0.1520
 1135loPI   C3A17825   3.580   0.191   6.649  0.0232  0.1254 -0.1083
 1135loPI   C4A17826   3.578   0.049   7.083  0.1183  0.3652 -0.0522
 1135loPI   C5A17827   3.572  -0.036   7.623 -0.0205  0.0251  0.1868
 1135loPI   C6A17828   3.386   0.079   7.883 -0.0583 -0.1524 -0.1507
 1135loPI   C1B17829   3.925   0.481   5.848 -0.0011 -0.3545 -0.1007
 1135loPI   C2B17830   3.962   0.556   6.237 -0.4346  0.0141  0.0766
 1135loPI   C3B17831   3.827   0.598   6.618 -0.2212 -0.3182  0.0081
 1135loPI   C4B17832   3.441   0.891   6.698  0.1150 -0.2353  0.1408
 1136loPI    C117833   7.006   2.709   4.831  0.1994  0.0120 -0.1939
 1136loPI    C217834   7.173   2.346   4.834  0.1660 -0.0043  0.1585
 1136loPI    C317835   7.048   2.507   4.489  0.0335 -0.3940  0.0190
 1136loPI   PO417836   7.105   2.797   5.000  0.1539 -0.1758 -0.1369
 1136loPI   GL117837   7.179   3.114   5.214 -0.0803 -0.0390 -0.2798
 1136loPI   GL217838   7.564   3.310   5.150  0.2186 -0.2594  0.2324
 1136loPI   C1A17839   7.247   3.467   5.644 -0.2712  0.0472 -0.1459
 1136loPI   C2A17840   7.165   3.394   6.152 -0.1120  0.1092  0.2522
 1136loPI   C3A17841   6.883   3.326   6.626 -0.0021 -0.1847 -0.0469
 1136loPI   C4A17842   6.760   3.487   6.978  0.0135 -0.0994 -0.4684
 1136loPI   C5A17843   6.807   3.911   7.260 -0.0141  0.1689  0.4472
 1136loPI   C6A17844   6.838   4.302   7.443 -0.2586 -0.0593  0.0983
 1136loPI   C1B17845   7.655   3.106   5.543 -0.0293 -0.0376 -0.1191
 1136loPI   C2B17846   7.488   3.123   5.923 -0.0940  0.2828 -0.3922
 1136loPI   C3B17847   7.605   3.057   6.370 -0.0996 -0.2258  0.2030
 1136loPI   C4B17848   7.538   2.977   6.856  0.1638 -0.0004  0.0669
 1137loPI    C117849   2.507   3.044   4.930  0.0055 -0.1067  0.0281
 1137loPI    C217850   2.109   3.026   4.897 -0.0115  0.3022 -0.0350
 1137loPI    C317851   2.339   2.995   4.571  0.0157 -0.0187  0.0113
 1137loPI   PO417852   2.585   2.886   5.134  0.1236  0.5128  0.0612
 1137loPI   GL117853   2.470   2.681   5.501  0.1656  0.0856 -0.2033
 1137loPI   GL217854   2.223   2.488   5.587 -0.0009  0.0705 -0.0861
 1137loPI   C1A17855   2.460   2.974   5.867 -0.4584 -0.0948  0.0640
 1137loPI   C2A17856   2.332   2.922   6.356 -0.0543  0.6628  0.0196
 1137loPI   C3A17857   2.152   2.860   6.797  0.1530  0.4479 -0.2129
 1137loPI   C4A17858   2.120   2.593   7.259  0.2050 -0.0330 -0.1025
 1137loPI   C5A17859   1.751   2.792   7.595 -0.4385  0.1781 -0.1211
 1137loPI   C6A17860   1.575   3.174   7.650  0.0895  0.0538 -0.0259
 1137loPI   C1B17861   2.237   2.509   6.093 -0.1416  0.0236  0.1594
 1137loPI   C2B17862   2.081   2.310   6.431  0.1485  0.0436  0.0403
 1137loPI   C3B17863   1.801   2.209   6.792 -0.1991 -0.2512 -0.4273
 1137loPI   C4B17864   1.435   2.119   7.059 -0.0867 -0.3314 -0.2660
 1138loPI    C117865   2.898   1.337   4.681  0.2169  0.3911 -0.1185
 1138loPI    C217866   2.638   1.433   4.392 -0.0601 -0.2598 -0.1047
 1138loPI    C317867   2.971   1.230   4.302  0.2028  0.1368 -0.0518
 1138loPI   PO417868   2.740   1.209   4.966  0.3490  0.0866  0.0719
 1138loPI   GL117869   2.736   0.941   5.284 -0.1794 -0.0671 -0.4661
 1138loPI   GL217870   2.553   0.794   5.511  0.2702 -0.3795 -0.0858
 1138loPI   C1A17871   3.117   0.988   5.540 -0.0494  0.2838  0.0693
 1138loPI   C2A17872   3.101   0.903   6.050 -0.1157  0.0750  0.3397
 1138loPI   C3A17873   2.818   0.906   6.274 -0.1203 -0.1434 -0.2188
 1138loPI   C4A17874   2.942   0.974   6.691  0.4669  0.2055  0.4221
 1138loPI   C5A17875   2.588   1.184   7.065 -0.0293 -0.0551 -0.1424
 1138loPI   C6A17876   2.251   1.004   7.377  0.0232  0.2234 -0.1386
 1138loPI   C1B17877   2.657   0.631   5.901  0.1811 -0.3414  0.0380
 1138loPI   C2B17878   2.705   0.401   6.338  0.0709  0.0107  0.0421
 1138loPI   C3B17879   2.653   0.362   6.799  0.0333 -0.2010 -0.0375
 1138loPI   C4B17880   2.736   0.294   7.254 -0.1332  0.0922  0.0949
 1139loPI    C117881  18.490   8.489   4.495 -0.0705  0.0536 -0.2961
 1139loPI    C217882  18.545   8.859   4.637  0.0590 -0.0116 -0.1730
 1139loPI    C317883  18.857   8.648   4.503  0.0390 -0.2029  0.0750
 1139loPI   PO417884  18.476   8.280   4.651  0.0063 -0.0472  0.0864
 1139loPI   GL117885  18.459   7.972   4.953 -0.0309  0.1493 -0.0287
 1139loPI   GL217886  18.751   7.928   4.893 -0.2498  0.2578 -0.0532
 1139loPI   C1A17887  18.443   8.181   5.388 -0.0282  0.2386  0.1619
 1139loPI   C2A17888  18.489   8.124   5.795 -0.0762  0.2205  0.0755
 1139loPI   C3A17889  18.477   8.290   6.247  0.2527  0.0447  0.2927
 1139loPI   C4A17890  18.833   8.371   6.610 -0.0733 -0.0132 -0.2936
 1139loPI   C5A17891  18.932   8.580   6.997  0.0671  0.3659  0.1118
 1139loPI   C6A17892  18.898   8.454   7.488  0.3107 -0.0429  0.0230
 1139loPI   C1B17893  18.912   7.816   5.352 -0.3336 -0.0570  0.1468
 1139loPI   C2B17894  18.987   7.710   5.891  0.0140 -0.2796  0.2398
 1139loPI   C3B17895  19.202   7.502   6.134 -0.1562  0.1261  0.1850
 1139loPI   C4B17896  19.426   7.433   6.552  0.0594 -0.1389  0.0547
 1140loPI    C117897   4.021  12.018   4.492 -0.0816 -0.2196  0.0892
 1140loPI    C217898   3.753  11.898   4.220 -0.2042  0.0854  0.0711
 1140loPI    C317899   4.080  12.097   4.104 -0.1683  0.0612  0.1306
 1140loPI   PO417900   4.012  12.095   4.704  0.0674 -0.0043 -0.1827
 1140loPI   GL117901   3.756  12.080   5.094  0.1392 -0.0503  0.0165
 1140loPI   GL217902   3.483  12.188   5.155 -0.2321 -0.1338  0.0544
 1140loPI   C1A17903   3.952  12.147   5.402 -0.3363  0.1218 -0.0340
 1140loPI   C2A17904   3.903  12.411   5.739 -0.2700 -0.0345  0.2891
 1140loPI   C3A17905   3.831  12.770   6.089 -0.0566 -0.2333  0.0240
 1140loPI   C4A17906   3.768  12.861   6.506 -0.0036 -0.1172 -0.3322
 1140loPI   C5A17907   3.768  12.476   6.883 -0.0682  0.1259  0.6427
 1140loPI   C6A17908   3.784  11.990   6.916  0.1480  0.1402 -0.0304
 1140loPI   C1B17909   3.419  12.211   5.610  0.0185 -0.0730  0.2718
 1140loPI   C2B17910   3.465  12.205   6.036 -0.1513 -0.2116  0.0943
 1140loPI   C3B17911   3.463  12.456   6.426  0.1513  0.0165 -0.2679
 1140loPI   C4B17912   3.313  12.842   6.685 -0.2510 -0.1253  0.0881
 1141loPI    C117913   6.389  11.159   5.117 -0.2347  0.0616  0.0277
 1141loPI    C217914   6.599  10.853   5.265 -0.1214  0.0853 -0.0825
 1141loPI    C317915   6.566  10.900   4.869  0.1385  0.4008 -0.0714
 1141loPI   PO417916   6.451  11.317   5.392  0.0954 -0.1061  0.0802
 1141loPI   GL117917   6.732  11.118   5.717  0.2352 -0.2930 -0.0107
 1141loPI   GL217918   6.984  11.162   5.618  0.1526  0.1337 -0.4719
 1141loPI   C1A17919   6.543  11.086   6.040  0.1543 -0.1077 -0.0996
 1141loPI   C2A17920   6.256  11.364   6.234 -0.1515  0.1607 -0.0605
 1141loPI   C3A17921   6.290  11.311   6.660 -0.3185 -0.0341 -0.2139
 1141loPI   C4A17922   6.510  11.261   7.040  0.2502 -0.3048  0.3573
 1141loPI   C5A17923   6.801  11.428   7.011 -0.1337 -0.2024 -0.0011
 1141loPI   C6A17924   7.204  11.415   6.712  0.1125 -0.0960  0.2944
 1141loPI   C1B17925   7.130  11.132   5.999 -0.0586 -0.0447 -0.1560
 1141loPI   C2B17926   6.995  11.317   6.259  0.0023 -0.2893 -0.0849
 1141loPI   C3B17927   6.721  11.163   6.558  0.1428  0.0601  0.0753
 1141loPI   C4B17928   6.691  10.822   6.866 -0.1272  0.1592 -0.0042
 1142loPI    C117929   2.915  16.341   4.776 -0.2028  0.1286  0.1465
 1142loPI    C217930   3.151  16.655   4.851  0.0069  0.0559 -0.1825
 1142loPI    C317931   2.955  16.631   4.503 -0.0752 -0.1373 -0.1246
 1142loPI   PO417932   2.851  16.309   4.986  0.2521 -0.0303  0.4272
 1142loPI   GL117933   2.858  16.620   5.265  0.1653 -0.0974  0.2548
 1142loPI   GL217934   2.981  16.945   5.241 -0.1436  0.1725  0.2880
 1142loPI   C1A17935   2.995  16.552   5.615 -0.2024  0.1260 -0.4107
 1142loPI   C2A17936   3.187  16.792   5.914  0.0050 -0.3367 -0.0178
 1142loPI   C3A17937   3.253  16.959   6.197 -0.0485 -0.0154 -0.0380
 1142loPI   C4A17938   3.169  17.045   6.638 -0.0640  0.0357 -0.1643
 1142loPI   C5A17939   3.054  17.096   7.051 -0.3550 -0.0606  0.3374
 1142loPI   C6A17940   2.749  16.869   7.412  0.2449  0.0951 -0.0389
 1142loPI   C1B17941   2.799  17.085   5.681 -0.0966  0.0098 -0.2138
 1142loPI   C2B17942   2.740  17.151   6.121 -0.1917  0.1535 -0.2324
 1142loPI   C3B17943   2.700  17.287   6.493 -0.2039 -0.3468 -0.1180
 1142loPI   C4B17944   2.754  17.543   6.884 -0.2492 -0.1439 -0.2174
 1143loPI    C117945   9.758  14.537   4.296  0.0598 -0.2200 -0.0510
 1143loPI    C217946  10.005  14.825   4.168  0.1873 -0.2580  0.1055
 1143loPI    C317947   9.634  14.799   4.021  0.1205  0.0837  0.2044
 1143loPI   PO417948   9.879  14.471   4.538 -0.0571  0.0504  0.4589
 1143loPI   GL117949  10.071  14.337   4.945  0.2663 -0.1847 -0.1066
 1143loPI   GL217950   9.775  14.246   5.038  0.1991 -0.2025  0.2134
 1143loPI   C1A17951  10.158  14.318   5.351 -0.4245 -0.0941 -0.2845
 1143loPI   C2A17952  10.078  14.402   5.764 -0.2935  0.1835 -0.0104
 1143loPI   C3A17953   9.931  14.284   6.110  0.0326  0.1700  0.0085
 1143loPI   C4A17954   9.877  14.350   6.538 -0.1484 -0.1930  0.2531
 1143loPI   C5A17955  10.067  14.623   6.863 -0.1247  0.5184 -0.0108
 1143loPI   C6A17956  10.332  14.439   7.237  0.0798  0.0769 -0.1463
 1143loPI   C1B17957   9.508  13.953   5.431  0.0469 -0.3122 -0.1928
 1143loPI   C2B17958   9.481  14.065   5.865  0.1124 -0.0114 -0.0695
 1143loPI   C3B17959   9.494  14.015   6.284  0.0001  0.2422 -0.0939
 1143loPI   C4B17960   9.427  14.158   6.677  0.1067 -0.0963  0.0988
 1144loPI    C117961  15.741  17.442   4.543  0.2809  0.1395  0.1956
 1144loPI    C217962  15.701  17.776   4.327 -0.1268  0.0263  0.0876
 1144loPI    C317963  16.000  17.523   4.249 -0.0333  0.1845 -0.0755
 1144loPI   PO417964  15.662  17.608   4.798 -0.0721 -0.1918 -0.1176
 1144loPI   GL117965  15.824  17.519   5.130  0.3042  0.2246 -0.2327
 1144loPI   GL217966  16.102  17.771   5.223  0.0626 -0.2640  0.2870
 1144loPI   C1A17967  15.648  17.775   5.496  0.0404 -0.4131 -0.1600
 1144loPI   C2A17968  15.476  18.050   5.705  0.2663  0.1444 -0.0794
 1144loPI   C3A17969  15.576  18.208   6.054 -0.1993  0.1231 -0.2008
 1144loPI   C4A17970  15.386  18.235   6.460 -0.0149 -0.3069  0.2291
 1144loPI   C5A17971  15.067  18.394   6.568 -0.0627  0.2484 -0.1683
 1144loPI   C6A17972  14.908  18.715   6.422  0.0086  0.3184 -0.3108
 1144loPI   C1B17973  16.126  17.580   5.590  0.2239  0.1404 -0.2269
 1144loPI   C2B17974  16.333  17.494   5.973  0.0705  0.2467  0.0307
 1144loPI   C3B17975  16.629  17.368   6.218 -0.0318  0.1145  0.0657
 1144loPI   C4B17976  16.615  17.299   6.574  0.2880 -0.1468 -0.3560
 1145loPI    C117977   9.210   9.808   4.900  0.2202 -0.1828 -0.1017
 1145loPI    C217978   9.047   9.726   4.544  0.0882 -0.0986 -0.0616
 1145loPI    C317979   9.286  10.044   4.587  0.0087 -0.0403 -0.0483
 1145loPI   PO417980   9.148   9.854   5.066  0.2431  0.2355 -0.1545
 1145loPI   GL117981   9.281   9.850   5.504 -0.1534 -0.3574 -0.2182
 1145loPI   GL217982   9.362  10.194   5.418  0.0485  0.3064 -0.0986
 1145loPI   C1A17983   9.107  10.065   5.915  0.1554 -0.0908  0.4898
 1145loPI   C2A17984   8.968  10.190   6.338  0.1903 -0.1152  0.4102
 1145loPI   C3A17985   8.850  10.176   6.702  0.1282  0.3074 -0.1801
 1145loPI   C4A17986   8.965   9.858   7.047 -0.0343 -0.1297  0.4060
 1145loPI   C5A17987   9.191   9.765   7.413  0.0767 -0.2960  0.2102
 1145loPI   C6A17988   9.545   9.919   7.619 -0.0184 -0.0614  0.0743
 1145loPI   C1B17989   9.601  10.184   5.795  0.1008  0.0543  0.1526
 1145loPI   C2B17990   9.506  10.342   6.143  0.2297  0.0550 -0.2660
 1145loPI   C3B17991   9.708  10.453   6.474 -0.3891 -0.2880  0.0694
 1145loPI   C4B17992   9.809  10.446   6.801  0.0675 -0.0909  0.0377
 1146loPI    C117993   4.554   3.289   4.688 -0.0178  0.3893  0.1348
 1146loPI    C217994   4.277   3.309   4.400 -0.0018  0.1842  0.1043
 1146loPI    C317995   4.657   3.223   4.307 -0.0083  0.0570  0.1920
 1146loPI   PO417996   4.514   3.193   4.877  0.1497  0.0403  0.0689
 1146loPI   GL117997   4.550   3.105   5.342 -0.0276  0.4179  0.2369
 1146loPI   GL217998   4.256   2.804   5.519 -0.0217 -0.0811 -0.1111
 1146loPI   C1A17999   4.661   3.030   5.759  0.2900  0.2035 -0.4244
 1146loPI   C2A18000   4.770   2.879   6.292 -0.2362  0.2163  0.1255
 1146loPI   C3A18001   4.716   3.006   6.737 -0.0236  0.5338  0.1511
 1146loPI   C4A18002   4.468   3.322   7.004 -0.1055 -0.0089 -0.1538
 1146loPI   C5A18003   4.384   3.793   7.166  0.1100  0.0040 -0.1161
 1146loPI   C6A18004   4.692   4.063   7.469  0.0835 -0.0105 -0.2395
 1146loPI   C1B18005   3.822   2.924   5.761  0.0111 -0.0244 -0.0650
 1146loPI   C2B18006   3.735   3.041   6.195 -0.1492  0.0797  0.1366
 1146loPI   C3B18007   3.551   2.906   6.581 -0.0972 -0.2385 -0.0724
 1146loPI   C4B18008   3.663   2.968   6.934  0.1425 -0.3065  0.0772
 1147loPI    C118009   7.419   8.159   4.327 -0.0444  0.0681 -0.0609
 1147loPI    C218010   7.204   7.856   4.181 -0.0113 -0.0496  0.1307
 1147loPI    C318011   7.418   8.086   3.934 -0.3026  0.0280 -0.0544
 1147loPI   PO418012   7.644   8.043   4.595  0.0291 -0.3804  0.0891
 1147loPI   GL118013   7.570   8.100   5.010 -0.0956 -0.2818 -0.1132
 1147loPI   GL218014   7.933   7.929   5.152 -0.0232 -0.4898  0.0988
 1147loPI   C1A18015   7.869   8.362   5.386  0.0493 -0.4921  0.3776
 1147loPI   C2A18016   8.222   8.421   5.790  0.0584  0.1259 -0.1701
 1147loPI   C3A18017   8.322   8.481   6.224 -0.2079  0.0994 -0.0081
 1147loPI   C4A18018   8.620   8.476   6.645  0.0149  0.1681 -0.1625
 1147loPI   C5A18019   8.925   8.283   6.889  0.2129  0.1488  0.2341
 1147loPI   C6A18020   8.965   8.512   7.257  0.2027 -0.0417  0.0208
 1147loPI   C1B18021   7.936   7.934   5.579 -0.3152  0.4249  0.0996
 1147loPI   C2B18022   7.809   8.171   5.933 -0.1485 -0.1769  0.0736
 1147loPI   C3B18023   7.802   8.564   6.010  0.2768 -0.0297  0.0197
 1147loPI   C4B18024   8.103   9.001   6.004 -0.1159 -0.0026  0.0383
 1148loPI    C118025  14.597   6.935   5.145  0.1064 -0.2981  0.1271
 1148loPI    C218026  14.924   6.977   4.919 -0.0898  0.1863 -0.0799
 1148loPI    C318027  14.568   6.918   4.746 -0.1560 -0.0501  0.1321
 1148loPI   PO418028  14.613   7.070   5.352 -0.4412  0.0167 -0.2104
 1148loPI   GL118029  14.706   7.023   5.731 -0.0937 -0.2555  0.1719
 1148loPI   GL218030  14.565   7.324   5.818  0.0524  0.0955  0.0716
 1148loPI   C1A18031  14.639   6.902   6.130 -0.0783  0.0346 -0.1515
 1148loPI   C2A18032  15.056   6.939   6.308 -0.0472  0.0696  0.2312
 1148loPI   C3A18033  15.153   6.689   6.674 -0.1410  0.0898 -0.0279
 1148loPI   C4A18034  15.180   6.406   6.981 -0.1140  0.0377  0.0925
 1148loPI   C5A18035  15.026   6.098   7.282  0.0816 -0.0856  0.0947
 1148loPI   C6A18036  14.831   5.611   7.468 -0.0751 -0.0137 -0.0766
 1148loPI   C1B18037  14.798   7.410   6.188 -0.1947  0.3426 -0.0227
 1148loPI   C2B18038  14.878   7.290   6.660 -0.0765 -0.1344  0.4762
 1148loPI   C3B18039  15.118   7.293   6.936 -0.1613  0.3049 -0.3201
 1148loPI   C4B18040  15.247   7.439   7.305  0.1556  0.0460 -0.0701
 1149loPI    C118041  10.861  10.615   4.808  0.0813 -0.1628 -0.0504
 1149loPI    C218042  10.830  10.994   4.685  0.1600 -0.1162  0.0706
 1149loPI    C318043  10.643  10.702   4.485 -0.0533  0.0085  0.0845
 1149loPI   PO418044  10.917  10.666   5.074 -0.0035 -0.2285  0.1396
 1149loPI   GL118045  10.714  10.540   5.437  0.2182  0.0090  0.0647
 1149loPI   GL218046  10.805  10.791   5.569 -0.1672  0.4657 -0.3942
 1149loPI   C1A18047  10.623  10.378   5.878 -0.3518 -0.2294  0.1730
 1149loPI   C2A18048  10.940  10.492   6.116 -0.1742  0.1609 -0.1676
 1149loPI   C3A18049  11.273  10.738   6.203  0.2048 -0.1526 -0.2212
 1149loPI   C4A18050  11.671  10.752   6.534  0.2048  0.0370 -0.0398
 1149loPI   C5A18051  11.816  10.510   6.925  0.2277  0.0859  0.2715
 1149loPI   C6A18052  11.885   9.962   7.051  0.1802 -0.1447 -0.0369
 1149loPI   C1B18053  11.022  11.143   5.937 -0.0693  0.1152  0.1687
 1149loPI   C2B18054  11.073  11.219   6.390 -0.2340  0.0201 -0.0743
 1149loPI   C3B18055  10.783  11.300   6.665  0.3295 -0.0066 -0.0083
 1149loPI   C4B18056  10.878  11.051   7.084 -0.1300  0.2524  0.0860
 1150loPI    C118057  10.955   4.935   4.654  0.0827 -0.0988 -0.1778
 1150loPI    C218058  10.642   5.182   4.684  0.2778  0.1125  0.1936
 1150loPI    C318059  10.852   5.167   4.344 -0.1720 -0.0857 -0.0854
 1150loPI   PO418060  11.064   4.934   4.807  0.0864 -0.1045 -0.4531
 1150loPI   GL118061  10.975   5.096   5.161  0.3901  0.1823 -0.2623
 1150loPI   GL218062  11.340   5.233   5.364 -0.0924 -0.1474 -0.2957
 1150loPI   C1A18063  10.902   5.086   5.599  0.1788  0.1768 -0.2749
 1150loPI   C2A18064  10.913   5.228   5.986 -0.2635 -0.2572 -0.1399
 1150loPI   C3A18065  11.135   5.093   6.338  0.0362 -0.1346  0.0285
 1150loPI   C4A18066  11.184   4.977   6.735 -0.0436  0.1479 -0.0335
 1150loPI   C5A18067  11.525   4.845   7.064  0.3491 -0.1032 -0.0067
 1150loPI   C6A18068  11.875   4.664   7.150  0.0278 -0.2393 -0.1767
 1150loPI   C1B18069  11.363   5.282   5.745 -0.3223 -0.1299  0.1459
 1150loPI   C2B18070  11.591   5.286   6.079  0.1860  0.1088 -0.0073
 1150loPI   C3B18071  11.623   5.085   6.491 -0.1732  0.2129 -0.2297
 1150loPI   C4B18072  11.963   5.056   6.815  0.0960  0.0657 -0.0592
 1151loPI    C118073  15.603  11.782   4.067  0.2333  0.2031 -0.2804
 1151loPI    C218074  15.237  11.819   3.911  0.1540  0.1220 -0.1158
 1151loPI    C318075  15.440  11.478   3.865  0.1637  0.1272 -0.1118
 1151loPI   PO418076  15.579  12.003   4.232 -0.2111 -0.0460 -0.0460
 1151loPI   GL118077  15.623  12.022   4.752 -0.2188  0.0324 -0.1279
 1151loPI   GL218078  15.420  11.752   4.900 -0.0547  0.0554  0.1670
 1151loPI   C1A18079  15.916  12.318   4.949  0.1055  0.2651  0.1338
 1151loPI   C2A18080  15.854  12.579   5.298  0.0432  0.1560 -0.1270
 1151loPI   C3A18081  15.951  12.645   5.672  0.2345 -0.0103  0.0584
 1151loPI   C4A18082  15.826  12.542   6.060  0.3955  0.2136  0.0899
 1151loPI   C5A18083  15.708  12.229   6.338  0.0895  0.2393 -0.3858
 1151loPI   C6A18084  15.894  12.145   6.750 -0.1195  0.2514 -0.1736
 1151loPI   C1B18085  15.185  11.658   5.168  0.1509  0.0809 -0.1438
 1151loPI   C2B18086  14.875  11.674   5.542  0.0901  0.0649  0.0551
 1151loPI   C3B18087  14.685  11.815   5.944  0.1055  0.1321 -0.0162
 1151loPI   C4B18088  14.690  11.864   6.351 -0.0258 -0.1852 -0.2016
 1152loPI    C118089  17.755   0.373   4.560 -0.0983 -0.1395  0.2630
 1152loPI    C218090  17.784   0.131   4.243  0.2099  0.0780  0.1205
 1152loPI    C318091  17.674   0.513   4.194  0.1196  0.0755  0.2947
 1152loPI   PO418092  17.646   0.195   4.721  0.1832  0.2085  0.0788
 1152loPI   GL118093  17.513   0.210   5.033  0.0798  0.1343 -0.0255
 1152loPI   GL218094  17.265   0.000   4.937  0.0201  0.1572 -0.0694
 1152loPI   C1A18095  17.510   0.070   5.433  0.1478 -0.1552  0.2041
 1152loPI   C2A18096  17.463   0.348   5.904 -0.0415  0.0389  0.0334
 1152loPI   C3A18097  17.368   0.237   6.344  0.0173  0.1057 -0.0106
 1152loPI   C4A18098  17.670  -0.014   6.621 -0.0514 -0.0303 -0.0503
 1152loPI   C5A18099  17.959  -0.366   6.720  0.1781 -0.3669  0.0066
 1152loPI   C6A18100  18.148  -0.664   7.059  0.0189  0.1062  0.0425
 1152loPI   C1B18101  16.929   0.245   5.259  0.0622  0.0656 -0.0292
 1152loPI   C2B18102  16.662   0.587   5.308 -0.0693 -0.0454 -0.0335
 1152loPI   C3B18103  16.671   0.890   5.618 -0.2359 -0.2644 -0.1797
 1152loPI   C4B18104  16.645   1.096   5.983  0.1042 -0.1257 -0.0884
 1153loPI    C118105   5.214  19.478   4.643 -0.1062 -0.0946 -0.0244
 1153loPI    C218106   5.332  19.201   4.379  0.2565 -0.2258  0.2673
 1153loPI    C318107   5.457  19.580   4.342 -0.2717 -0.0800 -0.1548
 1153loPI   PO418108   5.107  19.316   4.864  0.0139  0.1138 -0.1931
 1153loPI   GL118109   5.326  19.207   5.157  0.1238 -0.0730  0.5890
 1153loPI   GL218110   5.400  19.508   5.204 -0.0703  0.0496 -0.2549
 1153loPI   C1A18111   5.153  19.240   5.670 -0.2232  0.3309  0.0954
 1153loPI   C2A18112   5.105  19.107   6.110 -0.2257 -0.2596  0.1298
 1153loPI   C3A18113   4.872  18.986   6.499  0.1471 -0.0364 -0.0965
 1153loPI   C4A18114   4.933  18.938   6.915  0.1528  0.5105 -0.2782
 1153loPI   C5A18115   5.092  18.702   7.208 -0.1235 -0.0089  0.0938
 1153loPI   C6A18116   4.829  18.353   7.360  0.0686 -0.3125  0.0377
 1153loPI   C1B18117   5.582  19.520   5.542  0.0965  0.3064  0.2120
 1153loPI   C2B18118   5.849  19.557   5.872 -0.1471  0.3721 -0.0142
 1153loPI   C3B18119   5.944  19.519   6.227 -0.1267  0.0892 -0.0936
 1153loPI   C4B18120   5.816  19.562   6.645 -0.2073 -0.0535 -0.0726
 1154loPI    C118121  16.222   0.114   4.607  0.0467 -0.0078  0.1756
 1154loPI    C218122  15.935  -0.145   4.506 -0.1099  0.0519  0.4562
 1154loPI    C318123  15.868   0.248   4.477  0.0227  0.0647  0.3136
 1154loPI   PO418124  16.252  -0.032   4.864  0.2163 -0.3363 -0.1474
 1154loPI   GL118125  16.333  -0.003   5.270  0.1347  0.0750 -0.2056
 1154loPI   GL218126  16.158   0.303   5.439 -0.0378 -0.0533 -0.0098
 1154loPI   C1A18127  16.528   0.014   5.636 -0.1007  0.3346 -0.2612
 1154loPI   C2A18128  16.631  -0.287   5.963  0.1850  0.4003  0.0180
 1154loPI   C3A18129  16.715  -0.454   6.400 -0.0265  0.0193 -0.0875
 1154loPI   C4A18130  16.873  -0.504   6.777  0.2717  0.1646 -0.0053
 1154loPI   C5A18131  17.193  -0.697   7.121  0.3178 -0.0561 -0.1411
 1154loPI   C6A18132  17.655  -0.703   7.028  0.0619 -0.0807  0.2633
 1154loPI   C1B18133  16.364   0.528   5.717  0.0150  0.1841 -0.0657
 1154loPI   C2B18134  16.460   0.606   6.198 -0.1813 -0.2360  0.1602
 1154loPI   C3B18135  16.448   0.416   6.599 -0.3166 -0.3088 -0.0154
 1154loPI   C4B18136  16.626  -0.050   6.669 -0.1507  0.0039  0.1641
 1155loPI    C118137   1.342   3.965   4.437  0.0555  0.0367  0.0967
 1155loPI    C218138   0.957   4.067   4.407  0.0349 -0.0155  0.1830
 1155loPI    C318139   1.229   4.342   4.507  0.0640  0.0936 -0.1827
 1155loPI   PO418140   1.358   3.684   4.611  0.1830 -0.0459  0.1225
 1155loPI   GL118141   1.369   3.581   5.082  0.1403  0.1526  0.2037
 1155loPI   GL218142   1.174   3.366   5.210  0.2225 -0.1894  0.0112
 1155loPI   C1A18143   1.537   3.731   5.494 -0.1272 -0.0399 -0.1257
 1155loPI   C2A18144   1.924   3.793   5.693 -0.1715 -0.0260 -0.2651
 1155loPI   C3A18145   2.065   3.746   6.069 -0.1182  0.0938 -0.1138
 1155loPI   C4A18146   2.030   3.925   6.500 -0.0297 -0.1894  0.0708
 1155loPI   C5A18147   1.946   4.014   6.974 -0.1611  0.1154  0.0056
 1155loPI   C6A18148   1.696   4.036   7.233  0.5699  0.0732 -0.0986
 1155loPI   C1B18149   1.058   3.693   5.561  0.2052 -0.0169 -0.2057
 1155loPI   C2B18150   1.038   3.850   6.027 -0.0574 -0.1285  0.0033
 1155loPI   C3B18151   1.117   4.149   6.265  0.0786 -0.0678 -0.0943
 1155loPI   C4B18152   0.824   4.387   6.452 -0.0504 -0.0434  0.0498
 1156loPI    C118153  18.202   6.830   4.808  0.1985 -0.2741 -0.3062
 1156loPI    C218154  17.949   7.118   4.693  0.2000 -0.1671 -0.0468
 1156loPI    C318155  18.119   6.880   4.420  0.1164  0.0084 -0.2541
 1156loPI   PO418156  18.113   6.874   5.133 -0.5005  0.0121  0.2500
 1156loPI   GL118157  18.248   6.561   5.525 -0.0686  0.1706  0.0867
 1156loPI   GL218158  18.540   6.457   5.534  0.2451 -0.1309 -0.1495
 1156loPI   C1A18159  18.092   6.570   5.867  0.3222 -0.0934  0.2297
 1156loPI   C2A18160  17.883   6.568   6.191  0.3332 -0.2016 -0.1964
 1156loPI   C3A18161  17.921   6.421   6.604 -0.0516 -0.1103 -0.2347
 1156loPI   C4A18162  18.070   6.242   7.051  0.0869  0.2702 -0.1220
 1156loPI   C5A18163  18.207   6.033   7.462 -0.1312 -0.1094  0.2545
 1156loPI   C6A18164  18.519   5.713   7.637  0.0870 -0.5218 -0.0051
 1156loPI   C1B18165  18.599   6.687   5.881 -0.0046 -0.2839  0.1683
 1156loPI   C2B18166  18.773   6.626   6.329  0.0545  0.3460 -0.0947
 1156loPI   C3B18167  18.768   6.782   6.790  0.1473  0.4059  0.1270
 1156loPI   C4B18168  18.902   7.092   7.001 -0.2114  0.2304  0.3633
 1157loPI    C118169   8.625   2.152   4.826  0.0343  0.1007  0.1635
 1157loPI    C218170   8.658   2.213   4.432  0.0478  0.0688  0.1597
 1157loPI    C318171   8.305   2.264   4.613 -0.0753 -0.3846  0.0601
 1157loPI   PO418172   8.834   2.281   4.971  0.0635  0.0077 -0.2498
 1157loPI   GL118173   8.918   2.405   5.361  0.1827 -0.3092 -0.1319
 1157loPI   GL218174   9.211   2.397   5.543  0.1758  0.4261 -0.1262
 1157loPI   C1A18175   8.741   2.161   5.670 -0.0168  0.1162 -0.2670
 1157loPI   C2A18176   8.550   2.231   5.958 -0.0411  0.0474  0.1108
 1157loPI   C3A18177   8.371   2.199   6.428 -0.0948  0.1054  0.1866
 1157loPI   C4A18178   8.299   2.235   6.881  0.0764  0.1143 -0.3396
 1157loPI   C5A18179   8.031   2.311   7.270  0.0761 -0.0433  0.2017
 1157loPI   C6A18180   7.890   2.460   7.667  0.0375  0.0232 -0.3951
 1157loPI   C1B18181   8.940   2.644   5.859 -0.0323  0.0882  0.1587
 1157loPI   C2B18182   9.102   2.978   6.119  0.2469 -0.4527 -0.0066
 1157loPI   C3B18183   9.325   3.251   6.460  0.1937 -0.0862  0.1228
 1157loPI   C4B18184   9.617   3.557   6.475  0.3527  0.1699  0.1420
 1158loPI    C118185   0.357   2.362   4.494  0.1653  0.1214  0.1451
 1158loPI    C218186   0.720   2.223   4.399 -0.0031 -0.3445  0.1586
 1158loPI    C318187   0.493   2.398   4.119  0.2561  0.0173  0.1676
 1158loPI   PO418188   0.409   2.474   4.670  0.1611  0.1241 -0.2122
 1158loPI   GL118189   0.461   2.464   5.197 -0.0777  0.2185  0.2800
 1158loPI   GL218190   0.160   2.577   5.113  0.0228  0.0112 -0.3843
 1158loPI   C1A18191   0.339   2.398   5.637  0.1322 -0.3645 -0.0784
 1158loPI   C2A18192   0.093   2.241   5.944  0.0498 -0.2490  0.0424
 1158loPI   C3A18193   0.122   2.163   6.360 -0.2008  0.2204 -0.1243
 1158loPI   C4A18194   0.157   2.187   6.794  0.2759 -0.1258  0.0730
 1158loPI   C5A18195   0.203   2.529   7.108  0.1465  0.1917  0.0350
 1158loPI   C6A18196   0.337   2.593   7.573 -0.3280 -0.0403 -0.0162
 1158loPI   C1B18197  -0.161   2.369   5.407 -0.4375 -0.2892 -0.2613
 1158loPI   C2B18198  -0.383   2.409   5.754  0.2362  0.2714  0.1495
 1158loPI   C3B18199  -0.306   2.353   6.202 -0.1107 -0.4052 -0.0810
 1158loPI   C4B18200  -0.470   2.349   6.582 -0.0662 -0.2548 -0.1459
 1159loPI    C118201   2.369   8.602   4.583 -0.0235 -0.0183  0.0830
 1159loPI    C218202   2.555   8.249   4.543  0.2254  0.1342 -0.1391
 1159loPI    C318203   2.474   8.471   4.220 -0.3882  0.0549 -0.0530
 1159loPI   PO418204   2.329   8.670   4.833  0.0963  0.2057  0.0891
 1159loPI   GL118205   2.397   8.997   5.184  0.0716  0.3166  0.2053
 1159loPI   GL218206   2.670   8.787   5.180  0.0719 -0.1292  0.1164
 1159loPI   C1A18207   2.347   9.117   5.562  0.2076 -0.0552 -0.1352
 1159loPI   C2A18208   2.496   9.045   5.916 -0.1601  0.2208 -0.0189
 1159loPI   C3A18209   2.194   9.040   6.298 -0.2858  0.0258 -0.0811
 1159loPI   C4A18210   1.910   9.153   6.687 -0.2635  0.2115  0.1158
 1159loPI   C5A18211   1.660   9.096   6.968  0.0868 -0.1918 -0.3164
 1159loPI   C6A18212   1.526   8.738   7.276 -0.0815  0.1213  0.2902
 1159loPI   C1B18213   2.567   8.703   5.529 -0.0868 -0.0969  0.0429
 1159loPI   C2B18214   2.560   8.554   6.022 -0.0463  0.0953 -0.2223
 1159loPI   C3B18215   2.723   8.793   6.332  0.0828 -0.0477  0.2178
 1159loPI   C4B18216   2.430   8.820   6.753 -0.0267 -0.3507  0.1227
 1160loPI    C118217  10.864  19.340   4.540  0.0028 -0.0539  0.0548
 1160loPI    C218218  11.139  19.109   4.365 -0.0004  0.0044 -0.0279
 1160loPI    C318219  10.808  19.213   4.165 -0.0378  0.0127  0.0381
 1160loPI   PO418220  10.894  19.243   4.787  0.0096 -0.0761  0.0920
 1160loPI   GL118221  10.917  18.863   5.135  0.1150  0.0767 -0.0727
 1160loPI   GL218222  11.113  19.152   5.245  0.4041 -0.3150  0.2636
 1160loPI   C1A18223  11.089  18.826   5.648  0.0901  0.1505 -0.0133
 1160loPI   C2A18224  11.131  18.985   6.007  0.2216 -0.1398 -0.1912
 1160loPI   C3A18225  11.235  19.128   6.469 -0.1342  0.0281 -0.1816
 1160loPI   C4A18226  11.534  19.002   6.793 -0.0269  0.2492 -0.0231
 1160loPI   C5A18227  11.925  18.914   7.065  0.2530  0.2197 -0.1771
 1160loPI   C6A18228  12.253  18.772   6.862  0.0313  0.0543  0.2626
 1160loPI   C1B18229  11.350  19.248   5.694 -0.0045 -0.5128 -0.4020
 1160loPI   C2B18230  11.535  19.218   6.122  0.1701  0.0182  0.0162
 1160loPI   C3B18231  11.769  19.381   6.534 -0.1768 -0.1800  0.2346
 1160loPI   C4B18232  11.921  19.563   6.905 -0.1338 -0.3712 -0.0905
 1161loPI    C118233  19.296   7.273   4.648 -0.2182  0.0580 -0.0827
 1161loPI    C218234  19.575   7.211   4.368 -0.2853 -0.1123 -0.1131
 1161loPI    C318235  19.193   7.265   4.262 -0.2828  0.0035 -0.0647
 1161loPI   PO418236  19.391   7.207   4.813  0.0126  0.2125  0.0699
 1161loPI   GL118237  19.447   7.458   5.169 -0.2194  0.1725 -0.0586
 1161loPI   GL218238  19.323   7.167   5.341  0.0071 -0.2346  0.2281
 1161loPI   C1A18239  19.422   7.688   5.570  0.1275 -0.1916 -0.2303
 1161loPI   C2A18240  19.424   7.947   5.995 -0.1998 -0.0387 -0.3577
 1161loPI   C3A18241  19.748   7.967   6.365  0.0324  0.2366  0.1162
 1161loPI   C4A18242  19.710   7.890   6.781  0.3050  0.1227  0.1599
 1161loPI   C5A18243  19.436   7.773   7.154  0.2518  0.0256  0.0301
 1161loPI   C6A18244  18.973   7.925   7.241  0.0968 -0.1328 -0.1217
 1161loPI   C1B18245  19.155   7.219   5.735  0.0572 -0.1745  0.2042
 1161loPI   C2B18246  18.759   7.246   6.024 -0.3167 -0.0134 -0.0448
 1161loPI   C3B18247  18.428   7.099   6.221  0.0615 -0.2910  0.3463
 1161loPI   C4B18248  18.332   6.791   6.552  0.1488 -0.0468  0.1101
 1162loPI    C118249  13.408   4.745   4.610  0.0513 -0.1385  0.1841
 1162loPI    C218250  13.206   5.016   4.397 -0.0009 -0.1988  0.1566
 1162loPI    C318251  13.598   4.966   4.337  0.0184 -0.0962  0.1954
 1162loPI   PO418252  13.235   4.590   4.682  0.0267  0.2794 -0.2719
 1162loPI   GL118253  13.068   4.421   5.010 -0.1051 -0.2160 -0.2539
 1162loPI   GL218254  12.794   4.607   5.195  0.0549 -0.2049  0.1289
 1162loPI   C1A18255  13.318   4.319   5.393  0.2205  0.0432 -0.1724
 1162loPI   C2A18256  13.165   4.248   5.752 -0.0979 -0.2883  0.0582
 1162loPI   C3A18257  12.933   4.374   6.125 -0.1400  0.0873 -0.0588
 1162loPI   C4A18258  12.561   4.497   6.432  0.0547 -0.2737 -0.0431
 1162loPI   C5A18259  12.445   4.075   6.691  0.1065  0.1408  0.0910
 1162loPI   C6A18260  12.407   3.968   7.105 -0.0099 -0.2412  0.0896
 1162loPI   C1B18261  13.069   4.812   5.504 -0.2094 -0.0020  0.2598
 1162loPI   C2B18262  13.380   5.010   5.669  0.3138 -0.1533 -0.0499
 1162loPI   C3B18263  13.412   5.275   6.042 -0.2699 -0.2607  0.3118
 1162loPI   C4B18264  13.333   5.339   6.503 -0.0998  0.1945  0.0501
 1163loPI    C118265   0.296  11.308   4.681 -0.0738  0.2687 -0.0171
 1163loPI    C218266   0.446  11.072   4.395 -0.2872  0.0990  0.0087
 1163loPI    C318267   0.691  11.292   4.622 -0.0908 -0.0451 -0.0611
 1163loPI   PO418268   0.118  11.041   4.788  0.2024  0.1235 -0.0333
 1163loPI   GL118269  -0.020  10.926   5.155 -0.2504  0.0949  0.0216
 1163loPI   GL218270  -0.319  10.819   5.050 -0.1756 -0.0814 -0.3316
 1163loPI   C1A18271   0.310  10.847   5.472 -0.0048  0.1841 -0.2431
 1163loPI   C2A18272   0.105  11.017   5.825  0.1393 -0.3121 -0.1016
 1163loPI   C3A18273   0.022  11.279   6.141  0.1606 -0.0708  0.0288
 1163loPI   C4A18274  -0.292  11.283   6.456  0.2381  0.2558  0.3057
 1163loPI   C5A18275  -0.512  11.156   6.799  0.0746 -0.0444  0.0899
 1163loPI   C6A18276  -0.827  10.924   6.854  0.1759  0.1568  0.1845
 1163loPI   C1B18277  -0.366  10.891   5.554 -0.1070  0.2198  0.0953
 1163loPI   C2B18278  -0.322  10.885   6.109  0.1203  0.0321  0.1423
 1163loPI   C3B18279  -0.144  10.657   6.440  0.1783 -0.0685 -0.2002
 1163loPI   C4B18280  -0.393  10.624   6.900  0.1700  0.0844 -0.0342
 1164loPI    C118281   4.063   8.795   5.000 -0.0446 -0.0542  0.0505
 1164loPI    C218282   4.244   8.642   5.323  0.1477 -0.0382 -0.0481
 1164loPI    C318283   4.447   8.881   5.074 -0.1038  0.2509  0.0175
 1164loPI   PO418284   3.817   8.808   4.994 -0.4354  0.1049 -0.1135
 1164loPI   GL118285   3.587   8.856   5.300  0.2262 -0.2331  0.2908
 1164loPI   GL218286   3.389   8.613   5.338 -0.2932  0.0221 -0.0778
 1164loPI   C1A18287   3.417   9.192   5.657  0.1065 -0.2735 -0.1381
 1164loPI   C2A18288   3.320   9.206   6.150 -0.1980  0.0143 -0.0460
 1164loPI   C3A18289   3.087   9.125   6.512  0.2457 -0.0168  0.0428
 1164loPI   C4A18290   2.658   9.272   6.677 -0.0559  0.2370  0.0539
 1164loPI   C5A18291   2.392   9.316   6.989 -0.1077 -0.0582  0.1136
 1164loPI   C6A18292   2.100   9.011   7.173  0.0933  0.3502 -0.0011
 1164loPI   C1B18293   3.415   8.433   5.799 -0.0828 -0.4053 -0.1685
 1164loPI   C2B18294   3.526   8.254   6.292 -0.1522  0.2428 -0.1294
 1164loPI   C3B18295   3.849   8.152   6.774  0.0164  0.0954  0.1252
 1164loPI   C4B18296   3.970   8.516   7.089 -0.0177  0.2155 -0.1474
 1165loPI    C118297   7.174  17.712   4.534  0.3266 -0.0596  0.1205
 1165loPI    C218298   6.906  17.673   4.240  0.0270  0.2093  0.3507
 1165loPI    C318299   7.234  17.894   4.183  0.1870 -0.0881  0.0812
 1165loPI   PO418300   7.088  17.781   4.771 -0.1773  0.4464  0.1831
 1165loPI   GL118301   7.273  17.957   5.154 -0.0030 -0.1528  0.3112
 1165loPI   GL218302   7.493  18.138   5.104 -0.1598  0.0953 -0.1418
 1165loPI   C1A18303   7.215  17.987   5.530  0.3920  0.0584  0.1238
 1165loPI   C2A18304   7.020  17.875   6.007  0.0074  0.2015 -0.1530
 1165loPI   C3A18305   7.186  18.100   6.385  0.1135  0.2376 -0.0790
 1165loPI   C4A18306   7.346  18.081   6.844  0.1450  0.0382 -0.0322
 1165loPI   C5A18307   7.490  18.030   7.315 -0.3997 -0.3322 -0.0021
 1165loPI   C6A18308   7.579  17.746   7.642  0.1067 -0.1677 -0.0809
 1165loPI   C1B18309   7.581  18.358   5.456 -0.0904 -0.1045  0.0501
 1165loPI   C2B18310   7.779  18.497   5.921 -0.0578 -0.1499 -0.2080
 1165loPI   C3B18311   8.081  18.492   6.242  0.1801 -0.0174 -0.1201
 1165loPI   C4B18312   8.008  18.403   6.590  0.2042 -0.0487 -0.2123
 1166loPI    C118313   7.743   2.957   4.461 -0.1822 -0.0519  0.0574
 1166loPI    C218314   7.487   2.698   4.627 -0.3102 -0.0377 -0.1159
 1166loPI    C318315   7.524   2.716   4.229  0.0040 -0.0804 -0.0904
 1166loPI   PO418316   7.820   3.080   4.762 -0.2526 -0.2301  0.2242
 1166loPI   GL118317   7.643   2.844   5.119 -0.0613  0.0769 -0.1887
 1166loPI   GL218318   7.452   2.545   5.186  0.3279 -0.1007  0.3868
 1166loPI   C1A18319   7.901   2.690   5.463 -0.0885 -0.3445 -0.1876
 1166loPI   C2A18320   7.814   2.741   5.980 -0.1458  0.0798  0.0060
 1166loPI   C3A18321   7.921   2.575   6.358 -0.0784 -0.2280 -0.0388
 1166loPI   C4A18322   8.002   2.657   6.750 -0.1860 -0.0955 -0.2542
 1166loPI   C5A18323   8.273   2.758   7.011 -0.0521  0.4091 -0.1183
 1166loPI   C6A18324   8.313   2.706   7.559 -0.3259 -0.1079 -0.2474
 1166loPI   C1B18325   7.341   2.731   5.606 -0.2021  0.0376  0.0771
 1166loPI   C2B18326   7.256   2.529   5.922  0.1169  0.3069  0.0237
 1166loPI   C3B18327   7.391   2.322   6.367  0.1684 -0.0786  0.3519
 1166loPI   C4B18328   7.537   2.494   6.725 -0.0003  0.2160  0.3456
 1167loPI    C118329  14.548   3.347   4.558 -0.2305  0.2485 -0.3024
 1167loPI    C218330  14.860   3.532   4.726 -0.0090 -0.1676 -0.2437
 1167loPI    C318331  14.801   3.558   4.331  0.1456 -0.1493 -0.2664
 1167loPI   PO418332  14.475   3.250   4.771  0.4661  0.3457 -0.0184
 1167loPI   GL118333  14.551   3.302   5.205 -0.5557 -0.0470 -0.2080
 1167loPI   GL218334  14.641   3.022   5.183 -0.1818  0.0503 -0.1293
 1167loPI   C1A18335  14.376   3.223   5.622  0.1114  0.0229  0.0103
 1167loPI   C2A18336  14.453   3.477   6.015  0.2321  0.1645 -0.0148
 1167loPI   C3A18337  14.708   3.394   6.351  0.1500 -0.3705  0.1562
 1167loPI   C4A18338  14.810   3.574   6.646 -0.0922 -0.0469 -0.0023
 1167loPI   C5A18339  14.903   3.704   7.060  0.0007  0.0949  0.2228
 1167loPI   C6A18340  15.023   3.789   7.494  0.1487 -0.0158 -0.0225
 1167loPI   C1B18341  14.904   3.121   5.496 -0.1356 -0.2225 -0.1651
 1167loPI   C2B18342  14.960   3.053   5.937 -0.0596  0.0617 -0.1849
 1167loPI   C3B18343  14.928   2.935   6.344  0.0217 -0.0181  0.2169
 1167loPI   C4B18344  14.980   3.137   6.789  0.0599 -0.0401 -0.1888
 1168loPI    C118345   6.679  14.176   4.490  0.0121  0.0513  0.0412
 1168loPI    C218346   6.285  14.156   4.423  0.0219  0.1161 -0.0367
 1168loPI    C318347   6.525  13.861   4.298  0.0182  0.1535 -0.1328
 1168loPI   PO418348   6.689  14.285   4.708 -0.0976 -0.0972 -0.0369
 1168loPI   GL118349   6.947  14.446   5.003  0.1233  0.2514  0.1135
 1168loPI   GL218350   7.273  14.629   4.974  0.2550  0.1290 -0.1701
 1168loPI   C1A18351   7.040  14.754   5.394  0.1090  0.1441 -0.1560
 1168loPI   C2A18352   7.077  15.013   5.710 -0.2043  0.0087  0.0544
 1168loPI   C3A18353   7.207  15.215   6.068 -0.2368 -0.2374 -0.3774
 1168loPI   C4A18354   7.444  15.428   6.225 -0.0158  0.0238  0.1660
 1168loPI   C5A18355   7.516  15.723   6.462 -0.0669  0.1892 -0.1766
 1168loPI   C6A18356   7.829  15.800   6.755 -0.1674 -0.0172 -0.1657
 1168loPI   C1B18357   7.474  14.451   5.366 -0.0363  0.5708 -0.0627
 1168loPI   C2B18358   7.457  14.633   5.785 -0.0310  0.4043  0.1263
 1168loPI   C3B18359   7.363  14.720   6.178 -0.2674 -0.1948  0.3093
 1168loPI   C4B18360   7.034  14.557   6.382  0.0418 -0.2188  0.2429
 1169loPI    C118361  11.302   1.726   4.700 -0.1232 -0.1989 -0.0975
 1169loPI    C218362  11.076   1.527   4.436  0.1350 -0.1963 -0.3245
 1169loPI    C318363  11.249   1.873   4.332 -0.2837  0.1407  0.0558
 1169loPI   PO418364  11.347   1.573   4.894 -0.0484  0.0189  0.2326
 1169loPI   GL118365  11.238   1.500   5.256 -0.0973 -0.0369 -0.1025
 1169loPI   GL218366  11.443   1.322   5.279  0.0834  0.4970 -0.0636
 1169loPI   C1A18367  11.195   1.697   5.682 -0.1394 -0.1557  0.0313
 1169loPI   C2A18368  11.292   1.879   6.166 -0.1389  0.0584 -0.2516
 1169loPI   C3A18369  11.614   1.735   6.436  0.2421  0.3256 -0.0050
 1169loPI   C4A18370  11.420   1.524   6.858  0.0427 -0.2337 -0.0129
 1169loPI   C5A18371  11.500   1.573   7.304  0.1951 -0.0531 -0.1529
 1169loPI   C6A18372  11.277   1.658   7.727  0.2622 -0.2055 -0.0375
 1169loPI   C1B18373  11.530   1.258   5.810 -0.0187 -0.0074  0.1147
 1169loPI   C2B18374  11.442   1.164   6.287 -0.1648  0.0471  0.1717
 1169loPI   C3B18375  11.535   1.002   6.736 -0.0631  0.0609  0.2263
 1169loPI   C4B18376  11.802   0.897   7.065  0.0146  0.1691 -0.1067
 1170loPI    C118377   9.517   7.698   4.759  0.1581  0.2220  0.0382
 1170loPI    C218378   9.118   7.701   4.733  0.1639  0.3929 -0.0458
 1170loPI    C318379   9.339   7.839   4.429  0.3028 -0.2485 -0.2512
 1170loPI   PO418380   9.486   7.526   5.016 -0.0861  0.2811  0.1471
 1170loPI   GL118381   9.780   7.388   5.319  0.2416 -0.0855 -0.1271
 1170loPI   GL218382   9.719   7.600   5.508  0.2013 -0.0449  0.0346
 1170loPI   C1A18383   9.629   7.243   5.800 -0.0847  0.4091  0.0908
 1170loPI   C2A18384   9.460   7.149   6.186  0.0126 -0.0583  0.2247
 1170loPI   C3A18385   9.536   7.020   6.600  0.0602  0.1724  0.0513
 1170loPI   C4A18386   9.598   6.845   7.015  0.0075  0.0025 -0.2015
 1170loPI   C5A18387  10.030   6.857   7.280 -0.1863 -0.1074  0.1658
 1170loPI   C6A18388  10.256   7.096   7.538 -0.2271 -0.2822 -0.0923
 1170loPI   C1B18389  10.022   7.662   5.884 -0.3100  0.0441  0.0435
 1170loPI   C2B18390  10.054   7.663   6.315 -0.3348 -0.2431  0.0605
 1170loPI   C3B18391  10.178   7.989   6.546  0.0627  0.0587 -0.0519
 1170loPI   C4B18392  10.318   8.216   6.941  0.1769  0.0943 -0.0805
 1171loPI    C118393  10.929  12.483   4.223  0.0186  0.1129 -0.1759
 1171loPI    C218394  11.244  12.611   4.435 -0.0198 -0.1190  0.0252
 1171loPI    C318395  11.242  12.649   4.037  0.1386  0.1416  0.0472
 1171loPI   PO418396  10.752  12.529   4.465  0.0081  0.0629 -0.1279
 1171loPI   GL118397  10.704  12.666   4.947  0.1423  0.0711 -0.2384
 1171loPI   GL218398  10.592  12.485   4.960  0.0691 -0.0091 -0.2673
 1171loPI   C1A18399  10.749  12.826   5.345  0.1025  0.0959  0.0147
 1171loPI   C2A18400  10.737  13.044   5.786 -0.1373 -0.0354 -0.1137
 1171loPI   C3A18401  10.843  13.105   6.220  0.1028  0.0992 -0.5618
 1171loPI   C4A18402  10.839  13.220   6.674 -0.1015 -0.1381 -0.2388
 1171loPI   C5A18403  10.991  13.458   7.022 -0.0842 -0.2327 -0.0977
 1171loPI   C6A18404  10.720  13.560   7.416  0.2682 -0.0643 -0.0951
 1171loPI   C1B18405  10.527  12.371   5.351  0.1675 -0.1422  0.1798
 1171loPI   C2B18406  10.441  12.555   5.637 -0.2792 -0.0240 -0.1311
 1171loPI   C3B18407  10.640  12.602   5.974  0.1374  0.2093  0.2132
 1171loPI   C4B18408  10.789  12.669   6.488  0.2674  0.0100 -0.1514
 1172loPI    C118409  15.206  16.316   4.814  0.0429  0.0513  0.2666
 1172loPI    C218410  15.329  16.633   4.603 -0.1939  0.1165  0.2234
 1172loPI    C318411  15.330  16.269   4.437  0.0119  0.1041  0.2497
 1172loPI   PO418412  14.968  16.374   4.835 -0.4067 -0.2201 -0.0493
 1172loPI   GL118413  14.773  16.247   5.144 -0.1136 -0.2663  0.2077
 1172loPI   GL218414  14.900  15.967   5.158 -0.0502 -0.2330  0.1938
 1172loPI   C1A18415  14.641  16.104   5.584 -0.3802  0.1232  0.0444
 1172loPI   C2A18416  14.455  16.228   5.987  0.0259 -0.1219 -0.0042
 1172loPI   C3A18417  14.318  16.261   6.413  0.1686 -0.2086  0.0604
 1172loPI   C4A18418  14.081  16.048   6.701 -0.0793 -0.3401  0.2115
 1172loPI   C5A18419  13.806  16.222   7.019 -0.0610 -0.1147 -0.1713
 1172loPI   C6A18420  13.706  16.232   7.352 -0.1612  0.2250  0.0705
 1172loPI   C1B18421  15.030  15.684   5.456  0.0722 -0.0688 -0.0611
 1172loPI   C2B18422  14.991  15.410   5.798  0.0663  0.1402  0.0965
 1172loPI   C3B18423  15.081  15.215   6.123  0.0474 -0.2020  0.2023
 1172loPI   C4B18424  15.038  15.390   6.531  0.2388  0.0558 -0.1550
 1173loPI    C118425   0.975  12.403   4.233  0.2508 -0.0006  0.1550
 1173loPI    C218426   1.089  12.180   4.544 -0.1276 -0.2389  0.1296
 1173loPI    C318427   1.057  12.015   4.180  0.0263 -0.0323  0.0206
 1173loPI   PO418428   1.001  12.652   4.321  0.0005 -0.2458  0.1327
 1173loPI   GL118429   1.044  12.865   4.610 -0.0124  0.0021 -0.0456
 1173loPI   GL218430   1.194  13.180   4.750  0.0592  0.0921  0.1174
 1173loPI   C1A18431   0.831  12.823   5.002 -0.1884  0.1181  0.1332
 1173loPI   C2A18432   0.989  12.956   5.422  0.0367 -0.2360 -0.1491
 1173loPI   C3A18433   0.952  13.206   5.781  0.0638  0.0000  0.2063
 1173loPI   C4A18434   0.862  13.322   6.277  0.0149 -0.2786 -0.0200
 1173loPI   C5A18435   0.793  13.260   6.771  0.0697  0.1468  0.1419
 1173loPI   C6A18436   1.125  13.205   7.126 -0.0030  0.1705 -0.0370
 1173loPI   C1B18437   1.347  13.206   5.180 -0.0043  0.2615  0.0853
 1173loPI   C2B18438   1.393  13.127   5.634  0.3656  0.0161  0.0363
 1173loPI   C3B18439   1.355  13.030   6.111  0.1446 -0.0182  0.0231
 1173loPI   C4B18440   1.278  13.030   6.557 -0.0731 -0.2483  0.1491
 1174loPI    C118441  16.329   3.753   4.733 -0.0568 -0.0302  0.0740
 1174loPI    C218442  15.999   3.961   4.646 -0.1682 -0.1307  0.2479
 1174loPI    C318443  16.203   3.779   4.354 -0.1776  0.0602  0.1197
 1174loPI   PO418444  16.227   3.670   5.037 -0.0285  0.0304  0.0608
 1174loPI   GL118445  16.350   3.433   5.249 -0.1576 -0.1888  0.0827
 1174loPI   GL218446  16.532   3.204   5.293 -0.1472  0.0200 -0.0092
 1174loPI   C1A18447  16.340   3.493   5.778  0.1069  0.0707  0.2690
 1174loPI   C2A18448  16.366   3.269   6.157  0.0579 -0.2125 -0.0064
 1174loPI   C3A18449  16.572   3.255   6.484 -0.1566 -0.0652  0.1025
 1174loPI   C4A18450  16.548   3.124   6.915  0.1248  0.0128 -0.0060
 1174loPI   C5A18451  16.309   2.996   7.236  0.0969  0.2170  0.0388
 1174loPI   C6A18452  16.009   2.928   7.596 -0.0407  0.2641 -0.0199
 1174loPI   C1B18453  16.541   3.037   5.774 -0.0425  0.1445  0.1200
 1174loPI   C2B18454  16.724   2.832   6.160 -0.0875  0.4781 -0.0833
 1174loPI   C3B18455  16.792   2.802   6.641  0.1186 -0.1687  0.0722
 1174loPI   C4B18456  17.049   2.583   6.864 -0.0046  0.0935 -0.0425
 1175loPI    C118457   9.109   1.634   4.543  0.0407  0.0319 -0.1322
 1175loPI    C218458   9.476   1.793   4.533  0.1860 -0.2890 -0.0330
 1175loPI    C318459   9.293   1.692   4.192  0.1922 -0.1371 -0.0822
 1175loPI   PO418460   9.085   1.817   4.847 -0.0058 -0.2195 -0.1910
 1175loPI   GL118461   9.176   1.826   5.369  0.2863 -0.5304 -0.2328
 1175loPI   GL218462   8.919   1.742   5.324  0.3103  0.1487 -0.1350
 1175loPI   C1A18463   9.616   1.798   5.532 -0.0198  0.1728  0.1152
 1175loPI   C2A18464   9.809   1.680   5.911 -0.0104 -0.0561 -0.1346
 1175loPI   C3A18465  10.019   1.284   6.129  0.2611  0.4424 -0.0138
 1175loPI   C4A18466  10.114   1.137   6.450  0.1775  0.0737 -0.1470
 1175loPI   C5A18467  10.140   1.139   6.910  0.0377  0.3592 -0.0459
 1175loPI   C6A18468  10.577   1.133   7.009  0.0803  0.0279 -0.0420
 1175loPI   C1B18469   8.761   1.658   5.724  0.0767 -0.2574  0.2373
 1175loPI   C2B18470   8.843   1.386   6.126 -0.0658 -0.3993 -0.0981
 1175loPI   C3B18471   9.093   1.310   6.432 -0.2659  0.2125  0.0784
 1175loPI   C4B18472   9.310   1.191   6.795  0.0808 -0.2073  0.1912
 1176loPI    C118473   6.473  12.372   4.835  0.0949  0.2074  0.0128
 1176loPI    C218474   6.340  12.483   4.474 -0.1239 -0.0179  0.0212
 1176loPI    C318475   6.620  12.198   4.506  0.0384  0.1400  0.0228
 1176loPI   PO418476   6.365  12.372   5.000  0.3001  0.0467  0.0743
 1176loPI   GL118477   6.160  12.376   5.364  0.0010 -0.1243  0.1164
 1176loPI   GL218478   6.026  12.570   5.577  0.0043 -0.0834 -0.0043
 1176loPI   C1A18479   6.500  12.493   5.663  0.0874 -0.0815 -0.0586
 1176loPI   C2A18480   6.793  12.689   5.996 -0.1597  0.0424 -0.1981
 1176loPI   C3A18481   7.242  12.787   6.212  0.2759 -0.3270 -0.1601
 1176loPI   C4A18482   7.517  12.789   6.566 -0.1053 -0.2908  0.2433
 1176loPI   C5A18483   7.742  12.771   6.898 -0.4594 -0.1583 -0.0481
 1176loPI   C6A18484   7.989  12.950   7.316  0.2009  0.3452 -0.1857
 1176loPI   C1B18485   5.771  12.401   5.906  0.1930 -0.2454  0.2771
 1176loPI   C2B18486   5.690  12.493   6.340 -0.0141  0.3729  0.1697
 1176loPI   C3B18487   5.581  12.765   6.709 -0.0001 -0.0028  0.0078
 1176loPI   C4B18488   5.395  12.988   7.049  0.0415 -0.0185 -0.2218
 1177loPI    C118489  11.845  12.002   4.452  0.0555  0.1030 -0.0883
 1177loPI    C218490  11.895  11.743   4.152 -0.1074  0.0997 -0.1133
 1177loPI    C318491  12.048  12.112   4.125  0.1922 -0.0170 -0.0448
 1177loPI   PO418492  11.987  11.852   4.713  0.0435  0.1571  0.0758
 1177loPI   GL118493  12.140  11.585   5.122  0.1334  0.1931  0.0329
 1177loPI   GL218494  11.875  11.657   5.222  0.2587 -0.0731  0.2021
 1177loPI   C1A18495  12.368  11.616   5.402 -0.3842 -0.2245 -0.4788
 1177loPI   C2A18496  12.368  11.828   5.730  0.1623 -0.1348  0.3334
 1177loPI   C3A18497  12.721  12.029   6.035  0.1155 -0.1327  0.3420
 1177loPI   C4A18498  12.876  12.311   6.269  0.2557  0.0587  0.0335
 1177loPI   C5A18499  12.603  12.630   6.611 -0.0378 -0.1735 -0.2878
 1177loPI   C6A18500  12.721  13.135   6.723  0.3719 -0.1405 -0.2971
 1177loPI   C1B18501  11.852  11.727   5.660  0.2611 -0.3195  0.1845
 1177loPI   C2B18502  11.848  11.750   6.038 -0.0253 -0.2275 -0.0645
 1177loPI   C3B18503  11.844  11.963   6.396 -0.1416 -0.0486 -0.0548
 1177loPI   C4B18504  11.748  12.169   6.762 -0.2170  0.0615 -0.0168
 1178loPI    C118505  16.806   5.228   4.645  0.0883  0.0248  0.1991
 1178loPI    C218506  16.774   5.595   4.490 -0.2325 -0.0956 -0.0309
 1178loPI    C318507  17.127   5.408   4.490 -0.1303  0.0934 -0.1871
 1178loPI   PO418508  16.716   5.186   4.930  0.1130  0.0428  0.2081
 1178loPI   GL118509  16.833   5.296   5.281  0.3181 -0.0985 -0.0610
 1178loPI   GL218510  16.736   5.046   5.498 -0.3650  0.0984  0.0022
 1178loPI   C1A18511  16.672   5.571   5.610 -0.0922 -0.1446 -0.1907
 1178loPI   C2A18512  16.616   5.561   6.055 -0.1119 -0.0874  0.0485
 1178loPI   C3A18513  16.829   5.519   6.533 -0.4125 -0.3201  0.0497
 1178loPI   C4A18514  16.745   5.547   6.880 -0.0468 -0.2342  0.0764
 1178loPI   C5A18515  16.654   5.321   7.227 -0.3139  0.0714 -0.0972
 1178loPI   C6A18516  16.705   4.989   7.479 -0.1415  0.2791  0.0910
 1178loPI   C1B18517  16.703   4.903   5.840 -0.1309  0.0280 -0.1253
 1178loPI   C2B18518  16.728   4.869   6.212 -0.6574 -0.2307 -0.1698
 1178loPI   C3B18519  16.750   4.787   6.632  0.0780  0.3562 -0.0207
 1178loPI   C4B18520  16.936   5.052   6.957 -0.1242  0.0109  0.1027
 1179loPI    C118521  19.194  14.291   4.383 -0.0661 -0.4000  0.0824
 1179loPI    C218522  19.064  14.111   4.050  0.2311 -0.2705 -0.1074
 1179loPI    C318523  19.455  14.172   4.105  0.1727 -0.1494  0.1953
 1179loPI   PO418524  19.088  14.168   4.635  0.2540  0.0983  0.1777
 1179loPI   GL118525  19.038  13.927   4.935  0.2657  0.0032  0.0637
 1179loPI   GL218526  19.440  13.963   4.967 -0.1001  0.0342 -0.3339
 1179loPI   C1A18527  19.007  13.990   5.332 -0.2317  0.2005 -0.0665
 1179loPI   C2A18528  18.736  13.755   5.688  0.0631 -0.0298 -0.1103
 1179loPI   C3A18529  18.752  13.409   6.040 -0.0012  0.3538  0.1589
 1179loPI   C4A18530  18.702  13.219   6.479 -0.1297 -0.3383  0.0972
 1179loPI   C5A18531  18.321  13.459   6.778  0.2656 -0.0564 -0.1219
 1179loPI   C6A18532  17.860  13.510   6.815 -0.0775 -0.1362  0.1142
 1179loPI   C1B18533  19.548  14.132   5.292 -0.1188  0.2436 -0.0312
 1179loPI   C2B18534  19.688  14.227   5.658  0.0540  0.3414 -0.3559
 1179loPI   C3B18535  19.826  14.321   5.996  0.0798  0.1269 -0.2681
 1179loPI   C4B18536  19.885  14.515   6.355  0.1916 -0.0803  0.0358
 1180loPI    C118537  12.019   8.111   4.934  0.1672 -0.0671 -0.0332
 1180loPI    C218538  12.286   8.209   5.215  0.1231  0.0917 -0.0459
 1180loPI    C318539  12.356   8.302   4.832  0.0061  0.2207 -0.0369
 1180loPI   PO418540  11.715   8.200   4.999  0.0709  0.2251 -0.2446
 1180loPI   GL118541  11.727   8.196   5.435 -0.0087 -0.3528  0.6085
 1180loPI   GL218542  11.888   7.890   5.452 -0.0708 -0.0164 -0.1476
 1180loPI   C1A18543  11.618   8.261   5.881 -0.1136 -0.4239  0.0019
 1180loPI   C2A18544  11.872   8.378   6.196  0.3438  0.0956  0.1335
 1180loPI   C3A18545  12.181   8.549   6.375 -0.0567 -0.0481  0.0379
 1180loPI   C4A18546  12.387   8.553   6.765 -0.0141 -0.5096  0.1985
 1180loPI   C5A18547  12.716   8.733   6.946 -0.2037 -0.0153 -0.1553
 1180loPI   C6A18548  13.170   8.756   6.903  0.0108  0.2368  0.0067
 1180loPI   C1B18549  11.916   7.888   5.877  0.1626 -0.3122  0.0958
 1180loPI   C2B18550  11.999   7.909   6.259 -0.0500  0.0975  0.1316
 1180loPI   C3B18551  12.105   7.724   6.614 -0.0470 -0.2048 -0.1986
 1180loPI   C4B18552  12.217   7.669   7.050  0.1736  0.4129  0.4086
 1181loPI    C118553   0.205  18.888   4.802 -0.1507  0.0115 -0.1369
 1181loPI    C218554  -0.169  18.865   4.944 -0.0796 -0.0639  0.0414
 1181loPI    C318555   0.074  18.548   4.967  0.0888  0.0735  0.1927
 1181loPI   PO418556   0.255  19.095   4.900  0.3248 -0.0398 -0.0679
 1181loPI   GL118557   0.409  19.095   5.326 -0.0572 -0.2960  0.1302
 1181loPI   GL218558   0.773  19.291   5.326 -0.2252  0.2635 -0.1920
 1181loPI   C1A18559   0.545  19.338   5.762  0.2128  0.0829 -0.1577
 1181loPI   C2A18560   0.416  19.580   6.134 -0.0001 -0.1924  0.0728
 1181loPI   C3A18561   0.241  19.462   6.547 -0.5121  0.0506  0.0665
 1181loPI   C4A18562   0.074  19.514   6.993 -0.3127  0.2563  0.0218
 1181loPI   C5A18563  -0.232  19.730   7.196 -0.1888  0.0594 -0.3374
 1181loPI   C6A18564  -0.479  19.805   7.586  0.0722 -0.0721  0.1597
 1181loPI   C1B18565   1.005  19.512   5.706 -0.3877  0.1913 -0.1631
 1181loPI   C2B18566   0.897  19.434   6.144  0.2905  0.0252 -0.1256
 1181loPI   C3B18567   0.747  19.480   6.552 -0.1909  0.3575  0.1616
 1181loPI   C4B18568   0.538  19.731   6.924  0.0152 -0.2552 -0.2794
 1182loPI    C118569  10.864   3.353   4.715 -0.0335 -0.0516  0.1309
 1182loPI    C218570  10.884   3.072   4.999  0.1332  0.0270  0.1984
 1182loPI    C318571  11.121   3.049   4.677  0.0005 -0.0195  0.1034
 1182loPI   PO418572  10.879   3.574   4.892  0.0679 -0.3716  0.0155
 1182loPI   GL118573  11.006   3.613   5.310 -0.2381  0.3517  0.2428
 1182loPI   GL218574  10.998   3.961   5.491 -0.1670  0.0523  0.0408
 1182loPI   C1A18575  10.865   3.399   5.617  0.1077 -0.0181  0.2610
 1182loPI   C2A18576  10.693   3.344   6.151 -0.1539 -0.0595  0.0472
 1182loPI   C3A18577  10.666   3.526   6.632 -0.2228 -0.0997  0.2322
 1182loPI   C4A18578  10.656   3.663   7.156  0.0687  0.1237  0.0059
 1182loPI   C5A18579  10.975   3.528   7.535  0.1619  0.3255  0.1392
 1182loPI   C6A18580  11.131   3.552   7.923 -0.0869 -0.1010 -0.0628
 1182loPI   C1B18581  10.931   3.889   5.857 -0.1778  0.0544 -0.0111
 1182loPI   C2B18582  11.044   3.815   6.234 -0.0044  0.2221  0.0637
 1182loPI   C3B18583  11.193   3.901   6.569 -0.2718  0.0692 -0.1513
 1182loPI   C4B18584  11.469   3.955   6.822  0.0683  0.1522 -0.1195
 1183loPI    C118585   9.237  11.563   5.121  0.0595  0.0648 -0.2635
 1183loPI    C218586   9.562  11.436   4.926  0.0409  0.0126 -0.2610
 1183loPI    C318587   9.473  11.826   4.935  0.1519  0.0367 -0.1868
 1183loPI   PO418588   9.281  11.246   5.294  0.0396  0.3103  0.1451
 1183loPI   GL118589   9.501  11.143   5.680  0.5624 -0.0524 -0.0604
 1183loPI   GL218590   9.470  10.884   5.920  0.0213  0.3491 -0.0441
 1183loPI   C1A18591   9.621  11.375   6.036 -0.1574 -0.0005  0.0307
 1183loPI   C2A18592   9.701  11.513   6.469  0.1393 -0.4847 -0.0308
 1183loPI   C3A18593   9.614  11.721   6.823  0.3882 -0.2530 -0.0195
 1183loPI   C4A18594   9.941  12.033   7.032  0.0354  0.2422  0.1603
 1183loPI   C5A18595  10.326  12.151   7.290  0.2152 -0.3390 -0.0710
 1183loPI   C6A18596  10.707  11.938   7.500 -0.0358  0.0510  0.1772
 1183loPI   C1B18597   9.436  10.936   6.271  0.4162  0.1568  0.1584
 1183loPI   C2B18598   9.333  11.172   6.524 -0.2310 -0.1578  0.1579
 1183loPI   C3B18599   9.056  11.145   6.723  0.0921  0.1457  0.0722
 1183loPI   C4B18600   8.990  11.265   7.247  0.0821 -0.1482  0.2425
 1184loPI    C118601  19.169  14.989   4.198  0.1238 -0.0036  0.1256
 1184loPI    C218602  19.520  15.000   4.007 -0.0633  0.0158 -0.2266
 1184loPI    C318603  19.308  14.661   4.015  0.0145 -0.0285  0.0865
 1184loPI   PO418604  19.352  15.094   4.476  0.0516  0.1529 -0.1500
 1184loPI   GL118605  19.317  15.099   4.897  0.0360 -0.1099  0.0161
 1184loPI   GL218606  19.054  15.428   4.951  0.3270  0.0875  0.4235
 1184loPI   C1A18607  19.244  14.889   5.300  0.4746 -0.1107  0.0643
 1184loPI   C2A18608  19.186  14.499   5.532  0.0049 -0.0333 -0.0643
 1184loPI   C3A18609  19.038  14.255   5.849  0.0929  0.1220  0.0016
 1184loPI   C4A18610  18.882  14.030   6.144 -0.0800  0.0089  0.2470
 1184loPI   C5A18611  18.483  13.865   6.171 -0.1193  0.0603  0.2080
 1184loPI   C6A18612  18.085  13.792   6.434  0.0101  0.0352 -0.0115
 1184loPI   C1B18613  18.917  15.342   5.236 -0.0522  0.3289 -0.1190
 1184loPI   C2B18614  18.802  15.382   5.578  0.2552 -0.2136 -0.0253
 1184loPI   C3B18615  18.815  15.470   6.092 -0.2072  0.1321  0.1302
 1184loPI   C4B18616  18.991  15.641   6.553 -0.2569  0.3031 -0.1091
 1185loPI    C118617   7.814  12.770   4.637  0.2008  0.0010 -0.1186
 1185loPI    C218618   7.845  12.434   4.852 -0.0788  0.0025 -0.0726
 1185loPI    C318619   7.638  12.434   4.510 -0.0392  0.1168 -0.0970
 1185loPI   PO418620   7.599  12.923   4.783 -0.2570  0.4127 -0.1252
 1185loPI   GL118621   7.605  13.287   5.048 -0.2674  0.0973 -0.0406
 1185loPI   GL218622   7.824  13.645   5.074 -0.3432  0.0609  0.2879
 1185loPI   C1A18623   7.384  13.187   5.381  0.1344 -0.3035 -0.0376
 1185loPI   C2A18624   7.405  13.241   5.813 -0.1481  0.0975  0.1894
 1185loPI   C3A18625   7.615  13.240   6.199 -0.1063  0.1517  0.2003
 1185loPI   C4A18626   7.698  13.270   6.530  0.1855  0.1321 -0.2309
 1185loPI   C5A18627   7.734  13.333   6.942 -0.3530 -0.0127 -0.1300
 1185loPI   C6A18628   7.795  13.440   7.417 -0.0973 -0.1518  0.2695
 1185loPI   C1B18629   7.612  13.681   5.483  0.3614 -0.1409 -0.0432
 1185loPI   C2B18630   7.504  14.107   5.753 -0.0877 -0.3357  0.1302
 1185loPI   C3B18631   7.607  14.131   6.174 -0.3727 -0.0642 -0.2779
 1185loPI   C4B18632   7.385  14.163   6.569  0.0961 -0.1718 -0.4623
 1186loPI    C118633   0.272  13.417   4.333 -0.0247  0.2309  0.0853
 1186loPI    C218634   0.351  13.698   4.607 -0.1260  0.2654  0.0796
 1186loPI    C318635   0.298  13.801   4.224  0.2630  0.1899  0.0006
 1186loPI   PO418636   0.024  13.224   4.384 -0.0076  0.1929  0.1702
 1186loPI   GL118637   0.083  13.055   4.805  0.0373 -0.0803 -0.0851
 1186loPI   GL218638   0.013  13.403   4.879 -0.1575 -0.3433 -0.1836
 1186loPI   C1A18639   0.324  12.807   4.983 -0.3071  0.1535 -0.0379
 1186loPI   C2A18640   0.375  12.523   5.188 -0.1514  0.0691  0.2530
 1186loPI   C3A18641   0.350  12.225   5.460 -0.1227 -0.3756  0.0586
 1186loPI   C4A18642   0.286  12.236   5.870  0.1463  0.0060 -0.4741
 1186loPI   C5A18643   0.344  12.607   6.200 -0.1256  0.1746  0.1001
 1186loPI   C6A18644   0.309  13.035   6.210 -0.1606 -0.1862  0.2891
 1186loPI   C1B18645   0.021  13.624   5.275 -0.0848 -0.2004  0.0616
 1186loPI   C2B18646   0.259  13.674   5.607  0.3133 -0.3374 -0.1303
 1186loPI   C3B18647   0.420  13.873   5.930  0.1032  0.2934 -0.0415
 1186loPI   C4B18648   0.346  13.980   6.436 -0.1152 -0.0413  0.1079
 1187loPI    C118649  15.650  13.543   4.334  0.1499 -0.2172  0.0949
 1187loPI    C218650  15.386  13.329   4.124  0.1910 -0.2388  0.0652
 1187loPI    C318651  15.714  13.473   3.946  0.3178 -0.4122  0.1554
 1187loPI   PO418652  15.693  13.383   4.495 -0.0408  0.0686  0.2007
 1187loPI   GL118653  15.836  13.233   4.888  0.0596  0.2492  0.1275
 1187loPI   GL218654  16.023  13.162   5.085  0.3446 -0.0045  0.0073
 1187loPI   C1A18655  15.497  13.353   5.131 -0.0128 -0.4246 -0.3325
 1187loPI   C2A18656  15.503  13.200   5.576  0.2104  0.1904  0.2156
 1187loPI   C3A18657  15.565  13.030   5.961  0.0468 -0.0386  0.5455
 1187loPI   C4A18658  15.338  13.053   6.370 -0.0386 -0.2202  0.0553
 1187loPI   C5A18659  15.090  12.882   6.718  0.1344  0.1619 -0.2378
 1187loPI   C6A18660  14.961  12.623   7.052 -0.0394  0.2628  0.2436
 1187loPI   C1B18661  15.981  13.138   5.512 -0.0982  0.0264 -0.0019
 1187loPI   C2B18662  16.135  13.032   5.831  0.0453 -0.2283 -0.2018
 1187loPI   C3B18663  16.043  13.028   6.216  0.2980 -0.0088 -0.0135
 1187loPI   C4B18664  15.796  12.763   6.468  0.2154 -0.0133 -0.4319
 1188loPI    C118665  11.886  14.937   4.257 -0.0042 -0.0436  0.1863
 1188loPI    C218666  11.626  15.208   4.119 -0.0937 -0.1528  0.1382
 1188loPI    C318667  11.926  15.083   3.887 -0.0318 -0.0692  0.1730
 1188loPI   PO418668  11.897  14.997   4.509  0.0840 -0.1032  0.0389
 1188loPI   GL118669  12.172  14.810   4.825  0.1789 -0.0559 -0.1947
 1188loPI   GL218670  12.259  15.091   5.064  0.0225  0.1336 -0.0211
 1188loPI   C1A18671  12.004  14.541   5.050  0.1804 -0.2348 -0.0351
 1188loPI   C2A18672  11.926  14.359   5.433  0.0745  0.1226  0.1322
 1188loPI   C3A18673  11.687  14.511   5.811  0.2091 -0.1752 -0.2938
 1188loPI   C4A18674  11.759  14.438   6.127  0.1423  0.1593 -0.0930
 1188loPI   C5A18675  11.696  14.450   6.488  0.0545  0.1763 -0.2697
 1188loPI   C6A18676  11.471  14.404   6.851  0.1578  0.0963 -0.1156
 1188loPI   C1B18677  12.383  15.221   5.484 -0.0536  0.1204 -0.1023
 1188loPI   C2B18678  12.381  15.296   5.947  0.3790  0.3802 -0.0861
 1188loPI   C3B18679  12.527  15.284   6.436  0.2848 -0.1477 -0.2037
 1188loPI   C4B18680  12.314  15.387   6.849 -0.1092 -0.1314 -0.1719
 1189loPI    C118681  11.684  16.024   4.469  0.0727  0.0081  0.0932
 1189loPI    C218682  11.675  16.394   4.318 -0.1555  0.0150  0.1205
 1189loPI    C318683  11.775  16.085   4.084  0.1519  0.1059  0.1269
 1189loPI   PO418684  11.474  16.004   4.617  0.0862 -0.0255 -0.1745
 1189loPI   GL118685  11.368  16.050   5.098 -0.1921  0.1078 -0.0408
 1189loPI   GL218686  11.078  15.936   5.070 -0.0189  0.0070  0.0866
 1189loPI   C1A18687  11.451  15.806   5.485 -0.0249  0.0760  0.4140
 1189loPI   C2A18688  11.258  15.808   5.981  0.2313 -0.0830  0.1299
 1189loPI   C3A18689  10.938  15.786   6.335  0.1838  0.0284  0.0738
 1189loPI   C4A18690  10.878  15.708   6.698  0.1077  0.0929  0.1043
 1189loPI   C5A18691  11.127  15.653   6.992 -0.1409  0.0979  0.0749
 1189loPI   C6A18692  11.167  15.687   7.449  0.2319  0.3860 -0.0021
 1189loPI   C1B18693  10.982  16.252   5.400 -0.1865  0.4212  0.1859
 1189loPI   C2B18694  11.062  16.643   5.604  0.0160  0.5834 -0.0454
 1189loPI   C3B18695  11.229  17.014   5.794  0.1760 -0.2693 -0.1125
 1189loPI   C4B18696  11.089  17.382   5.779  0.0613  0.2071 -0.0818
 1190loPI    C118697   2.645   6.612   4.813 -0.0041 -0.1006  0.1799
 1190loPI    C218698   2.989   6.509   4.988  0.0759 -0.0493  0.0545
 1190loPI    C318699   2.927   6.421   4.603 -0.0318 -0.0152  0.0638
 1190loPI   PO418700   2.496   6.532   4.927  0.1798 -0.1360 -0.0077
 1190loPI   GL118701   2.201   6.491   5.343 -0.0070 -0.0930  0.0402
 1190loPI   GL218702   2.260   6.251   5.529 -0.3314  0.1155 -0.0433
 1190loPI   C1A18703   2.485   6.735   5.620 -0.2300 -0.1944  0.4620
 1190loPI   C2A18704   2.703   6.825   5.944 -0.2796  0.0130 -0.2517
 1190loPI   C3A18705   2.553   7.051   6.285  0.2789  0.1182 -0.1409
 1190loPI   C4A18706   2.282   7.175   6.541  0.1812 -0.0470 -0.3877
 1190loPI   C5A18707   2.166   7.560   6.738 -0.0877 -0.0656  0.2631
 1190loPI   C6A18708   2.208   7.870   7.029 -0.3364 -0.0507 -0.0887
 1190loPI   C1B18709   2.435   6.362   5.927  0.0353  0.1562  0.2489
 1190loPI   C2B18710   2.558   6.539   6.300 -0.2195  0.0193  0.1293
 1190loPI   C3B18711   2.753   6.689   6.663 -0.0809  0.3838  0.3140
 1190loPI   C4B18712   2.763   6.604   7.097 -0.1514 -0.1534  0.0459
 1191loPI    C118713  16.362  10.574   4.364  0.2318 -0.1969 -0.0658
 1191loPI    C218714  16.464  10.888   4.138 -0.1566 -0.1188 -0.1385
 1191loPI    C318715  16.356  10.543   3.965 -0.0827 -0.1792 -0.0650
 1191loPI   PO418716  16.508  10.570   4.567 -0.0816 -0.0617  0.1644
 1191loPI   GL118717  16.578  10.757   4.861 -0.0212  0.1885 -0.0123
 1191loPI   GL218718  16.420  10.521   5.114  0.0498 -0.3022 -0.3322
 1191loPI   C1A18719  16.807  11.011   5.196 -0.1546 -0.1623 -0.0551
 1191loPI   C2A18720  17.089  11.187   5.571  0.1396  0.0608  0.0816
 1191loPI   C3A18721  17.089  11.128   6.037  0.0425 -0.0890  0.1926
 1191loPI   C4A18722  16.918  11.219   6.462 -0.2365 -0.0636 -0.0223
 1191loPI   C5A18723  16.514  11.456   6.590  0.0007 -0.2404 -0.1330
 1191loPI   C6A18724  16.131  11.738   6.655 -0.0137 -0.0583 -0.1114
 1191loPI   C1B18725  16.428  10.501   5.588  0.4982 -0.3148  0.1661
 1191loPI   C2B18726  16.276  10.788   5.944  0.0832 -0.0384  0.1566
 1191loPI   C3B18727  16.380  11.088   6.350 -0.1658 -0.0710  0.0967
 1191loPI   C4B18728  16.293  10.970   6.841  0.2310  0.0597 -0.1440
 1192loPI    C118729   6.545   0.922   4.964  0.0808 -0.0698 -0.0969
 1192loPI    C218730   6.515   0.677   4.650 -0.1777  0.0452 -0.1649
 1192loPI    C318731   6.795   0.963   4.654  0.0271 -0.1522 -0.1515
 1192loPI   PO418732   6.587   0.769   5.138 -0.1458  0.1814  0.0190
 1192loPI   GL118733   6.761   0.840   5.569 -0.0322 -0.1878  0.1289
 1192loPI   GL218734   7.054   0.690   5.504  0.0795 -0.0308  0.0196
 1192loPI   C1A18735   6.459   0.803   5.811 -0.0639  0.1269 -0.3744
 1192loPI   C2A18736   6.551   0.813   6.212  0.2104 -0.2983 -0.0403
 1192loPI   C3A18737   6.469   0.793   6.589  0.1208 -0.2224 -0.1240
 1192loPI   C4A18738   6.505   0.688   7.030 -0.0370 -0.0739  0.0130
 1192loPI   C5A18739   6.485   0.293   7.312  0.1360 -0.0187  0.2691
 1192loPI   C6A18740   6.630  -0.082   7.588  0.0833 -0.1870  0.1222
 1192loPI   C1B18741   7.042   0.633   6.008  0.2765  0.2125  0.1521
 1192loPI   C2B18742   7.000   0.648   6.470  0.2536 -0.1325 -0.1961
 1192loPI   C3B18743   6.921   0.904   6.856  0.1752  0.0025 -0.2102
 1192loPI   C4B18744   7.111   1.048   7.210 -0.0600  0.0094 -0.0770
 1193loPI    C118745  16.302  18.378   4.769 -0.0860 -0.1056 -0.1822
 1193loPI    C218746  16.264  18.432   4.374 -0.0159 -0.5159 -0.2498
 1193loPI    C318747  16.566  18.212   4.518  0.0857 -0.1902  0.0501
 1193loPI   PO418748  16.277  18.580   4.856 -0.1130  0.0414  0.0345
 1193loPI   GL118749  15.841  18.529   5.055 -0.3536 -0.0030 -0.2036
 1193loPI   GL218750  15.700  18.293   5.298  0.3723 -0.1284  0.4017
 1193loPI   C1A18751  16.078  18.608   5.473  0.3615 -0.1237  0.0227
 1193loPI   C2A18752  16.415  18.505   5.695  0.2116 -0.1196  0.2661
 1193loPI   C3A18753  16.564  18.700   6.002  0.1794 -0.3007  0.0205
 1193loPI   C4A18754  16.438  18.512   6.366  0.1874 -0.4196  0.1604
 1193loPI   C5A18755  16.578  18.175   6.682  0.2431  0.0247  0.1614
 1193loPI   C6A18756  16.849  17.807   6.613 -0.3675 -0.2294 -0.2296
 1193loPI   C1B18757  15.963  18.106   5.652  0.1027 -0.1236  0.2379
 1193loPI   C2B18758  15.825  17.768   6.016  0.0325  0.1680  0.2997
 1193loPI   C3B18759  15.703  17.541   6.319  0.2593 -0.0242  0.1049
 1193loPI   C4B18760  15.544  17.400   6.727  0.5021 -0.4475 -0.2749
 1194loPI    C118761  12.245   0.943   4.753 -0.2496  0.0702  0.0062
 1194loPI    C218762  12.158   0.673   4.471 -0.0856 -0.0253  0.0463
 1194loPI    C318763  11.885   0.768   4.748 -0.1509 -0.1354  0.0205
 1194loPI   PO418764  12.486   0.763   4.817  0.1276 -0.0217 -0.3582
 1194loPI   GL118765  12.595   0.649   5.226  0.3130  0.0642  0.0606
 1194loPI   GL218766  12.190   0.827   5.245 -0.1716  0.1415  0.0269
 1194loPI   C1A18767  12.752   0.962   5.549  0.0241  0.0851 -0.0679
 1194loPI   C2A18768  12.939   0.725   5.906 -0.2341  0.1528 -0.0116
 1194loPI   C3A18769  13.078   0.751   6.264 -0.1902  0.2275 -0.0226
 1194loPI   C4A18770  13.094   0.728   6.661  0.1243 -0.2329  0.2625
 1194loPI   C5A18771  13.137   0.826   7.012  0.1469  0.2579  0.3629
 1194loPI   C6A18772  12.977   0.651   7.457 -0.0402 -0.1483  0.2409
 1194loPI   C1B18773  12.299   0.778   5.609  0.0690 -0.1941  0.0561
 1194loPI   C2B18774  12.227   0.553   6.019 -0.0725 -0.1537  0.1944
 1194loPI   C3B18775  12.205   0.337   6.485 -0.0200 -0.1799  0.1021
 1194loPI   C4B18776  12.406   0.100   6.888 -0.1596  0.2553 -0.0739
 1195loPI    C118777  15.942  13.072   4.110  0.0684  0.4905  0.0067
 1195loPI    C218778  16.134  12.802   3.886  0.0526  0.2843  0.2388
 1195loPI    C318779  15.965  13.120   3.713 -0.0856  0.0532 -0.0605
 1195loPI   PO418780  15.807  12.893   4.268  0.0126  0.0932 -0.1637
 1195loPI   GL118781  15.470  12.902   4.605 -0.1917 -0.0292 -0.0995
 1195loPI   GL218782  15.252  13.142   4.751  0.1236  0.2928 -0.1846
 1195loPI   C1A18783  15.471  12.834   5.105  0.0051  0.2416  0.0792
 1195loPI   C2A18784  15.350  12.658   5.491  0.2527 -0.0045  0.2986
 1195loPI   C3A18785  15.336  12.601   5.842 -0.3694  0.1307 -0.1818
 1195loPI   C4A18786  15.306  12.577   6.365 -0.3874  0.0841 -0.1408
 1195loPI   C5A18787  15.071  12.271   6.670 -0.0874  0.2654  0.1159
 1195loPI   C6A18788  15.089  12.060   7.138 -0.0654 -0.0746 -0.2344
 1195loPI   C1B18789  14.986  12.846   5.009 -0.0363 -0.3223 -0.0075
 1195loPI   C2B18790  14.799  12.708   5.461  0.0786 -0.0003  0.1539
 1195loPI   C3B18791  14.875  12.428   5.839  0.2814 -0.3512 -0.0300
 1195loPI   C4B18792  15.128  12.134   6.132  0.1816 -0.0641  0.0322
 1196loPI    C118793   5.870  15.982   4.518 -0.1350  0.0950  0.1165
 1196loPI    C218794   5.826  16.220   4.200  0.2074  0.0164  0.0066
 1196loPI    C318795   5.890  15.828   4.149  0.2604  0.0031  0.1718
 1196loPI   PO418796   5.682  16.082   4.653  0.2055 -0.0160 -0.1305
 1196loPI   GL118797   5.639  16.305   4.935  0.4778 -0.0932 -0.0990
 1196loPI   GL218798   5.903  16.479   5.008  0.0239  0.0036  0.2329
 1196loPI   C1A18799   5.571  16.042   5.286 -0.0491 -0.1039 -0.4124
 1196loPI   C2A18800   5.324  16.157   5.634  0.0065 -0.1446  0.2572
 1196loPI   C3A18801   5.283  16.340   6.001 -0.0331  0.0483 -0.0007
 1196loPI   C4A18802   5.651  16.524   6.284 -0.0400  0.0839 -0.0329
 1196loPI   C5A18803   5.750  16.314   6.660 -0.1202 -0.0583  0.0652
 1196loPI   C6A18804   5.650  16.142   6.908 -0.0901  0.0305 -0.2219
 1196loPI   C1B18805   5.831  16.414   5.475 -0.0933  0.0388 -0.1369
 1196loPI   C2B18806   5.746  16.280   5.869 -0.5446  0.2946  0.0865
 1196loPI   C3B18807   5.924  15.984   6.221 -0.0603 -0.4706 -0.1105
 1196loPI   C4B18808   5.937  15.781   6.622 -0.4194 -0.2181  0.0730
 1197loPI    C118809   4.326  16.649   4.779  0.1386  0.2498 -0.0896
 1197loPI    C218810   4.079  16.504   4.501 -0.0401  0.2397  0.0728
 1197loPI    C318811   4.052  16.887   4.612  0.0505  0.2513  0.0551
 1197loPI   PO418812   4.313  16.634   5.038  0.0877  0.0961 -0.0756
 1197loPI   GL118813   4.344  16.768   5.418  0.0843 -0.0528  0.1834
 1197loPI   GL218814   4.579  16.901   5.458 -0.3951  0.0736 -0.0630
 1197loPI   C1A18815   4.422  16.545   5.725  0.0245  0.2576  0.4068
 1197loPI   C2A18816   4.254  16.487   6.141  0.0618  0.1863  0.0306
 1197loPI   C3A18817   4.340  16.642   6.508  0.0921 -0.1158  0.0600
 1197loPI   C4A18818   4.540  16.622   6.946 -0.0038  0.2873  0.1166
 1197loPI   C5A18819   4.854  16.454   7.143 -0.2209 -0.0228 -0.2593
 1197loPI   C6A18820   4.963  16.124   7.493 -0.1333 -0.0504  0.2249
 1197loPI   C1B18821   4.326  17.207   5.731 -0.1058 -0.0873  0.1104
 1197loPI   C2B18822   4.054  17.485   5.955 -0.1813  0.1694  0.0419
 1197loPI   C3B18823   3.860  17.987   6.041  0.0776  0.2023 -0.2129
 1197loPI   C4B18824   3.760  18.327   6.359  0.0121 -0.0105  0.1463
 1198loPI    C118825   8.502   9.860   4.558  0.0277 -0.1232 -0.0818
 1198loPI    C218826   8.110   9.929   4.524  0.0726  0.0736 -0.2171
 1198loPI    C318827   8.342   9.930   4.198  0.2706  0.4957 -0.0813
 1198loPI   PO418828   8.566   9.541   4.760 -0.1098  0.0691 -0.2426
 1198loPI   GL118829   8.383   9.190   5.150  0.2036 -0.4145  0.1563
 1198loPI   GL218830   8.105   9.379   5.340  0.1808 -0.2634  0.0881
 1198loPI   C1A18831   8.670   9.402   5.495  0.2022  0.0938 -0.0641
 1198loPI   C2A18832   9.081   9.376   5.688 -0.0274 -0.1138 -0.2635
 1198loPI   C3A18833   9.155   9.592   6.045 -0.0645  0.0647 -0.1969
 1198loPI   C4A18834   9.453   9.888   6.367  0.2059  0.2244 -0.0015
 1198loPI   C5A18835   9.369  10.170   6.794 -0.0501  0.0553  0.0978
 1198loPI   C6A18836   9.439  10.311   7.291  0.0712  0.1896  0.3651
 1198loPI   C1B18837   8.289   9.408   5.788 -0.0021 -0.0562 -0.2962
 1198loPI   C2B18838   8.493   9.390   6.092 -0.3823  0.1446 -0.2712
 1198loPI   C3B18839   8.874   9.309   6.348  0.1011 -0.3549 -0.1409
 1198loPI   C4B18840   9.090   9.648   6.583  0.2188 -0.1657  0.2057
 1199loPI    C118841  10.790   0.974   4.540  0.2302  0.0311  0.0060
 1199loPI    C218842  10.437   1.046   4.367  0.2075  0.0605  0.0642
 1199loPI    C318843  10.774   1.081   4.154  0.1619 -0.1786 -0.0504
 1199loPI   PO418844  10.821   1.165   4.724  0.1102 -0.0953  0.1823
 1199loPI   GL118845  10.910   1.124   5.239 -0.1661  0.0676  0.2793
 1199loPI   GL218846  10.732   1.318   5.287 -0.0589  0.2732  0.0331
 1199loPI   C1A18847  10.990   1.243   5.686 -0.1674  0.1702 -0.1637
 1199loPI   C2A18848  11.028   1.451   6.082 -0.2733  0.1771  0.5502
 1199loPI   C3A18849  11.020   1.390   6.479  0.0456  0.3595  0.1187
 1199loPI   C4A18850  11.109   1.184   6.887  0.1166 -0.0927 -0.1870
 1199loPI   C5A18851  11.318   1.000   7.185  0.2633  0.2464 -0.2824
 1199loPI   C6A18852  11.424   0.679   7.519  0.0936  0.0165 -0.0392
 1199loPI   C1B18853  10.674   1.616   5.632 -0.4675  0.2476  0.0575
 1199loPI   C2B18854  10.803   2.003   5.852  0.1454  0.1931  0.2867
 1199loPI   C3B18855  10.770   1.892   6.287  0.0302  0.1115  0.2869
 1199loPI   C4B18856  11.173   1.925   6.652 -0.2588  0.0260 -0.0637
 1200loPI    C118857  12.789   9.987   4.743 -0.3159  0.1069  0.2046
 1200loPI    C218858  12.878  10.377   4.727  0.0293  0.0235 -0.0308
 1200loPI    C318859  12.962  10.140   4.416 -0.3005 -0.2169  0.0578
 1200loPI   PO418860  12.571  10.029   4.924  0.1202  0.0257 -0.1127
 1200loPI   GL118861  12.650  10.272   5.235  0.2096 -0.0134 -0.1616
 1200loPI   GL218862  12.875  10.491   5.268 -0.1776 -0.0203 -0.1324
 1200loPI   C1A18863  12.336  10.313   5.566  0.3595 -0.3910  0.0975
 1200loPI   C2A18864  12.341  10.425   6.079  0.1129  0.0365 -0.1769
 1200loPI   C3A18865  12.498  10.385   6.355 -0.1179  0.0159  0.0963
 1200loPI   C4A18866  12.457  10.620   6.582  0.1823 -0.1031 -0.1401
 1200loPI   C5A18867  12.602  10.938   6.827  0.0082  0.1320  0.1121
 1200loPI   C6A18868  12.684  11.166   7.195  0.3075 -0.0314 -0.0554
 1200loPI   C1B18869  12.773  10.439   5.723  0.1949 -0.0699 -0.3385
 1200loPI   C2B18870  12.948  10.576   6.142  0.1459  0.1144  0.3692
 1200loPI   C3B18871  13.007  10.753   6.518  0.0928  0.0643  0.2812
 1200loPI   C4B18872  12.869  10.541   6.842  0.0034  0.0211  0.0329
 1201loPI    C118873   5.862  12.213   4.842 -0.1958  0.1115  0.3518
 1201loPI    C218874   5.532  12.120   4.637 -0.0554  0.0621  0.1445
 1201loPI    C318875   5.845  12.280   4.448  0.0902 -0.0189  0.3145
 1201loPI   PO418876   5.828  12.136   5.054  0.0253 -0.1255 -0.0560
 1201loPI   GL118877   5.616  12.154   5.508  0.0022 -0.2576  0.1604
 1201loPI   GL218878   5.320  12.325   5.603 -0.2037 -0.2897  0.1210
 1201loPI   C1A18879   5.778  11.887   5.894  0.1400  0.0333  0.0636
 1201loPI   C2A18880   6.057  12.051   6.241 -0.2780  0.0889 -0.0811
 1201loPI   C3A18881   6.152  12.333   6.534 -0.1974  0.1665 -0.2326
 1201loPI   C4A18882   6.169  12.242   6.887 -0.1252  0.1395  0.0922
 1201loPI   C5A18883   5.937  12.256   7.278 -0.2881 -0.0230  0.0286
 1201loPI   C6A18884   6.007  12.118   7.721 -0.2019  0.1406 -0.0768
 1201loPI   C1B18885   5.361  12.189   6.043 -0.1684  0.1552 -0.0664
 1201loPI   C2B18886   5.544  12.030   6.356 -0.0512 -0.1772  0.0004
 1201loPI   C3B18887   5.718  11.703   6.403  0.3155  0.4650  0.1004
 1201loPI   C4B18888   6.057  11.718   6.719 -0.3471 -0.0913 -0.1853
 1202loPI    C118889   2.010   6.915   4.759 -0.0534 -0.0543  0.0634
 1202loPI    C218890   2.062   6.548   4.608 -0.1224 -0.0347 -0.0091
 1202loPI    C318891   2.316   6.842   4.513  0.0782 -0.1222  0.2457
 1202loPI   PO418892   1.827   6.839   5.040 -0.2508  0.1311 -0.0773
 1202loPI   GL118893   1.574   6.900   5.385  0.0976 -0.1654  0.1496
 1202loPI   GL218894   1.721   6.538   5.451  0.2159  0.1705  0.0169
 1202loPI   C1A18895   1.478   6.812   5.798  0.1209  0.0519  0.1262
 1202loPI   C2A18896   1.586   6.522   6.114  0.5119 -0.2106  0.2727
 1202loPI   C3A18897   1.664   6.534   6.635 -0.0388  0.0075  0.4121
 1202loPI   C4A18898   1.822   6.344   6.947  0.0701 -0.2369 -0.1819
 1202loPI   C5A18899   1.997   6.508   7.328  0.2388  0.0334 -0.0893
 1202loPI   C6A18900   2.365   6.650   7.340 -0.1836  0.1309 -0.3116
 1202loPI   C1B18901   1.837   6.254   5.746  0.1973  0.2515 -0.0453
 1202loPI   C2B18902   1.811   6.107   6.132  0.1224  0.0303 -0.1486
 1202loPI   C3B18903   1.646   6.035   6.550 -0.2995 -0.1800  0.2663
 1202loPI   C4B18904   1.604   5.873   6.942 -0.1115  0.0239  0.0820
 1203loPI    C118905   8.138  12.387   4.414  0.0339  0.0651  0.0855
 1203loPI    C218906   8.330  12.069   4.264 -0.2457 -0.1019  0.0757
 1203loPI    C318907   8.069  12.272   4.038 -0.1923  0.0347  0.1350
 1203loPI   PO418908   8.442  12.491   4.548 -0.2285  0.2304  0.1584
 1203loPI   GL118909   8.361  12.510   4.965 -0.1082 -0.0801 -0.1504
 1203loPI   GL218910   8.327  12.256   5.204 -0.3019  0.2663  0.2187
 1203loPI   C1A18911   8.505  12.824   5.230 -0.1453  0.0637  0.1744
 1203loPI   C2A18912   8.410  13.228   5.413 -0.1688 -0.4081 -0.1482
 1203loPI   C3A18913   8.306  13.406   5.759 -0.3451  0.1484 -0.0293
 1203loPI   C4A18914   8.211  13.450   6.189  0.1188 -0.0130  0.1092
 1203loPI   C5A18915   8.214  13.655   6.529 -0.0427  0.5514 -0.0322
 1203loPI   C6A18916   8.086  13.647   7.012  0.4046 -0.0947 -0.0047
 1203loPI   C1B18917   8.481  12.477   5.537  0.3234 -0.2655  0.1105
 1203loPI   C2B18918   8.604  12.304   5.877  0.0683 -0.3790 -0.6327
 1203loPI   C3B18919   8.828  12.399   6.214  0.0337  0.2229 -0.3464
 1203loPI   C4B18920   9.179  12.257   6.129 -0.0707 -0.0060 -0.1524
 1204loPI    C118921  18.625  18.777   4.776  0.1679  0.3526 -0.1853
 1204loPI    C218922  18.472  18.921   4.436  0.1098  0.1849 -0.2311
 1204loPI    C318923  18.314  19.027   4.788  0.0338  0.1919 -0.2670
 1204loPI   PO418924  18.931  18.921   4.774 -0.0564  0.2707 -0.1448
 1204loPI   GL118925  18.899  19.114   5.082 -0.1015  0.0515  0.0795
 1204loPI   GL218926  18.644  19.172   5.172  0.2276 -0.0124 -0.0489
 1204loPI   C1A18927  19.074  19.148   5.528  0.1679 -0.0369 -0.2244
 1204loPI   C2A18928  19.083  19.361   5.932  0.0165 -0.3955 -0.2200
 1204loPI   C3A18929  18.934  19.497   6.275 -0.3482  0.0690 -0.0753
 1204loPI   C4A18930  18.785  19.605   6.713 -0.0941  0.0625 -0.1477
 1204loPI   C5A18931  18.810  19.925   7.127  0.2229  0.3745 -0.1213
 1204loPI   C6A18932  18.777  20.207   7.567  0.1968 -0.0739 -0.0561
 1204loPI   C1B18933  18.653  18.866   5.568  0.0153  0.2199  0.1976
 1204loPI   C2B18934  18.867  18.885   5.861  0.0745 -0.3858  0.1931
 1204loPI   C3B18935  19.166  18.730   6.236 -0.1561  0.1523  0.1622
 1204loPI   C4B18936  19.298  18.725   6.620  0.2779  0.0186  0.1044
 1205loPI    C118937   1.965  17.249   4.738  0.1564 -0.0789 -0.0438
 1205loPI    C218938   1.882  17.190   4.351  0.1255 -0.0556 -0.0408
 1205loPI    C318939   1.917  17.562   4.493  0.0847 -0.0636 -0.0102
 1205loPI   PO418940   2.223  17.077   4.875  0.1060 -0.1652 -0.0632
 1205loPI   GL118941   2.378  17.007   5.286 -0.1137  0.4337  0.0323
 1205loPI   GL218942   2.081  16.906   5.402  0.1329  0.0429 -0.0099
 1205loPI   C1A18943   2.505  16.718   5.602  0.1142  0.1497  0.1396
 1205loPI   C2A18944   2.658  16.704   6.011  0.1637  0.2791  0.0300
 1205loPI   C3A18945   2.685  16.778   6.466 -0.0830 -0.0797 -0.0927
 1205loPI   C4A18946   2.554  17.019   6.895  0.2295 -0.0537  0.2715
 1205loPI   C5A18947   2.614  17.363   7.263  0.1594 -0.1157 -0.1256
 1205loPI   C6A18948   2.546  17.574   7.612 -0.2890  0.1024 -0.1723
 1205loPI   C1B18949   2.012  16.655   5.859  0.0902 -0.4406  0.2047
 1205loPI   C2B18950   2.157  16.587   6.258  0.3191 -0.1747  0.1681
 1205loPI   C3B18951   2.181  16.633   6.751  0.0547 -0.2304  0.2346
 1205loPI   C4B18952   1.900  16.606   7.090 -0.2367  0.1963  0.0528
 1206loPI    C118953  19.440   1.164   4.620  0.0661 -0.1426 -0.1912
 1206loPI    C218954  19.643   1.258   4.288  0.2842  0.3019  0.0590
 1206loPI    C318955  19.278   1.411   4.350  0.0703 -0.1035 -0.1580
 1206loPI   PO418956  19.691   1.213   4.826 -0.0668  0.1134 -0.0906
 1206loPI   GL118957  20.043   1.010   5.150 -0.4514 -0.2875  0.0547
 1206loPI   GL218958  20.246   1.221   5.309  0.0754 -0.0862  0.0550
 1206loPI   C1A18959  20.006   0.784   5.501  0.0820  0.0798  0.2286
 1206loPI   C2A18960  19.835   0.939   5.900 -0.1443 -0.0466  0.5112
 1206loPI   C3A18961  19.614   1.190   5.988 -0.1015  0.1576  0.0518
 1206loPI   C4A18962  19.654   1.122   6.459 -0.1176  0.3462 -0.2597
 1206loPI   C5A18963  19.984   1.215   6.801 -0.2090  0.1037  0.1431
 1206loPI   C6A18964  20.329   1.068   6.700 -0.1205 -0.0742 -0.1304
 1206loPI   C1B18965  20.244   1.218   5.709 -0.1398  0.0518 -0.3436
 1206loPI   C2B18966  19.922   1.588   5.871  0.1102  0.1969 -0.0812
 1206loPI   C3B18967  19.717   1.669   6.280  0.0858 -0.1356 -0.4288
 1206loPI   C4B18968  19.680   1.600   6.650  0.0318  0.2502 -0.0528
 1207loPI    C118969   1.303  10.716   4.258  0.0896  0.1394 -0.0515
 1207loPI    C218970   0.937  10.873   4.291 -0.0525 -0.2017  0.0376
 1207loPI    C318971   1.174  10.980   3.987 -0.1335  0.1988  0.1099
 1207loPI   PO418972   1.448  10.806   4.575 -0.1398 -0.2453 -0.0936
 1207loPI   GL118973   1.477  10.950   4.989  0.1497 -0.2188  0.0263
 1207loPI   GL218974   1.777  11.216   5.215  0.2489  0.0415 -0.1033
 1207loPI   C1A18975   1.210  11.103   5.383 -0.2049  0.1175  0.3102
 1207loPI   C2A18976   0.818  11.252   5.522 -0.1515  0.2083  0.1556
 1207loPI   C3A18977   0.551  11.251   5.769  0.0046  0.0829 -0.2961
 1207loPI   C4A18978   0.454  10.962   6.150 -0.0606 -0.2684  0.0031
 1207loPI   C5A18979   0.172  11.018   6.546  0.1427  0.0716  0.0810
 1207loPI   C6A18980  -0.068  11.160   6.936  0.2753 -0.0908  0.1025
 1207loPI   C1B18981   1.709  11.205   5.639  0.0862 -0.2589  0.1324
 1207loPI   C2B18982   1.917  11.142   6.126 -0.2514 -0.2484 -0.0541
 1207loPI   C3B18983   1.926  11.416   6.493 -0.1299  0.0039  0.0673
 1207loPI   C4B18984   2.021  11.675   6.754  0.0419  0.0042  0.0385
 1208loPI    C118985  15.867   2.462   4.624  0.0074  0.0833 -0.1191
 1208loPI    C218986  16.225   2.622   4.699  0.0577 -0.0863  0.0093
 1208loPI    C318987  16.194   2.310   4.451 -0.0637  0.2401 -0.3978
 1208loPI   PO418988  15.749   2.377   4.820  0.1153 -0.2697  0.2381
 1208loPI   GL118989  15.654   2.334   5.267 -0.2056 -0.2694 -0.2366
 1208loPI   GL218990  15.325   2.350   5.281 -0.2450  0.1466  0.2628
 1208loPI   C1A18991  15.740   2.445   5.698  0.2500 -0.0945 -0.1420
 1208loPI   C2A18992  15.741   2.436   6.150  0.1129 -0.3772  0.1226
 1208loPI   C3A18993  15.708   2.529   6.558 -0.2466 -0.0642  0.0138
 1208loPI   C4A18994  15.877   2.450   6.823 -0.0367 -0.0450 -0.3405
 1208loPI   C5A18995  15.870   2.654   7.186  0.0095 -0.1198 -0.1442
 1208loPI   C6A18996  15.751   3.093   7.226  0.3941 -0.0459  0.0120
 1208loPI   C1B18997  15.301   2.153   5.632  0.1284  0.0687 -0.2138
 1208loPI   C2B18998  15.458   1.953   5.969 -0.2143 -0.0753  0.1941
 1208loPI   C3B18999  15.593   1.557   6.093  0.2318  0.3490 -0.0084
 1208loPI   C4B19000  15.750   1.168   5.825  0.0492 -0.0865 -0.4090
 1209loPI    C119001  10.811   5.753   4.505 -0.4072  0.2132  0.2132
 1209loPI    C219002  10.543   5.522   4.318 -0.1300  0.0558  0.0021
 1209loPI    C319003  10.807   5.735   4.105  0.0243  0.0753  0.2099
 1209loPI   PO419004  10.600   5.894   4.775 -0.1055  0.1713 -0.2345
 1209loPI   GL119005  10.767   5.923   5.175  0.1567 -0.0176 -0.1291
 1209loPI   GL219006  10.996   6.121   5.212  0.1097 -0.3065  0.2446
 1209loPI   C1A19007  10.600   5.930   5.633  0.0296 -0.2529 -0.0803
 1209loPI   C2A19008  10.539   5.976   5.982 -0.2353  0.3028 -0.0467
 1209loPI   C3A19009  10.602   6.270   6.376  0.0144  0.2366  0.1136
 1209loPI   C4A19010  10.700   6.226   6.785 -0.2133  0.0981  0.1378
 1209loPI   C5A19011  10.523   6.603   6.944 -0.1105 -0.0874 -0.1355
 1209loPI   C6A19012  10.627   7.002   6.972 -0.2073 -0.0896 -0.2719
 1209loPI   C1B19013  11.235   6.134   5.637  0.1040 -0.3525  0.0826
 1209loPI   C2B19014  11.535   6.209   6.005 -0.3087  0.2596 -0.1164
 1209loPI   C3B19015  11.599   6.275   6.347  0.2024  0.2178  0.1299
 1209loPI   C4B19016  11.579   6.496   6.723  0.1688  0.0466  0.1588
 1210loPI    C119017   2.036  16.695   4.587 -0.0455  0.0325 -0.1318
 1210loPI    C219018   2.351  16.883   4.426 -0.1305  0.0875 -0.2358
 1210loPI    C319019   2.065  16.733   4.190 -0.1797  0.0322 -0.1422
 1210loPI   PO419020   2.155  16.442   4.788  0.0158 -0.4845  0.1115
 1210loPI   GL119021   2.327  16.532   5.179 -0.0361 -0.1034 -0.4321
 1210loPI   GL219022   2.403  16.296   5.201  0.0660 -0.1154  0.3626
 1210loPI   C1A19023   2.059  16.312   5.515 -0.1884  0.1765  0.1862
 1210loPI   C2A19024   1.614  16.138   5.717 -0.1531 -0.2942  0.0522
 1210loPI   C3A19025   1.218  15.924   5.781  0.1568  0.0090  0.1136
 1210loPI   C4A19026   1.187  15.496   6.051 -0.1324  0.0028  0.0916
 1210loPI   C5A19027   1.114  15.040   6.295  0.0866 -0.5327  0.0350
 1210loPI   C6A19028   0.920  14.754   6.697  0.0008  0.0947  0.3041
 1210loPI   C1B19029   2.503  16.095   5.566  0.1455  0.1904 -0.0691
 1210loPI   C2B19030   2.549  16.219   5.886 -0.2157 -0.0881 -0.0166
 1210loPI   C3B19031   2.645  16.285   6.305  0.0767 -0.2010 -0.1022
 1210loPI   C4B19032   2.633  16.204   6.808  0.0257 -0.1533  0.0403
 1211loPI    C119033   6.392   3.070   4.573 -0.0331  0.0898 -0.0505
 1211loPI    C219034   6.066   2.871   4.452  0.0923 -0.1513  0.0026
 1211loPI    C319035   6.330   3.006   4.183  0.0228 -0.0838 -0.0319
 1211loPI   PO419036   6.405   2.848   4.820 -0.0159  0.2501  0.0098
 1211loPI   GL119037   6.605   2.713   5.209 -0.2383  0.1423 -0.0096
 1211loPI   GL219038   6.364   2.593   5.232  0.0170 -0.1294  0.3015
 1211loPI   C1A19039   6.333   3.077   5.510 -0.0576 -0.3517 -0.2916
 1211loPI   C2A19040   6.297   2.948   5.995 -0.1804 -0.0155 -0.0011
 1211loPI   C3A19041   6.200   2.861   6.453 -0.0178 -0.0441  0.1921
 1211loPI   C4A19042   6.074   2.880   6.912 -0.3989 -0.2751  0.0838
 1211loPI   C5A19043   5.718   3.050   7.154 -0.1774 -0.0656  0.0520
 1211loPI   C6A19044   5.343   3.185   7.340 -0.3114 -0.1404 -0.3772
 1211loPI   C1B19045   6.377   2.587   5.673 -0.1192  0.1927  0.4311
 1211loPI   C2B19046   6.214   2.433   6.079 -0.0115  0.1608  0.1034
 1211loPI   C3B19047   6.015   2.381   6.547  0.0557  0.0427 -0.1834
 1211loPI   C4B19048   6.087   2.231   6.970  0.1752  0.1345 -0.3381
 1212loPI    C119049  16.908  14.214   4.396  0.3368 -0.0220  0.0519
 1212loPI    C219050  16.827  14.039   4.046 -0.0049 -0.0424  0.1376
 1212loPI    C319051  17.137  14.290   4.077  0.0961 -0.1277 -0.1491
 1212loPI   PO419052  16.906  14.060   4.622 -0.0015  0.0443  0.1050
 1212loPI   GL119053  16.749  13.964   5.045 -0.0920  0.1819 -0.3228
 1212loPI   GL219054  16.545  14.233   4.995 -0.2390  0.2690 -0.1067
 1212loPI   C1A19055  16.484  13.692   5.116 -0.1076  0.3946 -0.0834
 1212loPI   C2A19056  16.480  13.503   5.443 -0.1135 -0.2629 -0.0329
 1212loPI   C3A19057  16.630  13.560   5.881 -0.0830 -0.1559  0.3023
 1212loPI   C4A19058  16.724  13.528   6.285  0.0050 -0.1184 -0.1902
 1212loPI   C5A19059  16.884  13.658   6.682  0.1040 -0.2606 -0.1809
 1212loPI   C6A19060  16.982  13.957   6.961 -0.3090 -0.2506  0.0370
 1212loPI   C1B19061  16.614  14.248   5.473  0.1096  0.0269 -0.0331
 1212loPI   C2B19062  16.757  14.076   5.873  0.0112  0.0402 -0.0832
 1212loPI   C3B19063  16.860  14.225   6.246  0.0093  0.3441  0.0711
 1212loPI   C4B19064  16.869  14.323   6.628  0.1273  0.2904 -0.0909
 1213loPI    C119065  10.341  15.909   4.335 -0.0038  0.2731 -0.1726
 1213loPI    C219066  10.404  16.089   3.984  0.2499 -0.1617 -0.3591
 1213loPI    C319067  10.145  15.786   4.009 -0.3704  0.3727  0.0056
 1213loPI   PO419068  10.461  16.099   4.566  0.4429  0.0091 -0.1061
 1213loPI   GL119069  10.431  16.308   4.968  0.0218  0.2620 -0.1814
 1213loPI   GL219070  10.605  16.072   5.090 -0.1393 -0.0917 -0.1290
 1213loPI   C1A19071  10.048  16.350   5.234  0.0938  0.2819  0.0325
 1213loPI   C2A19072   9.815  16.502   5.579 -0.2698 -0.1189  0.1777
 1213loPI   C3A19073   9.745  16.724   5.771 -0.0272 -0.1349 -0.1192
 1213loPI   C4A19074   9.415  16.797   6.045  0.0462 -0.1732 -0.1798
 1213loPI   C5A19075   9.055  16.963   6.190  0.1545 -0.0924 -0.0796
 1213loPI   C6A19076   8.870  17.400   6.264  0.2426 -0.1352  0.1813
 1213loPI   C1B19077  10.323  15.915   5.423  0.1072 -0.1653  0.3001
 1213loPI   C2B19078  10.174  15.766   5.813  0.1064 -0.1893 -0.2569
 1213loPI   C3B19079  10.417  15.570   6.172  0.2904 -0.0601 -0.6365
 1213loPI   C4B19080  10.631  15.302   6.374 -0.1201 -0.1008  0.0842
 1214loPI    C119081  19.317   4.649   4.956 -0.1386  0.0713 -0.2202
 1214loPI    C219082  19.661   4.609   4.756  0.0981  0.1447  0.1611
 1214loPI    C319083  19.316   4.645   4.556  0.3169  0.1400 -0.2271
 1214loPI   PO419084  19.472   4.580   5.187 -0.2120 -0.0875 -0.0499
 1214loPI   GL119085  19.767   4.742   5.410  0.2371  0.3917 -0.4425
 1214loPI   GL219086  19.960   4.467   5.481  0.0302 -0.0409  0.2266
 1214loPI   C1A19087  19.722   4.805   5.867 -0.0441 -0.3209  0.2717
 1214loPI   C2A19088  19.864   4.612   6.253  0.2547  0.0146 -0.0713
 1214loPI   C3A19089  19.855   4.338   6.550 -0.1069  0.2219 -0.0165
 1214loPI   C4A19090  19.642   4.082   6.781  0.1220 -0.3386 -0.0116
 1214loPI   C5A19091  19.238   4.040   6.882  0.0053 -0.0680  0.1894
 1214loPI   C6A19092  18.884   3.742   6.973  0.1583 -0.0461  0.1745
 1214loPI   C1B19093  19.798   4.342   5.786 -0.1052 -0.0271 -0.4091
 1214loPI   C2B19094  19.438   4.142   5.904  0.2333  0.2899 -0.1027
 1214loPI   C3B19095  19.411   4.006   6.295 -0.0989 -0.2061 -0.0321
 1214loPI   C4B19096  19.249   3.731   6.536 -0.2227 -0.0686  0.1846
 1215loPI    C119097   6.588  17.801   4.641  0.1900  0.0906 -0.2027
 1215loPI    C219098   6.405  17.598   4.349 -0.0114 -0.0768  0.0345
 1215loPI    C319099   6.476  17.989   4.307  0.0964 -0.1286 -0.2969
 1215loPI   PO419100   6.492  17.672   4.915 -0.3770  0.1137 -0.2443
 1215loPI   GL119101   6.575  17.723   5.328  0.1324  0.0445 -0.0266
 1215loPI   GL219102   6.105  17.556   5.279 -0.1229  0.0165  0.1630
 1215loPI   C1A19103   6.921  17.550   5.612 -0.2476 -0.2003  0.0476
 1215loPI   C2A19104   6.889  17.401   6.083 -0.0242  0.0484 -0.1963
 1215loPI   C3A19105   6.992  17.376   6.573  0.1462  0.2549  0.1648
 1215loPI   C4A19106   7.058  17.115   6.985 -0.1173 -0.0264 -0.2544
 1215loPI   C5A19107   7.021  16.875   7.378 -0.3702 -0.0010  0.0700
 1215loPI   C6A19108   7.060  16.772   7.790 -0.2226  0.0306 -0.1088
 1215loPI   C1B19109   6.257  17.450   5.622 -0.0549 -0.3813 -0.1018
 1215loPI   C2B19110   6.489  17.666   5.906 -0.0084  0.2282 -0.0887
 1215loPI   C3B19111   6.674  17.752   6.389 -0.2884 -0.0448  0.4930
 1215loPI   C4B19112   6.855  17.820   6.836 -0.1079 -0.2826 -0.1670
 1216loPI    C119113   6.820   6.658   4.836 -0.1646 -0.2117 -0.0420
 1216loPI    C219114   6.531   6.738   4.572 -0.1312 -0.1202 -0.0511
 1216loPI    C319115   6.757   6.411   4.528 -0.0978 -0.0829 -0.1599
 1216loPI   PO419116   6.677   6.907   5.064 -0.0422 -0.2456  0.0732
 1216loPI   GL119117   6.624   7.132   5.378 -0.2306 -0.0760  0.1922
 1216loPI   GL219118   6.368   7.391   5.451  0.0369 -0.1352 -0.1065
 1216loPI   C1A19119   6.708   6.939   5.693  0.0113  0.2475  0.0677
 1216loPI   C2A19120   6.543   6.881   6.113 -0.1657 -0.0503 -0.3078
 1216loPI   C3A19121   6.323   6.512   6.267 -0.0955 -0.0906 -0.0134
 1216loPI   C4A19122   6.407   6.214   6.567 -0.1062  0.1070 -0.0491
 1216loPI   C5A19123   6.469   5.957   7.018  0.3560  0.1143 -0.3358
 1216loPI   C6A19124   6.773   5.799   7.216 -0.0386 -0.3137 -0.1350
 1216loPI   C1B19125   6.724   7.530   5.651  0.3547 -0.1777 -0.3243
 1216loPI   C2B19126   7.015   7.323   6.049 -0.0552  0.3495 -0.1738
 1216loPI   C3B19127   7.010   7.052   6.132 -0.2284  0.2601  0.1704
 1216loPI   C4B19128   7.301   6.755   6.301  0.4064 -0.0189 -0.0075
 1217loPI    C119129   8.993  18.169   5.098  0.1646 -0.0562  0.0534
 1217loPI    C219130   8.692  18.273   5.339  0.1405 -0.1797  0.0770
 1217loPI    C319131   8.615  18.117   4.979  0.1763  0.0798 -0.0448
 1217loPI   PO419132   9.133  18.370   5.138 -0.1668  0.0598  0.2184
 1217loPI   GL119133   9.312  18.468   5.449 -0.0208  0.2812  0.2287
 1217loPI   GL219134   9.179  18.234   5.612 -0.0589  0.0942  0.0284
 1217loPI   C1A19135   9.457  18.574   5.887 -0.0137 -0.0493  0.1837
 1217loPI   C2A19136   9.612  18.382   6.314  0.1444  0.5453  0.1551
 1217loPI   C3A19137   9.515  18.643   6.700 -0.2295 -0.0065  0.0106
 1217loPI   C4A19138   9.235  18.714   6.902  0.0528 -0.3029 -0.0028
 1217loPI   C5A19139   9.076  18.548   7.263 -0.2623  0.0066 -0.1800
 1217loPI   C6A19140   8.807  18.278   7.209 -0.0066  0.3236 -0.3055
 1217loPI   C1B19141   9.328  18.085   6.015 -0.0944 -0.0652 -0.0870
 1217loPI   C2B19142   9.304  17.751   6.431  0.1870  0.2034 -0.1525
 1217loPI   C3B19143   9.219  17.419   6.692  0.1311  0.0347  0.0998
 1217loPI   C4B19144   9.183  17.052   6.669 -0.0788 -0.0356  0.3596
 1218loPI    C119145   6.154  18.606   4.788 -0.0792 -0.0491 -0.0433
 1218loPI    C219146   6.100  18.392   4.454  0.1845  0.0410 -0.1462
 1218loPI    C319147   6.374  18.279   4.723  0.1398  0.1024 -0.0742
 1218loPI   PO419148   5.812  18.644   4.851 -0.0304  0.0771 -0.2539
 1218loPI   GL119149   5.558  18.798   5.229  0.0226  0.1391  0.0643
 1218loPI   GL219150   5.342  18.759   5.498 -0.0339 -0.0227 -0.0347
 1218loPI   C1A19151   5.687  19.049   5.623  0.3817 -0.4802 -0.1468
 1218loPI   C2A19152   5.593  19.191   5.985  0.1255  0.2873  0.0004
 1218loPI   C3A19153   5.772  19.079   6.337 -0.0030 -0.2023  0.3215
 1218loPI   C4A19154   5.912  19.076   6.769  0.2944 -0.1810 -0.1962
 1218loPI   C5A19155   5.731  19.325   7.080 -0.0369  0.2165  0.1009
 1218loPI   C6A19156   5.569  19.543   7.477 -0.0629  0.1034  0.1676
 1218loPI   C1B19157   5.323  18.680   5.869 -0.1700 -0.0731 -0.1977
 1218loPI   C2B19158   5.340  18.681   6.292 -0.0829 -0.0873 -0.1295
 1218loPI   C3B19159   5.287  18.559   6.674 -0.1128  0.3152 -0.1299
 1218loPI   C4B19160   5.000  18.247   6.886 -0.2673 -0.1094  0.1493
 1219loPI    C119161  19.487   8.277   4.782 -0.2359  0.0013  0.1048
 1219loPI    C219162  19.618   8.464   4.454 -0.4027 -0.1099 -0.0266
 1219loPI    C319163  19.674   8.070   4.496  0.1072 -0.0094  0.3306
 1219loPI   PO419164  19.228   8.305   4.860 -0.0050 -0.0489 -0.0861
 1219loPI   GL119165  19.007   8.330   5.258  0.1306  0.1443 -0.1052
 1219loPI   GL219166  18.708   8.451   5.066  0.0962  0.0932 -0.3232
 1219loPI   C1A19167  18.990   8.190   5.655 -0.0172  0.0972  0.3272
 1219loPI   C2A19168  18.976   8.188   6.125 -0.0291 -0.1822  0.0523
 1219loPI   C3A19169  19.148   7.970   6.457  0.0029  0.0106  0.1563
 1219loPI   C4A19170  19.253   8.210   6.860 -0.1426 -0.2898  0.0434
 1219loPI   C5A19171  19.374   8.305   7.295 -0.1286  0.1108  0.4076
 1219loPI   C6A19172  19.712   8.476   7.536  0.0422 -0.0177  0.1151
 1219loPI   C1B19173  18.631   8.644   5.487 -0.2805  0.0128  0.1213
 1219loPI   C2B19174  18.690   8.596   5.843 -0.0289  0.4175 -0.1616
 1219loPI   C3B19175  18.962   8.716   6.230 -0.0001 -0.2052 -0.0716
 1219loPI   C4B19176  19.259   8.766   6.609 -0.1948  0.0721  0.1671
 1220loPI    C119177   0.961   6.129   4.736 -0.0748  0.3224  0.1438
 1220loPI    C219178   1.249   6.342   4.557 -0.1547  0.0795 -0.2872
 1220loPI    C319179   0.875   6.352   4.415 -0.2257 -0.1019 -0.1181
 1220loPI   PO419180   0.975   6.198   4.978 -0.0237 -0.1028 -0.2604
 1220loPI   GL119181   0.723   6.303   5.435  0.0312  0.1588 -0.0753
 1220loPI   GL219182   0.445   6.509   5.562  0.2506 -0.2965 -0.1504
 1220loPI   C1A19183   0.748   6.251   5.820 -0.0006  0.0505  0.2925
 1220loPI   C2A19184   0.711   6.266   6.197 -0.3642 -0.0667 -0.1220
 1220loPI   C3A19185   0.644   6.390   6.612 -0.0763  0.0006 -0.0729
 1220loPI   C4A19186   0.688   6.763   6.815 -0.2841 -0.2102 -0.1851
 1220loPI   C5A19187   0.946   6.958   7.088  0.0173 -0.2293 -0.4150
 1220loPI   C6A19188   1.200   6.826   7.342  0.2197 -0.2196  0.1896
 1220loPI   C1B19189   0.499   6.721   5.907 -0.2539  0.2309  0.1569
 1220loPI   C2B19190   0.553   6.829   6.300 -0.0178  0.1325  0.1028
 1220loPI   C3B19191   0.537   7.175   6.527 -0.1973 -0.1668 -0.1092
 1220loPI   C4B19192   0.471   7.468   6.783 -0.3131  0.0513 -0.1073
 1221loPI    C119193  17.832  12.356   4.486 -0.1504 -0.0256  0.0288
 1221loPI    C219194  17.498  12.413   4.273  0.0252 -0.0969 -0.2709
 1221loPI    C319195  17.731  12.096   4.200  0.2182  0.0126 -0.1412
 1221loPI   PO419196  17.676  12.471   4.731 -0.3642  0.2155 -0.1477
 1221loPI   GL119197  17.538  12.755   5.022  0.1461 -0.3134  0.4631
 1221loPI   GL219198  17.314  12.520   5.153 -0.2421 -0.1392 -0.1401
 1221loPI   C1A19199  17.288  13.031   5.311 -0.3525 -0.1312  0.1057
 1221loPI   C2A19200  17.421  12.982   5.715  0.2959 -0.0678 -0.0799
 1221loPI   C3A19201  17.523  12.899   6.090 -0.5218 -0.1243 -0.4668
 1221loPI   C4A19202  17.824  12.644   6.363  0.1780  0.0222 -0.1098
 1221loPI   C5A19203  17.865  12.582   6.839 -0.1285  0.0438 -0.0279
 1221loPI   C6A19204  17.771  12.553   7.251  0.0717  0.1799  0.0777
 1221loPI   C1B19205  17.649  12.494   5.438  0.0907  0.1822 -0.0346
 1221loPI   C2B19206  17.763  12.455   5.841  0.0952  0.2810 -0.2263
 1221loPI   C3B19207  17.628  12.127   6.188 -0.0209  0.0793 -0.1047
 1221loPI   C4B19208  17.235  11.940   6.202  0.3246 -0.0326 -0.2116
 1222loPI    C119209   6.300   1.907   4.668  0.0789 -0.0749 -0.3116
 1222loPI    C219210   6.007   1.729   4.463 -0.0225 -0.0779 -0.1655
 1222loPI    C319211   6.082   2.117   4.407 -0.2567 -0.0039  0.0170
 1222loPI   PO419212   6.216   1.840   4.904 -0.0312 -0.2212 -0.3151
 1222loPI   GL119213   6.129   2.133   5.229  0.1581 -0.1166  0.0129
 1222loPI   GL219214   5.790   2.075   5.255 -0.1841 -0.1872  0.0912
 1222loPI   C1A19215   6.157   2.074   5.648 -0.4499  0.0856 -0.2347
 1222loPI   C2A19216   5.977   1.989   6.083 -0.0818  0.5316  0.1569
 1222loPI   C3A19217   6.137   1.900   6.463 -0.0609 -0.2005 -0.1202
 1222loPI   C4A19218   6.025   1.694   6.740  0.0641 -0.1453 -0.0413
 1222loPI   C5A19219   6.126   1.737   7.215  0.1504  0.1525 -0.1680
 1222loPI   C6A19220   6.176   1.947   7.687 -0.2278  0.0112 -0.1489
 1222loPI   C1B19221   5.552   1.902   5.617 -0.2396 -0.0197 -0.0680
 1222loPI   C2B19222   5.527   1.774   6.038  0.1188  0.1749 -0.0062
 1222loPI   C3B19223   5.508   1.658   6.310 -0.0524 -0.0222  0.2752
 1222loPI   C4B19224   5.394   1.619   6.762  0.0496 -0.2511  0.1087
 1223loPI    C119225  15.129  11.519   4.318 -0.0601  0.0757  0.2740
 1223loPI    C219226  14.781  11.322   4.319  0.0773 -0.1860 -0.2160
 1223loPI    C319227  14.787  11.715   4.248 -0.1149 -0.1876 -0.2486
 1223loPI   PO419228  15.270  11.384   4.547 -0.0584 -0.1261  0.1648
 1223loPI   GL119229  15.234  11.138   4.877 -0.0717  0.0907  0.0109
 1223loPI   GL219230  15.319  10.875   4.969 -0.2829 -0.0801  0.0106
 1223loPI   C1A19231  15.059  11.147   5.269  0.2141  0.0657 -0.0484
 1223loPI   C2A19232  15.250  11.268   5.677 -0.4433 -0.1716  0.1791
 1223loPI   C3A19233  15.550  11.060   5.812  0.0635 -0.0335  0.0896
 1223loPI   C4A19234  15.785  10.644   5.925 -0.1607 -0.0700  0.1360
 1223loPI   C5A19235  16.089  10.462   6.301 -0.4290  0.0898  0.2391
 1223loPI   C6A19236  16.368  10.540   6.532 -0.1316  0.0971  0.0237
 1223loPI   C1B19237  15.482  10.879   5.335  0.3194  0.1858 -0.0770
 1223loPI   C2B19238  15.391  10.601   5.606 -0.2135  0.3604 -0.2448
 1223loPI   C3B19239  15.300  10.508   6.101  0.1482  0.0819  0.1104
 1223loPI   C4B19240  15.108  10.267   6.302 -0.0238 -0.2254  0.0224
 1224loPI    C119241  15.195  14.751   4.307 -0.2126 -0.0704 -0.0241
 1224loPI    C219242  15.208  14.404   4.108  0.0659 -0.0106 -0.1148
 1224loPI    C319243  15.360  14.735   3.943  0.0825  0.0902  0.0995
 1224loPI   PO419244  15.213  14.713   4.495  0.1230 -0.0215 -0.0413
 1224loPI   GL119245  15.347  14.470   4.751  0.0068 -0.1101 -0.2032
 1224loPI   GL219246  15.589  14.307   4.832  0.0656  0.0683  0.1161
 1224loPI   C1A19247  15.326  14.567   5.222  0.0841  0.1481  0.0266
 1224loPI   C2A19248  15.433  14.455   5.583 -0.1790  0.1385 -0.0676
 1224loPI   C3A19249  15.286  14.324   5.884  0.0324  0.1902 -0.2883
 1224loPI   C4A19250  15.036  14.339   6.257 -0.1330  0.2363  0.3164
 1224loPI   C5A19251  15.142  14.235   6.713  0.2907 -0.1889 -0.0160
 1224loPI   C6A19252  15.143  13.810   6.891  0.0435 -0.0645 -0.3149
 1224loPI   C1B19253  15.800  14.663   5.076 -0.2385  0.1404  0.0133
 1224loPI   C2B19254  15.758  14.797   5.434 -0.2120 -0.1587 -0.0327
 1224loPI   C3B19255  16.053  15.016   5.813  0.0993  0.4049  0.1423
 1224loPI   C4B19256  16.149  15.285   6.093  0.6514 -0.0323 -0.0291
 1225loPI    C119257   5.056   0.803   4.593  0.0361 -0.1033  0.1469
 1225loPI    C219258   4.765   0.586   4.424  0.0660  0.1432 -0.2321
 1225loPI    C319259   5.144   0.457   4.412  0.0606  0.1337 -0.3090
 1225loPI   PO419260   4.957   0.897   4.859  0.1255 -0.1308  0.1317
 1225loPI   GL119261   5.027   1.140   5.184 -0.0139  0.0504 -0.0431
 1225loPI   GL219262   5.216   1.409   5.118 -0.0163  0.0254  0.2300
 1225loPI   C1A19263   5.072   1.062   5.613  0.3346 -0.2544  0.1125
 1225loPI   C2A19264   5.036   0.972   6.051  0.0334  0.0566 -0.0649
 1225loPI   C3A19265   5.154   0.537   6.326  0.1970 -0.3476  0.0779
 1225loPI   C4A19266   5.253   0.295   6.604 -0.0139  0.1545  0.0022
 1225loPI   C5A19267   5.243  -0.066   7.051  0.1740 -0.0773 -0.2524
 1225loPI   C6A19268   5.280  -0.380   7.357 -0.0784  0.0445 -0.1026
 1225loPI   C1B19269   5.209   1.533   5.576  0.2571  0.0159 -0.1046
 1225loPI   C2B19270   5.086   1.504   5.953 -0.0137 -0.1491 -0.1613
 1225loPI   C3B19271   5.047   1.481   6.409  0.1906  0.0168 -0.0223
 1225loPI   C4B19272   4.838   1.467   6.759  0.2555 -0.2403  0.1155
 1226loPI    C119273  12.178   6.569   4.825  0.1303  0.0196  0.0946
 1226loPI    C219274  12.260   6.182   4.881  0.1786  0.0370  0.1440
 1226loPI    C319275  12.123   6.307   4.527 -0.0368 -0.0579  0.1925
 1226loPI   PO419276  12.271   6.701   5.031 -0.0972  0.1071 -0.4146
 1226loPI   GL119277  12.249   6.477   5.340  0.0346 -0.2331  0.3180
 1226loPI   GL219278  12.552   6.264   5.327 -0.0545 -0.0418 -0.1326
 1226loPI   C1A19279  12.212   6.653   5.826  0.2618  0.0721 -0.0170
 1226loPI   C2A19280  12.332   6.699   6.236  0.4221 -0.1294  0.0079
 1226loPI   C3A19281  12.524   6.836   6.630 -0.0996 -0.3124 -0.2670
 1226loPI   C4A19282  12.852   6.654   6.958  0.4032  0.1457 -0.0891
 1226loPI   C5A19283  13.136   6.801   7.208  0.2454  0.2259  0.1236
 1226loPI   C6A19284  13.516   7.077   7.174  0.3277  0.1003  0.0477
 1226loPI   C1B19285  12.622   6.298   5.727 -0.0729  0.1570 -0.1101
 1226loPI   C2B19286  12.681   6.260   6.225  0.1079 -0.2239 -0.4024
 1226loPI   C3B19287  12.550   6.348   6.589 -0.0531  0.2006 -0.0908
 1226loPI   C4B19288  12.328   6.540   7.028 -0.0606 -0.0725  0.4515
 1227loPI    C119289  17.798  19.025   4.317  0.1386 -0.0298  0.0628
 1227loPI    C219290  18.100  18.846   4.125  0.1099 -0.1662  0.1429
 1227loPI    C319291  17.726  18.810   3.987  0.1124 -0.1117  0.1217
 1227loPI   PO419292  17.829  18.948   4.592 -0.3893  0.0362 -0.1643
 1227loPI   GL119293  17.883  18.855   5.081  0.0373 -0.1415  0.2820
 1227loPI   GL219294  18.152  18.623   5.204 -0.1575  0.1391  0.3423
 1227loPI   C1A19295  18.220  19.050   5.401 -0.0765 -0.3376 -0.0158
 1227loPI   C2A19296  18.327  19.243   5.859 -0.0388 -0.0983  0.0490
 1227loPI   C3A19297  18.564  19.206   6.213 -0.0025  0.1651  0.4453
 1227loPI   C4A19298  18.437  19.186   6.601 -0.0098  0.0508 -0.1054
 1227loPI   C5A19299  18.580  19.202   6.984  0.1409  0.0260 -0.2802
 1227loPI   C6A19300  18.859  19.431   7.242 -0.1956  0.0028 -0.0331
 1227loPI   C1B19301  18.309  18.522   5.540 -0.0676 -0.1690  0.0239
 1227loPI   C2B19302  18.393  18.674   5.976  0.0662  0.0107  0.0792
 1227loPI   C3B19303  18.666  18.722   6.364  0.1050  0.0162 -0.2118
 1227loPI   C4B19304  18.621  18.704   6.838  0.1719  0.1081  0.2258
 1228loPI    C119305   0.128  15.754   4.679 -0.3741 -0.2057 -0.2631
 1228loPI    C219306  -0.006  16.115   4.787  0.1315 -0.0391 -0.1625
 1228loPI    C319307   0.040  16.027   4.400 -0.1082 -0.0433 -0.1919
 1228loPI   PO419308  -0.000  15.532   4.842  0.2949 -0.1731 -0.2854
 1228loPI   GL119309  -0.089  15.456   5.306 -0.3218  0.2908 -0.1446
 1228loPI   GL219310  -0.079  15.790   5.363 -0.1738 -0.1441 -0.0060
 1228loPI   C1A19311  -0.258  15.343   5.792 -0.1075  0.2209 -0.0140
 1228loPI   C2A19312  -0.331  15.163   6.219  0.1738 -0.0534  0.0055
 1228loPI   C3A19313  -0.326  15.236   6.620 -0.1600 -0.0497  0.0866
 1228loPI   C4A19314   0.040  15.370   6.780 -0.3022  0.4275  0.2745
 1228loPI   C5A19315   0.270  15.656   7.041 -0.1017  0.1484  0.5567
 1228loPI   C6A19316   0.422  15.654   7.531  0.2581 -0.3007  0.0357
 1228loPI   C1B19317  -0.108  15.980   5.719 -0.3515  0.3131 -0.0783
 1228loPI   C2B19318  -0.250  15.803   6.162 -0.2662  0.0472 -0.1231
 1228loPI   C3B19319   0.117  15.752   6.402 -0.0519 -0.2071 -0.3143
 1228loPI   C4B19320   0.561  15.605   6.581  0.3796 -0.0460 -0.1300
 1229loPI    C119321  10.101   4.883   4.816 -0.0525  0.1660 -0.0360
 1229loPI    C219322   9.773   4.926   4.591  0.0270 -0.1138 -0.2109
 1229loPI    C319323  10.026   4.626   4.519  0.2290 -0.0073  0.0401
 1229loPI   PO419324  10.167   5.126   4.857 -0.0226  0.1707 -0.3183
 1229loPI   GL119325  10.225   5.462   5.100 -0.4043  0.1022  0.0908
 1229loPI   GL219326  10.536   5.444   5.148  0.0714  0.1749  0.1786
 1229loPI   C1A19327  10.133   5.736   5.472 -0.0859 -0.1921 -0.0112
 1229loPI   C2A19328  10.059   5.733   5.859 -0.3103 -0.1054 -0.1219
 1229loPI   C3A19329  10.193   5.811   6.361 -0.1695 -0.0570 -0.0383
 1229loPI   C4A19330  10.316   5.638   6.704  0.0919 -0.1901 -0.1765
 1229loPI   C5A19331  10.409   5.341   7.034  0.2523 -0.2611  0.0211
 1229loPI   C6A19332  10.072   5.136   7.365  0.0484 -0.0626 -0.1113
 1229loPI   C1B19333  10.522   5.425   5.555 -0.3093  0.1595  0.2303
 1229loPI   C2B19334  10.440   5.428   5.944 -0.0361  0.0945 -0.0980
 1229loPI   C3B19335  10.599   5.522   6.302 -0.3553 -0.0070 -0.3638
 1229loPI   C4B19336  10.877   5.435   6.668  0.0265 -0.0914  0.2489
 1230loPI    C119337  14.137  13.569   4.143  0.1374 -0.0699 -0.2068
 1230loPI    C219338  13.768  13.640   4.281  0.2344  0.1919 -0.0754
 1230loPI    C319339  13.854  13.706   3.896  0.0790 -0.1169 -0.1663
 1230loPI   PO419340  14.262  13.669   4.362  0.1340 -0.1885 -0.0997
 1230loPI   GL119341  13.954  13.625   4.755 -0.1324 -0.1801 -0.3321
 1230loPI   GL219342  14.110  13.988   4.806 -0.0827 -0.2677 -0.1834
 1230loPI   C1A19343  13.945  13.652   5.132 -0.3169  0.1425 -0.2365
 1230loPI   C2A19344  14.199  13.714   5.503  0.1115 -0.2106  0.3551
 1230loPI   C3A19345  14.493  13.563   5.816 -0.0941 -0.0952  0.3117
 1230loPI   C4A19346  14.545  13.591   6.256  0.0404  0.0479  0.0295
 1230loPI   C5A19347  14.882  13.398   6.601 -0.1507  0.2816 -0.0163
 1230loPI   C6A19348  15.317  13.367   6.824 -0.0957 -0.0274 -0.0972
 1230loPI   C1B19349  14.439  13.792   5.004 -0.0485 -0.2647 -0.0060
 1230loPI   C2B19350  14.692  13.692   5.413  0.2830  0.4435 -0.0592
 1230loPI   C3B19351  15.069  13.556   5.673  0.2204 -0.0123  0.2315
 1230loPI   C4B19352  14.995  13.420   6.114  0.1359  0.0102 -0.0959
 1231loPI    C119353   6.040   0.877   4.655  0.0716 -0.1843 -0.1666
 1231loPI    C219354   5.939   1.193   4.431  0.0110 -0.1953 -0.1550
 1231loPI    C319355   6.325   1.109   4.496  0.0275 -0.1322 -0.1702
 1231loPI   PO419356   5.996   0.922   4.895  0.0280  0.2720  0.1247
 1231loPI   GL119357   5.697   0.756   5.252  0.3323 -0.1300 -0.0232
 1231loPI   GL219358   5.719   0.399   5.285 -0.2254 -0.5156 -0.1544
 1231loPI   C1A19359   5.871   1.000   5.645 -0.1906  0.0618 -0.0207
 1231loPI   C2A19360   6.043   0.970   6.063  0.0779  0.1789 -0.1371
 1231loPI   C3A19361   5.928   0.837   6.478 -0.2091  0.0873 -0.0965
 1231loPI   C4A19362   6.004   0.850   6.977 -0.0406  0.0292 -0.3224
 1231loPI   C5A19363   6.092   0.725   7.444  0.0389 -0.2197 -0.2701
 1231loPI   C6A19364   6.451   0.657   7.644 -0.0217  0.0039 -0.2314
 1231loPI   C1B19365   5.922   0.464   5.678 -0.1776  0.5053 -0.0126
 1231loPI   C2B19366   6.174   0.366   6.011  0.1714 -0.1329  0.2433
 1231loPI   C3B19367   6.255   0.356   6.431  0.1795  0.1529 -0.2076
 1231loPI   C4B19368   6.202   0.289   6.855  0.0111 -0.3262  0.0174
 1232loPI    C119369  13.357  15.793   4.292 -0.0514  0.1745 -0.1872
 1232loPI    C219370  13.125  15.693   4.602  0.1444  0.4020  0.0368
 1232loPI    C319371  12.960  15.774   4.247 -0.0741  0.0422  0.0512
 1232loPI   PO419372  13.535  15.954   4.472 -0.0859  0.1690  0.0541
 1232loPI   GL119373  13.240  16.147   4.752 -0.1307  0.3489 -0.0941
 1232loPI   GL219374  13.504  16.269   5.042  0.1329 -0.1218 -0.0138
 1232loPI   C1A19375  12.870  15.961   5.065 -0.3395  0.1323 -0.3168
 1232loPI   C2A19376  12.601  15.983   5.354  0.1533 -0.2295  0.2552
 1232loPI   C3A19377  12.377  15.736   5.653  0.0709 -0.3221 -0.2563
 1232loPI   C4A19378  12.310  15.826   6.071  0.2091  0.1159 -0.4552
 1232loPI   C5A19379  12.370  15.953   6.594 -0.1320 -0.0876 -0.0969
 1232loPI   C6A19380  12.626  16.150   6.973 -0.0987 -0.1539 -0.1662
 1232loPI   C1B19381  13.253  16.221   5.339 -0.1211 -0.4312 -0.0786
 1232loPI   C2B19382  12.998  16.128   5.582  0.0194 -0.1580 -0.0310
 1232loPI   C3B19383  12.806  15.978   5.831  0.2642 -0.1541 -0.3478
 1232loPI   C4B19384  12.774  15.754   6.202  0.1288  0.2207 -0.0881
 1233loPI    C119385   9.647   0.802   4.724 -0.1683 -0.0403 -0.2473
 1233loPI    C219386   9.996   0.910   4.562 -0.1980  0.1673 -0.1756
 1233loPI    C319387   9.694   0.795   4.327 -0.0353 -0.1620 -0.2304
 1233loPI   PO419388   9.736   0.662   5.009  0.0998  0.0237  0.1608
 1233loPI   GL119389   9.947   0.643   5.403 -0.0034 -0.1999  0.3557
 1233loPI   GL219390   9.639   0.500   5.534  0.2624 -0.0446 -0.2677
 1233loPI   C1A19391  10.021   0.316   5.695 -0.1232 -0.2603 -0.0952
 1233loPI   C2A19392  10.005   0.138   6.087  0.0071 -0.0035  0.1212
 1233loPI   C3A19393   9.885   0.288   6.474  0.2116  0.1266  0.0294
 1233loPI   C4A19394   9.721   0.372   6.850  0.2926 -0.1585  0.0049
 1233loPI   C5A19395   9.297   0.552   6.968 -0.1650  0.0176  0.3206
 1233loPI   C6A19396   8.857   0.456   7.037  0.2406  0.1932  0.0986
 1233loPI   C1B19397   9.636   0.421   5.995 -0.0627 -0.1229 -0.1111
 1233loPI   C2B19398   9.427   0.212   6.315 -0.0812 -0.0697  0.1610
 1233loPI   C3B19399   9.331   0.051   6.736 -0.1102  0.2405  0.2621
 1233loPI   C4B19400   9.317  -0.334   6.850  0.1158  0.2300  0.3058
 1234loPI    C119401   6.639   4.862   4.540  0.0402  0.0210 -0.1510
 1234loPI    C219402   6.412   4.845   4.211 -0.1921 -0.0890  0.0125
 1234loPI    C319403   6.518   5.200   4.362  0.0225 -0.0374 -0.2508
 1234loPI   PO419404   6.462   4.639   4.755 -0.2394 -0.2937  0.3101
 1234loPI   GL119405   6.134   4.545   4.997 -0.2336 -0.1766 -0.0370
 1234loPI   GL219406   6.066   4.165   5.154 -0.0701 -0.2978  0.3063
 1234loPI   C1A19407   6.173   4.879   5.280 -0.0533  0.0827  0.3299
 1234loPI   C2A19408   6.185   5.044   5.670  0.0084  0.0756 -0.0540
 1234loPI   C3A19409   6.118   5.142   6.043 -0.0191  0.3893  0.0577
 1234loPI   C4A19410   6.288   5.220   6.426 -0.0465 -0.1238  0.2158
 1234loPI   C5A19411   6.414   5.197   6.870 -0.1239 -0.2550  0.3755
 1234loPI   C6A19412   6.298   5.514   7.054 -0.4440  0.0883 -0.0089
 1234loPI   C1B19413   6.147   4.136   5.689 -0.2260  0.0241 -0.0988
 1234loPI   C2B19414   6.467   3.860   5.849  0.0531 -0.2692  0.0488
 1234loPI   C3B19415   6.963   3.834   5.903 -0.0703 -0.2608 -0.3268
 1234loPI   C4B19416   7.510   3.790   5.936  0.3137 -0.1192 -0.2641
 1235loPI    C119417   7.933  13.436   4.633 -0.0569 -0.0204  0.0388
 1235loPI    C219418   7.850  13.187   4.330 -0.0102  0.1725 -0.1344
 1235loPI    C319419   7.553  13.349   4.543 -0.0368 -0.1815  0.1058
 1235loPI   PO419420   8.102  13.332   4.809 -0.0022  0.0133  0.1225
 1235loPI   GL119421   8.027  12.933   5.054  0.3236 -0.2156 -0.0413
 1235loPI   GL219422   7.814  12.730   5.239  0.0509  0.1431  0.1093
 1235loPI   C1A19423   7.885  13.225   5.480 -0.1689  0.0789  0.2050
 1235loPI   C2A19424   7.822  13.616   5.932  0.1167  0.1575  0.0178
 1235loPI   C3A19425   7.739  13.696   6.328  0.1417  0.0469 -0.1533
 1235loPI   C4A19426   7.736  13.841   6.700 -0.4230 -0.0977  0.0155
 1235loPI   C5A19427   7.788  14.088   6.895 -0.2389 -0.2065 -0.1600
 1235loPI   C6A19428   7.651  14.505   6.970  0.1788  0.0480 -0.3545
 1235loPI   C1B19429   8.131  12.861   5.610 -0.2177  0.2735  0.2347
 1235loPI   C2B19430   8.090  12.941   6.016  0.1353  0.0183 -0.2105
 1235loPI   C3B19431   8.019  12.922   6.411 -0.0485 -0.0298 -0.0029
 1235loPI   C4B19432   8.135  13.033   6.842  0.2830 -0.0215 -0.0590
 1236loPI    C119433  17.574  10.289   4.509  0.2525  0.0612  0.1278
 1236loPI    C219434  17.855  10.472   4.291  0.2905  0.0909  0.2013
 1236loPI    C319435  17.696  10.657   4.608 -0.0875  0.2294 -0.0625
 1236loPI   PO419436  17.582  10.076   4.516 -0.0457  0.1207  0.0475
 1236loPI   GL119437  17.598   9.867   4.929 -0.3237  0.4365 -0.3866
 1236loPI   GL219438  17.308   9.923   5.110  0.2905 -0.0177  0.2399
 1236loPI   C1A19439  17.797   9.842   5.355  0.1841 -0.0697  0.0410
 1236loPI   C2A19440  17.584   9.795   5.731  0.0981 -0.3255  0.0392
 1236loPI   C3A19441  17.447   9.799   6.154  0.3031  0.1540  0.1629
 1236loPI   C4A19442  17.421   9.758   6.589  0.1728 -0.1565 -0.0732
 1236loPI   C5A19443  17.417   9.858   7.110  0.2028  0.0259  0.0453
 1236loPI   C6A19444  17.294  10.167   7.450 -0.1920  0.2002 -0.2030
 1236loPI   C1B19445  17.286  10.105   5.537  0.2410  0.1691 -0.1061
 1236loPI   C2B19446  17.321  10.260   5.981  0.5283 -0.0628 -0.0894
 1236loPI   C3B19447  17.188  10.166   6.385 -0.4802 -0.2773  0.0132
 1236loPI   C4B19448  16.849  10.294   6.549 -0.0579 -0.0917  0.2649
 1237loPI    C119449  18.293  15.728   4.121  0.0050 -0.2407 -0.3392
 1237loPI    C219450  17.944  15.724   4.317  0.2271  0.0566  0.0779
 1237loPI    C319451  17.990  15.958   3.996  0.0040 -0.0892 -0.0637
 1237loPI   PO419452  18.452  15.669   4.280 -0.0132 -0.2605 -0.3478
 1237loPI   GL119453  18.376  15.490   4.712  0.1191  0.1379 -0.3491
 1237loPI   GL219454  18.313  15.741   4.785  0.0447  0.0203 -0.3404
 1237loPI   C1A19455  18.506  15.144   5.093  0.2954 -0.0182  0.2300
 1237loPI   C2A19456  18.774  14.854   5.396 -0.1595 -0.1973  0.1210
 1237loPI   C3A19457  18.965  14.941   5.817 -0.1317  0.0675 -0.1238
 1237loPI   C4A19458  18.741  14.917   6.172  0.1777 -0.0933 -0.0097
 1237loPI   C5A19459  18.462  14.820   6.534  0.0813 -0.0246  0.2926
 1237loPI   C6A19460  18.171  15.187   6.778 -0.3053  0.1950 -0.1792
 1237loPI   C1B19461  18.620  15.702   5.113 -0.3232  0.0108 -0.0572
 1237loPI   C2B19462  18.433  15.798   5.541 -0.1739 -0.0906 -0.0541
 1237loPI   C3B19463  18.051  15.748   5.863  0.3474 -0.0587  0.0851
 1237loPI   C4B19464  17.985  15.688   6.375 -0.2259  0.2753  0.0907
 1238loPI    C119465   1.777  15.980   4.306  0.0770 -0.1404  0.2848
 1238loPI    C219466   1.941  15.966   4.671  0.0807 -0.0352  0.2874
 1238loPI    C319467   2.102  16.198   4.387 -0.0587  0.0640  0.2878
 1238loPI   PO419468   1.489  15.849   4.410 -0.1459 -0.0745  0.3044
 1238loPI   GL119469   1.430  15.803   4.800  0.0116 -0.2580 -0.2709
 1238loPI   GL219470   1.176  16.016   4.859 -0.2206  0.0420 -0.3616
 1238loPI   C1A19471   1.596  15.661   5.139  0.2457 -0.2820 -0.1700
 1238loPI   C2A19472   1.633  15.567   5.539  0.0395  0.4210 -0.1791
 1238loPI   C3A19473   1.697  15.580   5.991  0.3296 -0.1061 -0.1132
 1238loPI   C4A19474   1.939  15.653   6.393  0.1475 -0.1295  0.0290
 1238loPI   C5A19475   1.910  15.729   6.879 -0.1162  0.0446 -0.1389
 1238loPI   C6A19476   1.756  15.630   7.252  0.1749 -0.0430 -0.2453
 1238loPI   C1B19477   1.145  15.842   5.267 -0.1039  0.0389  0.1653
 1238loPI   C2B19478   1.091  15.487   5.519  0.0119  0.0486  0.2338
 1238loPI   C3B19479   0.866  15.108   5.798  0.0330  0.1983 -0.3670
 1238loPI   C4B19480   0.948  14.617   5.802  0.1663 -0.0256 -0.0478
 1239loPI    C119481   5.871  10.861   4.767  0.0416 -0.0079  0.1809
 1239loPI    C219482   5.489  10.866   4.650  0.1276 -0.3780 -0.1378
 1239loPI    C319483   5.778  10.965   4.392  0.2604 -0.2598  0.0533
 1239loPI   PO419484   5.976  11.000   4.976  0.1835  0.3160 -0.0629
 1239loPI   GL119485   6.096  10.898   5.499 -0.0035 -0.3762 -0.1678
 1239loPI   GL219486   5.795  10.718   5.389 -0.2000 -0.0725  0.1329
 1239loPI   C1A19487   6.051  10.387   5.702  0.1269  0.0352 -0.0645
 1239loPI   C2A19488   5.723  10.146   5.890  0.0244  0.0482  0.3928
 1239loPI   C3A19489   5.897  10.002   6.316 -0.0665 -0.0846  0.0257
 1239loPI   C4A19490   6.004  10.047   6.811 -0.0710 -0.2176  0.2818
 1239loPI   C5A19491   6.174   9.812   7.165 -0.1157  0.1926 -0.2180
 1239loPI   C6A19492   5.909  10.136   7.343 -0.1056 -0.0837  0.2304
 1239loPI   C1B19493   5.700  10.793   5.755  0.1430 -0.3844  0.3303
 1239loPI   C2B19494   5.548  10.765   6.226  0.0667  0.0049 -0.3494
 1239loPI   C3B19495   5.467  10.853   6.728 -0.2472 -0.4559 -0.0260
 1239loPI   C4B19496   5.502  10.941   7.210  0.2286  0.0792  0.0991
 1240loPI    C119497   2.574   9.189   4.670 -0.0213  0.0377  0.0973
 1240loPI    C219498   2.277   9.394   4.842 -0.0583  0.1067 -0.0477
 1240loPI    C319499   2.194   9.091   4.594 -0.0083  0.1307 -0.0940
 1240loPI   PO419500   2.754   9.178   4.800  0.2361 -0.0369 -0.2489
 1240loPI   GL119501   2.762   9.398   5.171  0.2537  0.1065 -0.1039
 1240loPI   GL219502   2.832   9.177   5.433 -0.0143  0.1013  0.2907
 1240loPI   C1A19503   2.539   9.536   5.577 -0.0933  0.1740  0.0625
 1240loPI   C2A19504   2.293   9.731   5.979 -0.5395  0.3056 -0.1365
 1240loPI   C3A19505   2.046   9.934   6.184  0.0078  0.0570  0.2054
 1240loPI   C4A19506   1.818   9.976   6.583 -0.3286 -0.1938  0.0624
 1240loPI   C5A19507   1.580  10.024   6.932 -0.1328 -0.2711  0.2058
 1240loPI   C6A19508   1.495   9.764   7.442 -0.2617 -0.3510 -0.2216
 1240loPI   C1B19509   2.930   9.295   5.862  0.4246 -0.2414 -0.2429
 1240loPI   C2B19510   2.623   9.405   6.201  0.0416 -0.0580  0.1168
 1240loPI   C3B19511   2.248   9.501   6.463  0.0605  0.0617 -0.0780
 1240loPI   C4B19512   1.858   9.468   6.355 -0.0019 -0.2244  0.0841
 1241loPI    C119513   5.271  11.754   4.804  0.3134  0.2015 -0.0078
 1241loPI    C219514   5.335  11.415   4.601  0.4367  0.2011  0.0303
 1241loPI    C319515   5.271  11.758   4.404  0.4412  0.1797 -0.0086
 1241loPI   PO419516   5.178  11.641   5.007 -0.0252 -0.3287 -0.1025
 1241loPI   GL119517   5.027  11.881   5.420  0.1459  0.2322  0.1880
 1241loPI   GL219518   4.736  11.805   5.632 -0.2582  0.0077  0.1621
 1241loPI   C1A19519   5.287  11.712   5.709 -0.0682 -0.0422  0.0437
 1241loPI   C2A19520   5.253  11.507   6.062 -0.5595  0.0800  0.0436
 1241loPI   C3A19521   5.279  11.449   6.494 -0.2985 -0.1969  0.1534
 1241loPI   C4A19522   5.225  11.303   6.876 -0.1989 -0.0242  0.1565
 1241loPI   C5A19523   5.452  11.411   7.270 -0.1681 -0.0011 -0.1659
 1241loPI   C6A19524   5.735  11.578   7.633  0.4457  0.0923  0.0992
 1241loPI   C1B19525   4.853  11.799   5.981 -0.0242  0.0172  0.2415
 1241loPI   C2B19526   5.078  11.908   6.456  0.1345  0.1495  0.0091
 1241loPI   C3B19527   5.269  11.846   6.880 -0.1337  0.0314 -0.3011
 1241loPI   C4B19528   5.701  11.759   7.053 -0.3687 -0.0898  0.1821
 1242loPI    C119529  11.904   9.581   4.481 -0.0523 -0.0512  0.4472
 1242loPI    C219530  12.243   9.386   4.396 -0.1105  0.0303  0.0054
 1242loPI    C319531  11.900   9.277   4.221 -0.1782  0.4080 -0.1069
 1242loPI   PO419532  11.885   9.587   4.778 -0.0677 -0.0457  0.0172
 1242loPI   GL119533  11.892   9.405   5.156  0.4750  0.1668  0.0559
 1242loPI   GL219534  11.959   9.532   5.447 -0.1134  0.2159 -0.0298
 1242loPI   C1A19535  11.578   9.196   5.379  0.0754 -0.1372 -0.2184
 1242loPI   C2A19536  11.417   9.159   5.738 -0.0935 -0.1288 -0.1476
 1242loPI   C3A19537  11.564   9.245   6.229 -0.1630 -0.1664 -0.1195
 1242loPI   C4A19538  11.913   9.334   6.390 -0.2884 -0.3223  0.0268
 1242loPI   C5A19539  12.117   9.455   6.747 -0.2104  0.2299 -0.2417
 1242loPI   C6A19540  12.603   9.483   6.935 -0.3914  0.2148  0.1828
 1242loPI   C1B19541  11.589   9.665   5.767  0.0076 -0.0379  0.2179
 1242loPI   C2B19542  11.385   9.979   5.910 -0.0727  0.0785 -0.0176
 1242loPI   C3B19543  11.335  10.165   6.375  0.0108 -0.1359 -0.0077
 1242loPI   C4B19544  11.460  10.143   6.767  0.0261  0.2462 -0.1635
 1243loPI    C119545   7.509   6.100   4.700  0.0824  0.4064 -0.3787
 1243loPI    C219546   7.140   6.225   4.792  0.1310  0.2138  0.1046
 1243loPI    C319547   7.230   6.129   4.414 -0.4153 -0.0701  0.0359
 1243loPI   PO419548   7.676   6.235   4.875 -0.1007  0.0173 -0.0789
 1243loPI   GL119549   7.769   6.224   5.227  0.2389 -0.2879  0.0083
 1243loPI   GL219550   8.037   6.348   5.387  0.1833  0.0022  0.0269
 1243loPI   C1A19551   7.654   6.268   5.681 -0.1855  0.0682 -0.1336
 1243loPI   C2A19552   7.362   6.281   6.149  0.1380  0.2873  0.1683
 1243loPI   C3A19553   7.346   6.232   6.551 -0.0293 -0.0115  0.0862
 1243loPI   C4A19554   7.290   6.219   6.968  0.2778  0.0732  0.3448
 1243loPI   C5A19555   7.290   6.296   7.379  0.1750 -0.1807  0.1780
 1243loPI   C6A19556   7.554   6.721   7.584  0.1800 -0.0936  0.0978
 1243loPI   C1B19557   8.133   6.385   5.812 -0.2327 -0.1514 -0.0297
 1243loPI   C2B19558   8.180   6.210   6.188  0.1672 -0.0420  0.0138
 1243loPI   C3B19559   8.130   6.057   6.639 -0.2034  0.1855 -0.0492
 1243loPI   C4B19560   8.110   6.043   7.058 -0.1136 -0.3839  0.5095
 1244loPI    C119561  10.898   9.710   4.504  0.0716  0.1428  0.0307
 1244loPI    C219562  11.075   9.990   4.280  0.0632  0.1416  0.0224
 1244loPI    C319563  10.713   9.854   4.179 -0.0698  0.3545  0.2021
 1244loPI   PO419564  10.970   9.805   4.819  0.1188  0.1058  0.1239
 1244loPI   GL119565  11.299   9.720   5.197  0.2691  0.0426 -0.1328
 1244loPI   GL219566  11.574   9.783   5.106 -0.1014 -0.1066 -0.1881
 1244loPI   C1A19567  11.146   9.512   5.565 -0.0627  0.0939 -0.0809
 1244loPI   C2A19568  11.199   9.500   5.999 -0.0480  0.0160  0.0048
 1244loPI   C3A19569  11.328   9.649   6.383  0.0594  0.0079 -0.2302
 1244loPI   C4A19570  11.102   9.739   6.732  0.2505 -0.3074  0.1577
 1244loPI   C5A19571  10.751   9.698   6.918  0.1196 -0.2259  0.2571
 1244loPI   C6A19572  10.235   9.619   6.761 -0.1941 -0.0982 -0.3417
 1244loPI   C1B19573  11.673  10.094   5.464  0.1957  0.0549 -0.1468
 1244loPI   C2B19574  11.984   9.993   5.764 -0.0370  0.0612  0.2890
 1244loPI   C3B19575  12.099   9.627   5.961 -0.1851 -0.0465  0.2411
 1244loPI   C4B19576  11.894   9.218   5.876 -0.1494 -0.1952  0.1211
 1245loPI    C119577   7.384   7.474   4.823 -0.0216 -0.0566 -0.0689
 1245loPI    C219578   7.510   7.096   4.792  0.1041 -0.0431  0.2502
 1245loPI    C319579   7.124   7.172   4.861  0.0059 -0.0985 -0.2059
 1245loPI   PO419580   7.528   7.598   4.935 -0.2098  0.3529 -0.2108
 1245loPI   GL119581   7.646   7.512   5.356  0.0025  0.1831 -0.1538
 1245loPI   GL219582   7.545   7.218   5.331 -0.3843  0.0232  0.1888
 1245loPI   C1A19583   7.730   7.543   5.692 -0.0496 -0.0547  0.3520
 1245loPI   C2A19584   7.684   7.676   6.049 -0.0885  0.0946 -0.0280
 1245loPI   C3A19585   7.671   7.637   6.471 -0.2994  0.0966 -0.0459
 1245loPI   C4A19586   7.904   7.426   6.722  0.1992  0.0692 -0.0471
 1245loPI   C5A19587   8.009   7.024   6.908  0.2051  0.1823 -0.0328
 1245loPI   C6A19588   8.061   6.910   7.272 -0.2639 -0.1152  0.2852
 1245loPI   C1B19589   7.374   7.186   5.687 -0.1269  0.0382 -0.0827
 1245loPI   C2B19590   7.539   7.159   6.117  0.2555  0.0211  0.0623
 1245loPI   C3B19591   7.420   7.236   6.510  0.1170 -0.1715  0.0481
 1245loPI   C4B19592   7.276   7.266   6.887  0.1590 -0.2423 -0.3270
 1246loPI    C119593   5.263  16.939   4.538 -0.0876 -0.0318  0.0489
 1246loPI    C219594   4.954  17.183   4.612 -0.1427 -0.0855 -0.0025
 1246loPI    C319595   5.329  17.324   4.625 -0.1602 -0.0548  0.2112
 1246loPI   PO419596   5.203  16.655   4.763 -0.4384  0.0944  0.0506
 1246loPI   GL119597   5.176  16.529   5.190 -0.4741 -0.1665 -0.1810
 1246loPI   GL219598   4.918  16.558   5.355 -0.0713 -0.2987 -0.0225
 1246loPI   C1A19599   5.384  16.779   5.454 -0.0558 -0.3162  0.1137
 1246loPI   C2A19600   5.510  16.760   5.824  0.1823 -0.1552 -0.0485
 1246loPI   C3A19601   5.405  16.954   6.305 -0.2971  0.1248 -0.0513
 1246loPI   C4A19602   5.195  17.018   6.741  0.0734 -0.1676 -0.1246
 1246loPI   C5A19603   5.016  16.929   7.201  0.0771  0.1678  0.0877
 1246loPI   C6A19604   4.933  17.332   7.384  0.0244  0.0122  0.0811
 1246loPI   C1B19605   4.975  16.707   5.758  0.1848 -0.0457 -0.0787
 1246loPI   C2B19606   4.711  16.960   5.925 -0.0987  0.2865 -0.0552
 1246loPI   C3B19607   4.327  17.018   6.200 -0.2328 -0.1196 -0.1534
 1246loPI   C4B19608   3.868  16.884   6.353 -0.1132  0.1811 -0.0619
 1247loPI    C119609   1.192   2.246   4.607  0.0221  0.0957 -0.1806
 1247loPI    C219610   1.474   1.966   4.564  0.0032  0.0379  0.0558
 1247loPI    C319611   1.339   2.165   4.244 -0.0071 -0.2450 -0.1196
 1247loPI   PO419612   1.272   2.416   4.959  0.0699 -0.0714  0.4575
 1247loPI   GL119613   1.280   2.055   5.302  0.0420 -0.0442 -0.2191
 1247loPI   GL219614   1.585   1.852   5.505 -0.1922  0.2000 -0.4617
 1247loPI   C1A19615   1.317   2.256   5.681 -0.0455  0.0759  0.1960
 1247loPI   C2A19616   1.154   2.118   6.055 -0.1014  0.0418 -0.1428
 1247loPI   C3A19617   1.093   1.864   6.502  0.1438  0.0986 -0.3590
 1247loPI   C4A19618   1.029   1.815   6.989  0.1447 -0.0697 -0.3545
 1247loPI   C5A19619   1.038   2.036   7.395 -0.1612 -0.0686 -0.1737
 1247loPI   C6A19620   1.139   2.064   7.874 -0.0017  0.0127 -0.2773
 1247loPI   C1B19621   1.488   1.784   5.953  0.5801  0.2222  0.0482
 1247loPI   C2B19622   1.595   1.862   6.369 -0.2772 -0.1013  0.1400
 1247loPI   C3B19623   1.658   1.760   6.770  0.1420 -0.1339  0.2292
 1247loPI   C4B19624   1.483   1.646   7.114  0.1121  0.4910  0.1522
 1248loPI    C119625  10.443  12.122   4.677  0.0202  0.1079  0.1966
 1248loPI    C219626  10.770  12.067   4.453 -0.0099  0.2363  0.1196
 1248loPI    C319627  10.411  12.096   4.279 -0.0572  0.1441  0.2003
 1248loPI   PO419628  10.555  11.969   4.866  0.2588  0.1013 -0.1866
 1248loPI   GL119629  10.717  11.937   5.187  0.2425 -0.1855 -0.2628
 1248loPI   GL219630  10.907  11.782   5.218 -0.0176  0.2868 -0.0871
 1248loPI   C1A19631  10.580  11.973   5.618  0.0626 -0.0845  0.0698
 1248loPI   C2A19632  10.438  11.972   5.980 -0.1221  0.1630 -0.0750
 1248loPI   C3A19633  10.209  12.024   6.257 -0.3163 -0.0755  0.0681
 1248loPI   C4A19634  10.093  11.860   6.596 -0.0279 -0.0476 -0.1066
 1248loPI   C5A19635  10.020  11.471   6.851 -0.3109 -0.0101 -0.1857
 1248loPI   C6A19636   9.546  11.217   6.976  0.0838  0.0210  0.0468
 1248loPI   C1B19637  11.050  11.767   5.709  0.2651  0.4110 -0.1787
 1248loPI   C2B19638  10.907  11.694   6.190 -0.1414 -0.1744  0.0762
 1248loPI   C3B19639  10.913  11.762   6.660  0.0748  0.0130  0.0643
 1248loPI   C4B19640  11.024  11.866   7.068 -0.3077 -0.3891 -0.1035
 1249loPI    C119641   4.037   6.853   4.718  0.1032 -0.1619 -0.0005
 1249loPI    C219642   4.355   6.637   4.608  0.1599 -0.0032 -0.1521
 1249loPI    C319643   4.085   6.749   4.335  0.1605  0.1648 -0.0850
 1249loPI   PO419644   4.057   6.853   4.942  0.0849  0.0742 -0.0855
 1249loPI   GL119645   3.802   6.919   5.229  0.1114  0.0693  0.3061
 1249loPI   GL219646   3.870   7.218   5.309 -0.0495  0.5227 -0.0688
 1249loPI   C1A19647   3.845   6.739   5.581 -0.1412  0.1460 -0.3022
 1249loPI   C2A19648   3.718   6.879   6.006  0.0108  0.0035  0.0314
 1249loPI   C3A19649   3.802   6.979   6.376  0.0320 -0.0237 -0.2411
 1249loPI   C4A19650   3.564   7.116   6.724  0.0717 -0.1805 -0.2235
 1249loPI   C5A19651   3.415   7.465   7.029  0.0820  0.1230  0.2746
 1249loPI   C6A19652   3.568   7.709   7.374 -0.0070 -0.2065 -0.0664
 1249loPI   C1B19653   4.152   7.234   5.727 -0.3118  0.2474  0.2935
 1249loPI   C2B19654   4.146   7.327   6.219  0.0289  0.5310 -0.2514
 1249loPI   C3B19655   4.101   7.436   6.489  0.1156 -0.0856 -0.0267
 1249loPI   C4B19656   4.248   7.821   6.726  0.3997  0.0087 -0.0901
 1250loPI    C119657  10.046  12.932   3.908  0.0279 -0.1921  0.0712
 1250loPI    C219658   9.737  13.127   3.745  0.2523 -0.0617 -0.2073
 1250loPI    C319659   9.746  12.727   3.740  0.1326 -0.0640 -0.2826
 1250loPI   PO419660  10.184  12.985   4.210  0.3274  0.0538  0.0672
 1250loPI   GL119661  10.496  12.985   4.544  0.0838  0.1823  0.1354
 1250loPI   GL219662  10.239  12.919   4.829 -0.1156 -0.2034  0.2370
 1250loPI   C1A19663  10.669  13.187   4.899  0.0389 -0.2080  0.4348
 1250loPI   C2A19664  10.652  13.329   5.313 -0.2269  0.3814  0.0669
 1250loPI   C3A19665  10.863  13.514   5.716 -0.0889  0.4105 -0.2223
 1250loPI   C4A19666  10.822  13.888   5.903 -0.0452 -0.0870  0.2394
 1250loPI   C5A19667  10.873  14.170   6.159  0.0105  0.2662  0.2556
 1250loPI   C6A19668  10.755  14.470   6.249  0.1853 -0.0409 -0.0706
 1250loPI   C1B19669  10.281  12.892   5.259  0.0003  0.2222 -0.5842
 1250loPI   C2B19670  10.067  12.897   5.714 -0.0521  0.2075  0.1688
 1250loPI   C3B19671  10.249  13.041   6.090  0.5219 -0.2182 -0.2280
 1250loPI   C4B19672  10.408  13.017   6.462  0.2864 -0.2095 -0.0532
 1251loPI    C119673   4.078  14.034   4.243  0.0494  0.1248  0.1811
 1251loPI    C219674   3.806  14.323   4.193  0.0360  0.0587 -0.1468
 1251loPI    C319675   4.110  14.287   3.935  0.0505 -0.2052 -0.0955
 1251loPI   PO419676   4.082  13.882   4.602  0.0176  0.1093 -0.0837
 1251loPI   GL119677   3.876  13.916   4.988  0.2253  0.0926 -0.0678
 1251loPI   GL219678   3.692  13.686   4.946 -0.1991  0.1813 -0.1477
 1251loPI   C1A19679   3.868  14.187   5.237 -0.0986 -0.1137  0.2056
 1251loPI   C2A19680   3.843  14.184   5.760 -0.1833 -0.0230 -0.4112
 1251loPI   C3A19681   3.854  14.356   6.294  0.2787  0.1328  0.0387
 1251loPI   C4A19682   3.698  14.330   6.705 -0.0812  0.0370 -0.1427
 1251loPI   C5A19683   3.343  14.477   6.908 -0.0610 -0.0821 -0.1057
 1251loPI   C6A19684   3.088  14.807   6.831  0.0598  0.3083  0.0706
 1251loPI   C1B19685   3.693  13.799   5.485  0.1590 -0.2241  0.5599
 1251loPI   C2B19686   3.533  13.797   5.849 -0.0158  0.1782  0.1001
 1251loPI   C3B19687   3.437  13.892   6.128 -0.4034  0.0996 -0.0306
 1251loPI   C4B19688   3.265  14.103   6.562  0.0579 -0.0938 -0.0190
 1252loPI    C119689   9.353   9.092   4.844 -0.1158  0.1249 -0.2789
 1252loPI    C219690   9.065   9.311   5.014 -0.0839  0.0305 -0.1010
 1252loPI    C319691   9.024   9.185   4.637 -0.2588  0.0485 -0.0887
 1252loPI   PO419692   9.399   8.918   5.036  0.0935  0.2067 -0.1022
 1252loPI   GL119693   9.332   8.552   5.281  0.1015 -0.0847 -0.1408
 1252loPI   GL219694   9.054   8.437   5.196  0.1876 -0.1150  0.0198
 1252loPI   C1A19695   9.259   8.465   5.692 -0.0350 -0.2775  0.2989
 1252loPI   C2A19696   9.244   8.215   6.086 -0.0011 -0.1912  0.1520
 1252loPI   C3A19697   9.082   7.948   6.242  0.4137 -0.0081 -0.2682
 1252loPI   C4A19698   9.073   7.439   6.214  0.0178 -0.1607 -0.0561
 1252loPI   C5A19699   8.979   7.048   6.425  0.5891  0.4096  0.0627
 1252loPI   C6A19700   9.135   6.856   6.820  0.2360 -0.2369 -0.1127
 1252loPI   C1B19701   8.698   8.492   5.455  0.2869  0.1266  0.0423
 1252loPI   C2B19702   8.409   8.807   5.465 -0.0827  0.2388  0.1500
 1252loPI   C3B19703   8.019   8.858   5.480 -0.2526 -0.0249 -0.0774
 1252loPI   C4B19704   7.520   8.675   5.598  0.2556  0.2409 -0.0333
 1253loPI    C119705   3.078   4.124   4.493  0.3036 -0.1184 -0.1843
 1253loPI    C219706   3.405   3.896   4.463  0.2551 -0.2054 -0.0627
 1253loPI    C319707   3.247   4.063   4.136  0.2437 -0.4131 -0.1647
 1253loPI   PO419708   3.071   4.280   4.751 -0.2517  0.3980 -0.1006
 1253loPI   GL119709   3.184   4.361   5.135  0.2233  0.0533  0.0531
 1253loPI   GL219710   2.822   4.386   5.221 -0.2666  0.0014  0.0610
 1253loPI   C1A19711   3.363   4.235   5.646 -0.2460 -0.2259  0.0291
 1253loPI   C2A19712   3.353   4.298   6.187 -0.1386  0.1353 -0.1256
 1253loPI   C3A19713   3.408   4.355   6.588  0.1880  0.2286 -0.0933
 1253loPI   C4A19714   3.350   4.235   7.093 -0.1331  0.1685  0.0446
 1253loPI   C5A19715   3.102   4.203   7.445  0.0276 -0.1334 -0.1349
 1253loPI   C6A19716   2.636   4.205   7.532  0.5038 -0.0089  0.5130
 1253loPI   C1B19717   2.798   4.208   5.630 -0.2756 -0.2196 -0.0779
 1253loPI   C2B19718   2.936   4.302   6.020  0.0877 -0.1214  0.1416
 1253loPI   C3B19719   2.900   4.296   6.481  0.2456 -0.1514  0.0053
 1253loPI   C4B19720   2.908   4.096   6.815  0.0756 -0.1009  0.0317
 1254loPI    C119721   8.410   7.219   4.826 -0.1915 -0.1109 -0.2916
 1254loPI    C219722   8.702   7.487   4.878 -0.3497  0.0119 -0.0158
 1254loPI    C319723   8.706   7.247   4.558 -0.0282  0.1133 -0.0917
 1254loPI   PO419724   8.356   7.116   5.025 -0.2860 -0.1662 -0.1102
 1254loPI   GL119725   8.120   7.095   5.408 -0.0425  0.1602  0.1999
 1254loPI   GL219726   8.280   6.847   5.452  0.0795 -0.1952  0.1101
 1254loPI   C1A19727   8.136   6.993   5.915 -0.0486  0.2560 -0.2356
 1254loPI   C2A19728   8.248   6.682   6.165  0.2338 -0.1640 -0.2453
 1254loPI   C3A19729   8.208   6.615   6.601  0.2132  0.2282 -0.0725
 1254loPI   C4A19730   8.285   6.501   7.017 -0.0313 -0.1233  0.2257
 1254loPI   C5A19731   8.577   6.700   7.389 -0.1396 -0.3735 -0.2906
 1254loPI   C6A19732   8.813   6.652   7.833  0.0579 -0.4291  0.2523
 1254loPI   C1B19733   8.498   6.688   5.717 -0.0102 -0.1419 -0.2681
 1254loPI   C2B19734   8.746   6.633   6.126  0.0780  0.0006  0.3259
 1254loPI   C3B19735   8.704   6.586   6.547  0.1896  0.0048 -0.1829
 1254loPI   C4B19736   8.771   6.550   6.902  0.2926  0.1090  0.0946
 1255loPI    C119737  13.797   5.018   4.829 -0.1524 -0.0975 -0.1800
 1255loPI    C219738  13.829   5.413   4.772  0.1373 -0.0613  0.1884
 1255loPI    C319739  13.467   5.242   4.791  0.0089  0.1915  0.0734
 1255loPI   PO419740  13.976   4.941   4.929  0.0782  0.0599 -0.0149
 1255loPI   GL119741  13.932   4.848   5.380  0.1923 -0.0344 -0.0472
 1255loPI   GL219742  14.100   4.637   5.343  0.0593 -0.0457 -0.0918
 1255loPI   C1A19743  13.653   4.657   5.724  0.0237  0.4681  0.0143
 1255loPI   C2A19744  13.291   4.712   6.042 -0.0859 -0.3470 -0.1352
 1255loPI   C3A19745  13.092   4.687   6.496 -0.2056  0.0040  0.5807
 1255loPI   C4A19746  13.342   4.814   6.894  0.3132 -0.2860  0.3194
 1255loPI   C5A19747  13.789   5.010   6.919  0.2304  0.4727 -0.1031
 1255loPI   C6A19748  14.105   5.214   6.739 -0.1026  0.0241  0.1925
 1255loPI   C1B19749  14.463   4.668   5.581 -0.3089 -0.1353  0.2036
 1255loPI   C2B19750  14.858   4.475   5.641  0.0301 -0.2537 -0.2080
 1255loPI   C3B19751  15.045   4.066   5.624 -0.0905 -0.2654 -0.0447
 1255loPI   C4B19752  15.455   3.835   5.764  0.0489  0.2207  0.1846
 1256loPI    C119753   4.629  19.198   4.815 -0.0741 -0.1784 -0.1085
 1256loPI    C219754   4.501  19.176   4.436  0.0624  0.1526 -0.1778
 1256loPI    C319755   4.883  19.094   4.524 -0.0250 -0.1581 -0.0730
 1256loPI   PO419756   4.612  19.448   4.926  0.0343  0.0946 -0.1043
 1256loPI   GL119757   4.841  19.529   5.188 -0.2935  0.0808  0.0258
 1256loPI   GL219758   4.775  19.215   5.352 -0.3322  0.2452  0.1694
 1256loPI   C1A19759   5.127  19.723   5.512 -0.1918 -0.0538  0.0209
 1256loPI   C2A19760   5.373  19.824   5.886 -0.0346  0.0307  0.2232
 1256loPI   C3A19761   5.406  19.578   6.194  0.3034 -0.1526  0.3410
 1256loPI   C4A19762   5.402  19.313   6.509 -0.0564  0.3173  0.2606
 1256loPI   C5A19763   5.439  18.990   6.745 -0.0626 -0.0458  0.1157
 1256loPI   C6A19764   5.646  18.644   7.003 -0.0808 -0.0763  0.1596
 1256loPI   C1B19765   4.675  19.250   5.771 -0.1337  0.2925  0.3043
 1256loPI   C2B19766   4.565  19.213   6.178 -0.2036 -0.2760 -0.2728
 1256loPI   C3B19767   4.423  19.203   6.571 -0.1846 -0.1750 -0.0464
 1256loPI   C4B19768   4.378  18.939   6.887  0.4656 -0.1076  0.0156
 1257loPI    C119769   3.771  12.445   4.406  0.1276  0.0216  0.2240
 1257loPI    C219770   3.481  12.658   4.231  0.1615  0.0598  0.2144
 1257loPI    C319771   3.648  12.350   4.038  0.1644  0.0711  0.1988
 1257loPI   PO419772   3.649  12.503   4.713  0.1147  0.1850 -0.0371
 1257loPI   GL119773   3.643  12.644   5.171  0.0123  0.7171 -0.4155
 1257loPI   GL219774   3.377  12.759   5.019  0.1359  0.0666 -0.0536
 1257loPI   C1A19775   3.530  12.715   5.627 -0.1710  0.4495  0.1094
 1257loPI   C2A19776   3.381  12.844   6.052  0.5496 -0.3427 -0.1438
 1257loPI   C3A19777   3.140  13.071   6.193  0.2469 -0.0668  0.1359
 1257loPI   C4A19778   2.977  13.290   6.771 -0.2330  0.2134 -0.0750
 1257loPI   C5A19779   2.656  13.522   6.932  0.1858 -0.1201 -0.2862
 1257loPI   C6A19780   2.379  13.647   6.610  0.0573  0.1707 -0.2974
 1257loPI   C1B19781   3.282  13.103   5.261  0.1552 -0.1454  0.3454
 1257loPI   C2B19782   3.015  13.057   5.679 -0.3278  0.0516 -0.1554
 1257loPI   C3B19783   2.631  12.944   5.881 -0.0349  0.1485 -0.1470
 1257loPI   C4B19784   2.538  12.793   6.263  0.2140  0.4350 -0.0716
 1258loPI    C119785  14.663   8.195   4.722  0.0432 -0.0341  0.1035
 1258loPI    C219786  14.788   8.465   4.456 -0.2368  0.1057  0.1108
 1258loPI    C319787  14.880   8.079   4.407 -0.0522  0.1671 -0.0378
 1258loPI   PO419788  14.720   8.355   4.944 -0.1433  0.0724  0.0640
 1258loPI   GL119789  15.020   8.640   5.167 -0.1196  0.1266  0.3798
 1258loPI   GL219790  14.838   8.413   5.418  0.4153 -0.2169 -0.1668
 1258loPI   C1A19791  15.247   8.746   5.506 -0.0024 -0.0577  0.0781
 1258loPI   C2A19792  15.286   8.811   5.872 -0.1350 -0.0206 -0.0347
 1258loPI   C3A19793  15.447   8.775   6.317 -0.1019  0.0157 -0.2593
 1258loPI   C4A19794  15.459   8.749   6.735 -0.1639 -0.4173  0.2787
 1258loPI   C5A19795  15.450   8.556   7.190 -0.1151 -0.0284 -0.1251
 1258loPI   C6A19796  15.551   8.386   7.604  0.1604  0.0833  0.2812
 1258loPI   C1B19797  14.788   8.359   5.800 -0.0025 -0.1678 -0.1468
 1258loPI   C2B19798  15.018   8.493   6.185 -0.0345 -0.1450  0.2557
 1258loPI   C3B19799  15.271   8.261   6.511  0.0908  0.1972  0.0474
 1258loPI   C4B19800  15.475   8.158   6.870  0.1437  0.0177  0.1051
 1259loPI    C119801   3.638   7.174   4.832  0.3493 -0.1176  0.0635
 1259loPI    C219802   3.440   7.346   4.530 -0.0329  0.0398  0.3951
 1259loPI    C319803   3.836   7.295   4.506 -0.0903 -0.1953 -0.2419
 1259loPI   PO419804   3.424   7.256   5.026 -0.2323  0.2773 -0.0077
 1259loPI   GL119805   3.386   7.156   5.483 -0.0232  0.0421 -0.0222
 1259loPI   GL219806   3.508   7.609   5.348  0.1101  0.1916  0.1293
 1259loPI   C1A19807   3.240   6.995   5.881 -0.1413  0.0767 -0.0595
 1259loPI   C2A19808   3.102   6.883   6.266 -0.1193  0.0242 -0.1364
 1259loPI   C3A19809   3.127   6.949   6.720  0.0156  0.0590 -0.0232
 1259loPI   C4A19810   3.351   6.882   7.118 -0.1659  0.0372  0.3120
 1259loPI   C5A19811   3.581   6.726   7.455  0.0661  0.1457  0.1479
 1259loPI   C6A19812   3.476   6.346   7.700 -0.2377 -0.2019 -0.0549
 1259loPI   C1B19813   3.635   7.439   5.832 -0.5722 -0.1930 -0.4585
 1259loPI   C2B19814   3.425   7.353   6.300  0.0334  0.1888 -0.0092
 1259loPI   C3B19815   3.129   7.484   6.658 -0.1386 -0.2538 -0.0953
 1259loPI   C4B19816   2.727   7.261   6.762 -0.2754 -0.0630  0.2173
 1260loPI    C119817  16.687  15.832   4.604 -0.0543  0.0364  0.1736
 1260loPI    C219818  16.629  16.119   4.877  0.1060  0.1405  0.1001
 1260loPI    C319819  16.416  16.118   4.539  0.0316  0.1123  0.1469
 1260loPI   PO419820  16.995  15.804   4.627  0.1263 -0.0315  0.1255
 1260loPI   GL119821  17.310  15.971   4.908  0.2453 -0.1442  0.0453
 1260loPI   GL219822  17.148  16.223   5.048  0.2293  0.1835 -0.1289
 1260loPI   C1A19823  17.345  15.647   5.182 -0.0643 -0.5111  0.1304
 1260loPI   C2A19824  17.461  15.345   5.405 -0.2845 -0.0064 -0.0005
 1260loPI   C3A19825  17.478  15.159   5.780  0.0283 -0.3179  0.2722
 1260loPI   C4A19826  17.514  14.979   6.104  0.0086  0.1914 -0.1197
 1260loPI   C5A19827  17.652  14.522   6.259  0.0039 -0.3504 -0.0291
 1260loPI   C6A19828  17.350  14.265   6.322  0.2262  0.1664 -0.0523
 1260loPI   C1B19829  17.375  16.274   5.448  0.1126  0.1445  0.0748
 1260loPI   C2B19830  17.490  16.201   5.776 -0.1564  0.2837 -0.0300
 1260loPI   C3B19831  17.669  16.032   6.267  0.1049 -0.1605  0.0225
 1260loPI   C4B19832  17.749  16.073   6.747  0.4203 -0.1526 -0.0326
 1261loPI    C119833  11.586   5.568   4.551 -0.1741  0.3006  0.2221
 1261loPI    C219834  11.596   5.920   4.362 -0.0921  0.1203 -0.1198
 1261loPI    C319835  11.303   5.660   4.283  0.0309 -0.0205 -0.1148
 1261loPI   PO419836  11.602   5.602   4.777 -0.2377 -0.2675  0.3536
 1261loPI   GL119837  11.567   5.747   5.147  0.0868 -0.1192  0.0865
 1261loPI   GL219838  11.742   5.526   5.351  0.0860 -0.1022  0.2444
 1261loPI   C1A19839  11.146   5.648   5.397 -0.2331 -0.1388 -0.0876
 1261loPI   C2A19840  11.016   5.708   5.782 -0.3646 -0.0619 -0.0159
 1261loPI   C3A19841  11.137   5.569   6.234 -0.0008 -0.0072 -0.1216
 1261loPI   C4A19842  11.325   5.508   6.582 -0.0073 -0.3671 -0.0621
 1261loPI   C5A19843  11.384   5.421   7.014 -0.1185  0.0702  0.1562
 1261loPI   C6A19844  11.469   5.639   7.334 -0.0010 -0.1065 -0.0396
 1261loPI   C1B19845  11.634   5.694   5.719  0.1037  0.2398 -0.0925
 1261loPI   C2B19846  11.566   5.757   6.170  0.0904  0.2102 -0.4285
 1261loPI   C3B19847  11.732   5.800   6.556 -0.2159  0.3164 -0.1443
 1261loPI   C4B19848  11.953   5.649   6.902 -0.1830 -0.0192 -0.1101
 1262loPI    C119849   2.316  18.485   4.570  0.4025  0.2083 -0.0126
 1262loPI    C219850   2.583  18.346   4.306  0.0018 -0.0710 -0.2828
 1262loPI    C319851   2.250  18.525   4.177 -0.0098  0.1545  0.0474
 1262loPI   PO419852   2.425  18.264   4.832  0.4311 -0.1258 -0.2463
 1262loPI   GL119853   2.230  18.016   5.246 -0.1055  0.0361 -0.3250
 1262loPI   GL219854   2.520  18.263   5.336  0.0910  0.0149  0.2585
 1262loPI   C1A19855   2.208  17.879   5.601 -0.0441 -0.2246  0.0976
 1262loPI   C2A19856   2.166  18.040   5.974  0.3572  0.1276 -0.1909
 1262loPI   C3A19857   2.214  18.239   6.329 -0.0131 -0.0712 -0.0575
 1262loPI   C4A19858   1.975  18.243   6.644 -0.0789 -0.1605 -0.1478
 1262loPI   C5A19859   1.855  18.616   6.982  0.0674 -0.1279  0.4074
 1262loPI   C6A19860   2.001  18.856   7.379  0.2360 -0.1960  0.3510
 1262loPI   C1B19861   2.692  18.108   5.759  0.0274  0.2004 -0.0298
 1262loPI   C2B19862   2.660  18.200   6.152 -0.0668  0.0546  0.0542
 1262loPI   C3B19863   2.671  18.159   6.655 -0.1312  0.1591  0.4412
 1262loPI   C4B19864   2.394  17.997   6.810 -0.1774 -0.1367 -0.0259
 1263loPI    C119865   8.652   4.563   4.884  0.0202  0.0132 -0.0034
 1263loPI    C219866   8.292   4.541   4.710  0.0122 -0.0980  0.0261
 1263loPI    C319867   8.615   4.630   4.491 -0.0258 -0.0464 -0.0093
 1263loPI   PO419868   8.685   4.314   5.063  0.0598  0.5207 -0.0702
 1263loPI   GL119869   8.605   4.068   5.344 -0.2618 -0.1257  0.3378
 1263loPI   GL219870   8.201   4.014   5.442 -0.0955 -0.2062 -0.0993
 1263loPI   C1A19871   8.665   3.997   5.675 -0.0486 -0.0953 -0.1184
 1263loPI   C2A19872   8.669   4.050   6.022 -0.2005 -0.0007  0.2458
 1263loPI   C3A19873   8.781   3.971   6.455 -0.0371 -0.0847 -0.0810
 1263loPI   C4A19874   8.680   3.843   6.935  0.3804 -0.2816  0.2613
 1263loPI   C5A19875   8.461   3.954   7.381 -0.1888  0.0233  0.2969
 1263loPI   C6A19876   8.423   4.099   7.785 -0.1776 -0.2982 -0.0136
 1263loPI   C1B19877   8.185   3.948   5.901  0.1458 -0.3468  0.0393
 1263loPI   C2B19878   8.271   4.024   6.390 -0.1493  0.2527  0.1144
 1263loPI   C3B19879   8.501   4.319   6.740 -0.1754 -0.1361  0.0403
 1263loPI   C4B19880   8.592   4.379   7.138  0.0998  0.2376  0.0065
 1264loPI    C119881  11.028  11.440   4.584 -0.1326  0.1217  0.0955
 1264loPI    C219882  11.036  11.629   4.231 -0.0327 -0.1711 -0.0623
 1264loPI    C319883  10.818  11.297   4.275  0.1198 -0.2525  0.0916
 1264loPI   PO419884  11.033  11.690   4.752 -0.1282 -0.0198  0.0964
 1264loPI   GL119885  11.396  11.896   4.911  0.2141  0.1460  0.0630
 1264loPI   GL219886  11.513  12.150   4.820 -0.1544  0.1238 -0.0544
 1264loPI   C1A19887  11.479  11.910   5.370  0.1791 -0.0865 -0.0804
 1264loPI   C2A19888  11.482  11.997   5.819  0.3215 -0.2376  0.0595
 1264loPI   C3A19889  11.414  12.083   6.248 -0.0453 -0.2060 -0.2615
 1264loPI   C4A19890  11.204  12.197   6.592 -0.0946  0.0079 -0.0231
 1264loPI   C5A19891  10.935  12.398   6.904  0.0698  0.3635 -0.4397
 1264loPI   C6A19892  10.919  12.782   7.001 -0.2928  0.1295  0.2697
 1264loPI   C1B19893  11.560  12.540   4.834  0.2419  0.0774 -0.0837
 1264loPI   C2B19894  11.209  12.745   5.034  0.1002  0.0679  0.5270
 1264loPI   C3B19895  11.200  12.888   5.498  0.1663 -0.0944  0.0289
 1264loPI   C4B19896  11.199  13.044   5.896  0.0978  0.0140 -0.4863
 1265loPI    C119897   7.272  19.064   4.499 -0.0614 -0.2119 -0.0074
 1265loPI    C219898   6.926  18.925   4.355 -0.1513  0.1394 -0.1427
 1265loPI    C319899   7.225  19.017   4.105  0.0095 -0.0741 -0.0330
 1265loPI   PO419900   7.310  18.908   4.750 -0.0818  0.0837  0.0139
 1265loPI   GL119901   7.050  18.864   5.163  0.1968  0.1679 -0.3166
 1265loPI   GL219902   7.149  18.517   5.194  0.1223 -0.1947  0.2402
 1265loPI   C1A19903   6.689  18.904   5.460 -0.0043 -0.1563  0.2220
 1265loPI   C2A19904   6.651  18.959   5.905  0.3687  0.0446 -0.1501
 1265loPI   C3A19905   6.814  18.845   6.332  0.2699 -0.2593  0.0713
 1265loPI   C4A19906   7.230  18.896   6.560 -0.0127  0.1063 -0.0268
 1265loPI   C5A19907   7.469  19.192   6.929 -0.1444  0.5980 -0.0441
 1265loPI   C6A19908   7.718  19.106   7.268  0.0581  0.0624 -0.0738
 1265loPI   C1B19909   6.936  18.491   5.629 -0.1328 -0.1014 -0.1921
 1265loPI   C2B19910   7.017  18.469   5.979 -0.1263 -0.1989 -0.0074
 1265loPI   C3B19911   7.315  18.537   6.168  0.0583 -0.2914 -0.2619
 1265loPI   C4B19912   7.522  18.444   6.511  0.1166 -0.2417  0.2185
 1266loPI    C119913  16.229   7.379   4.564  0.1629  0.0440  0.1030
 1266loPI    C219914  15.946   7.130   4.431  0.1127  0.1880 -0.0639
 1266loPI    C319915  15.877   7.523   4.440  0.3315  0.2304 -0.1702
 1266loPI   PO419916  16.285   7.315   4.794  0.0403  0.2530  0.4624
 1266loPI   GL119917  16.185   7.465   5.231  0.1166  0.0052  0.0616
 1266loPI   GL219918  16.292   7.181   5.292 -0.2138 -0.2266  0.1011
 1266loPI   C1A19919  16.050   7.572   5.647 -0.0833  0.2133  0.0758
 1266loPI   C2A19920  15.996   7.569   6.027 -0.2936  0.1432  0.0614
 1266loPI   C3A19921  15.912   7.392   6.406  0.0945  0.3172  0.0916
 1266loPI   C4A19922  15.839   7.390   6.924 -0.0167 -0.1395 -0.0119
 1266loPI   C5A19923  15.960   7.039   7.266  0.3521 -0.1375 -0.1619
 1266loPI   C6A19924  16.148   6.643   7.253  0.1728 -0.3287  0.1929
 1266loPI   C1B19925  16.407   7.301   5.696 -0.2417 -0.0991 -0.2910
 1266loPI   C2B19926  16.470   7.261   6.278 -0.1357 -0.2123 -0.2339
 1266loPI   C3B19927  16.498   7.030   6.764  0.0225  0.0414  0.2853
 1266loPI   C4B19928  16.440   7.112   7.261 -0.0151  0.1431  0.0174
 1267loPI    C119929  10.315   8.482   4.677  0.0458 -0.1090 -0.2038
 1267loPI    C219930  10.420   8.730   4.381  0.0458 -0.0752 -0.1755
 1267loPI    C319931  10.393   8.337   4.313 -0.0901 -0.0523 -0.2563
 1267loPI   PO419932  10.310   8.677   4.875  0.1262 -0.1121 -0.1296
 1267loPI   GL119933  10.627   8.861   5.214 -0.2807  0.0437 -0.0515
 1267loPI   GL219934  10.680   9.182   5.252  0.1019  0.0329  0.1521
 1267loPI   C1A19935  10.508   8.895   5.659  0.1078 -0.0488 -0.1620
 1267loPI   C2A19936  10.462   8.973   6.052  0.0610  0.2069 -0.2071
 1267loPI   C3A19937  10.379   9.064   6.425  0.0487  0.0985  0.0445
 1267loPI   C4A19938  10.199   9.139   6.857  0.1218 -0.0005 -0.3112
 1267loPI   C5A19939  10.400   9.436   7.285  0.2489 -0.4187  0.0437
 1267loPI   C6A19940  10.561   9.522   7.674  0.3106  0.0610  0.1562
 1267loPI   C1B19941  10.700   9.352   5.699  0.1492  0.1964  0.0891
 1267loPI   C2B19942  10.690   9.409   6.189  0.0905 -0.1555  0.1508
 1267loPI   C3B19943  10.629   9.435   6.541 -0.2406  0.2301 -0.2776
 1267loPI   C4B19944  10.651   9.200   6.886 -0.2075  0.0041  0.3143
 1268loPI    C119945   6.305   6.279   4.537 -0.0505 -0.1020  0.0598
 1268loPI    C219946   6.392   6.198   4.155 -0.4214 -0.1519 -0.0182
 1268loPI    C319947   6.130   6.487   4.243 -0.2720 -0.0814  0.2034
 1268loPI   PO419948   6.209   6.049   4.639 -0.0486  0.3170  0.1883
 1268loPI   GL119949   6.294   5.849   5.021  0.1069 -0.1373  0.1569
 1268loPI   GL219950   6.094   5.543   5.071  0.2929 -0.1751 -0.0252
 1268loPI   C1A19951   6.155   6.162   5.437 -0.1683  0.1133 -0.2292
 1268loPI   C2A19952   6.021   6.513   5.794 -0.0958  0.1100  0.1420
 1268loPI   C3A19953   5.969   6.803   6.023  0.0313 -0.1741  0.1001
 1268loPI   C4A19954   6.031   7.083   6.254  0.0739  0.0133 -0.1263
 1268loPI   C5A19955   6.224   7.131   6.615 -0.3442 -0.1292  0.0558
 1268loPI   C6A19956   6.307   7.146   6.994 -0.2272 -0.1791 -0.0845
 1268loPI   C1B19957   6.420   5.378   5.378 -0.1169 -0.2285 -0.2460
 1268loPI   C2B19958   6.699   5.142   5.440  0.0970 -0.2583 -0.1893
 1268loPI   C3B19959   7.069   5.042   5.716 -0.2371 -0.0076  0.0901
 1268loPI   C4B19960   7.292   5.083   6.086  0.2520  0.0738  0.0035
 1269loPI    C119961   2.757   2.369   4.968 -0.0224 -0.0596  0.1447
 1269loPI    C219962   2.901   2.668   4.743 -0.0074 -0.0906  0.1129
 1269loPI    C319963   2.528   2.535   4.685  0.0023 -0.1099  0.0951
 1269loPI   PO419964   2.883   2.420   5.234  0.1994  0.0856  0.3431
 1269loPI   GL119965   3.111   2.233   5.679  0.2445 -0.1673 -0.1233
 1269loPI   GL219966   2.898   2.010   5.474 -0.3862 -0.1331 -0.0964
 1269loPI   C1A19967   3.081   2.241   6.061  0.2168  0.0560 -0.2395
 1269loPI   C2A19968   3.060   2.157   6.519  0.0319  0.0025 -0.1054
 1269loPI   C3A19969   2.866   2.310   6.931 -0.1015  0.1070  0.2542
 1269loPI   C4A19970   2.664   2.504   7.334 -0.0935  0.0655  0.0849
 1269loPI   C5A19971   2.531   2.394   7.699  0.2897 -0.1902 -0.1359
 1269loPI   C6A19972   2.665   2.441   8.186 -0.1827 -0.0651  0.0085
 1269loPI   C1B19973   2.565   2.180   5.746 -0.1193 -0.1356  0.0327
 1269loPI   C2B19974   2.575   2.171   6.198 -0.4718 -0.0182 -0.0991
 1269loPI   C3B19975   2.603   1.955   6.641  0.0105 -0.1114 -0.0748
 1269loPI   C4B19976   2.502   1.685   6.944  0.0655  0.0576 -0.1600
 1270loPI    C119977   7.505   9.985   4.921 -0.1614  0.1034  0.0559
 1270loPI    C219978   7.456   9.941   4.527  0.2343 -0.0215  0.0168
 1270loPI    C319979   7.217   9.746   4.781 -0.0925  0.1433 -0.1576
 1270loPI   PO419980   7.724  10.101   4.999  0.3010 -0.1067  0.0259
 1270loPI   GL119981   8.124  10.367   5.214  0.0810 -0.1892 -0.3191
 1270loPI   GL219982   7.972  10.382   5.563 -0.0803 -0.0907  0.1420
 1270loPI   C1A19983   8.198   9.901   5.578 -0.5804 -0.0731 -0.1082
 1270loPI   C2A19984   8.167   9.918   6.025 -0.2485 -0.1146  0.0155
 1270loPI   C3A19985   8.157   9.681   6.444  0.1788 -0.1459 -0.1987
 1270loPI   C4A19986   8.117   9.623   6.875  0.0158  0.0454  0.1000
 1270loPI   C5A19987   7.939   9.899   7.179 -0.1249 -0.1103  0.0311
 1270loPI   C6A19988   8.067  10.214   7.517  0.1042 -0.1711 -0.0759
 1270loPI   C1B19989   8.014  10.511   5.978 -0.1814 -0.1089 -0.1740
 1270loPI   C2B19990   8.116  10.242   6.370 -0.0893  0.0441 -0.0223
 1270loPI   C3B19991   8.302  10.056   6.686  0.1316 -0.0408  0.0356
 1270loPI   C4B19992   8.432  10.188   7.077 -0.1630 -0.0258  0.0720
 1271loPI    C119993   3.819  18.229   4.418 -0.1295 -0.0384  0.1082
 1271loPI    C219994   4.136  18.468   4.367 -0.0642 -0.1550 -0.0405
 1271loPI    C319995   4.182  18.071   4.362 -0.1537 -0.1737  0.3225
 1271loPI   PO419996   3.636  18.292   4.662 -0.1882 -0.1909  0.0662
 1271loPI   GL119997   3.701  18.439   5.052  0.0161  0.2177 -0.0366
 1271loPI   GL219998   3.481  18.317   5.247  0.1307  0.0140 -0.3207
 1271loPI   C1A19999   3.933  18.542   5.344  0.2190  0.1365 -0.0679
 1271loPI   C2A20000   3.842  18.671   5.748 -0.0115 -0.1010 -0.1787
 1271loPI   C3A20001   3.867  18.854   6.196 -0.0492  0.4726 -0.1532
 1271loPI   C4A20002   3.921  18.775   6.623 -0.2124 -0.0922 -0.1584
 1271loPI   C5A20003   3.935  18.791   7.032 -0.0566 -0.3638 -0.1822
 1271loPI   C6A20004   3.907  18.672   7.464  0.1473 -0.4195  0.0794
 1271loPI   C1B20005   3.644  18.190   5.663 -0.0107  0.1000 -0.0317
 1271loPI   C2B20006   3.465  18.294   5.985  0.0800  0.2138  0.1139
 1271loPI   C3B20007   3.155  18.102   6.216 -0.0271 -0.0183  0.3309
 1271loPI   C4B20008   2.911  17.821   6.413  0.2346  0.1138 -0.0369
 1272loPI    C120009  19.022   0.288   4.660  0.1684 -0.0793 -0.1119
 1272loPI    C220010  19.326   0.539   4.593 -0.0011  0.1529 -0.0237
 1272loPI    C320011  19.037   0.497   4.320  0.0080  0.0804 -0.0224
 1272loPI   PO420012  18.814   0.397   4.803  0.0450  0.3188 -0.2744
 1272loPI   GL120013  18.538   0.505   5.069 -0.0946  0.0523  0.0442
 1272loPI   GL220014  18.679   0.833   5.161  0.0090  0.2629  0.1502
 1272loPI   C1A20015  18.629   0.496   5.541 -0.1873 -0.2567  0.0002
 1272loPI   C2A20016  18.651   0.574   5.878 -0.2527  0.1138  0.4401
 1272loPI   C3A20017  18.475   0.723   6.312 -0.0124 -0.1294 -0.1305
 1272loPI   C4A20018  18.581   0.623   6.722 -0.0481  0.2304 -0.0016
 1272loPI   C5A20019  18.406   0.682   7.119  0.1765 -0.1719  0.1463
 1272loPI   C6A20020  18.488   1.050   7.320  0.4221  0.0064 -0.0281
 1272loPI   C1B20021  18.774   0.952   5.567 -0.2225 -0.1163 -0.1348
 1272loPI   C2B20022  18.766   0.994   6.042  0.1355 -0.0762  0.3395
 1272loPI   C3B20023  18.817   1.080   6.516 -0.0870  0.2087 -0.0636
 1272loPI   C4B20024  18.877   0.946   6.977  0.2390 -0.1315  0.0476
 1273loPI    C120025   4.760  15.817   4.729 -0.2193  0.2276 -0.0808
 1273loPI    C220026   5.024  15.639   4.488 -0.3038 -0.1012  0.0639
 1273loPI    C320027   4.804  15.944   4.352  0.1198  0.1550 -0.0689
 1273loPI   PO420028   4.874  15.690   4.962  0.2284 -0.2479 -0.2335
 1273loPI   GL120029   4.841  15.407   5.199 -0.3654  0.0998 -0.3425
 1273loPI   GL220030   4.850  15.116   5.134 -0.0077 -0.4828  0.0608
 1273loPI   C1A20031   4.876  15.218   5.652 -0.1255 -0.0155  0.1594
 1273loPI   C2A20032   4.797  15.434   5.994  0.0435  0.0989  0.1848
 1273loPI   C3A20033   4.585  15.454   6.400  0.2282  0.3289 -0.0973
 1273loPI   C4A20034   4.636  15.201   6.804  0.0584 -0.0919 -0.0572
 1273loPI   C5A20035   4.279  14.910   7.062 -0.2419 -0.2421  0.0954
 1273loPI   C6A20036   4.160  14.592   7.164 -0.0728 -0.1120 -0.1958
 1273loPI   C1B20037   4.993  14.742   5.325 -0.0832 -0.2951  0.0186
 1273loPI   C2B20038   5.028  14.498   5.622 -0.0840 -0.1004 -0.4032
 1273loPI   C3B20039   4.994  14.142   5.781 -0.1419 -0.1007  0.0132
 1273loPI   C4B20040   4.883  14.033   6.181 -0.0463 -0.2413 -0.1635
 1274loPI    C120041   0.585  16.627   4.803 -0.2040 -0.1070 -0.4094
 1274loPI    C220042   0.333  16.398   5.014  0.0787 -0.1338 -0.0933
 1274loPI    C320043   0.280  16.794   5.001  0.0686 -0.1300  0.0454
 1274loPI   PO420044   0.833  16.528   4.880  0.0826  0.3245  0.1618
 1274loPI   GL120045   0.816  16.393   5.292  0.0384 -0.2351 -0.1777
 1274loPI   GL220046   0.656  16.775   5.266 -0.4698 -0.4083  0.4387
 1274loPI   C1A20047   1.129  16.384   5.675  0.1029 -0.1019 -0.3666
 1274loPI   C2A20048   1.209  16.359   6.078  0.2732  0.2827  0.1225
 1274loPI   C3A20049   1.515  16.035   6.287  0.0933  0.1067  0.1156
 1274loPI   C4A20050   1.451  15.932   6.752  0.0828  0.1586  0.2526
 1274loPI   C5A20051   1.208  15.722   7.102 -0.0300 -0.0545  0.0987
 1274loPI   C6A20052   0.718  15.622   7.146  0.0118  0.0817  0.0399
 1274loPI   C1B20053   0.512  16.753   5.594  0.1084  0.2022  0.0984
 1274loPI   C2B20054   0.274  17.004   5.833  0.0896  0.1845  0.0187
 1274loPI   C3B20055  -0.014  17.322   6.112  0.1209 -0.1936 -0.1669
 1274loPI   C4B20056  -0.194  17.551   5.936  0.1234 -0.0583 -0.1176
 1275loPI    C120057   0.394   6.854   4.260  0.3631  0.0914  0.1016
 1275loPI    C220058   0.609   7.181   4.177  0.1731  0.1728 -0.0804
 1275loPI    C320059   0.411   6.992   3.885  0.2747 -0.1022  0.0247
 1275loPI   PO420060   0.652   6.796   4.480  0.1605 -0.0010 -0.1030
 1275loPI   GL120061   0.886   6.762   4.818  0.1378  0.0056 -0.0326
 1275loPI   GL220062   0.694   6.963   4.934  0.1250 -0.2051  0.0098
 1275loPI   C1A20063   1.061   6.920   5.275 -0.0858 -0.4193  0.1271
 1275loPI   C2A20064   1.012   6.680   5.618 -0.1790 -0.0119 -0.3147
 1275loPI   C3A20065   1.040   6.667   6.068  0.1368 -0.3703  0.1035
 1275loPI   C4A20066   1.096   6.652   6.434  0.0093  0.0443 -0.0304
 1275loPI   C5A20067   1.322   6.919   6.725  0.1638  0.3043  0.2575
 1275loPI   C6A20068   1.344   7.259   7.015 -0.0349  0.0098 -0.0459
 1275loPI   C1B20069   0.507   7.008   5.300 -0.2053 -0.0764 -0.2162
 1275loPI   C2B20070   0.685   7.114   5.628 -0.0528  0.1205 -0.0412
 1275loPI   C3B20071   0.664   7.512   5.858 -0.0353  0.2590 -0.0195
 1275loPI   C4B20072   0.353   7.774   5.833 -0.1384  0.1558 -0.0647
 1276loPI    C120073  19.112  12.369   4.227  0.2499 -0.1028 -0.1440
 1276loPI    C220074  18.752  12.304   4.067 -0.0180  0.1783  0.3211
 1276loPI    C320075  19.047  12.453   3.842 -0.1541 -0.1520 -0.0907
 1276loPI   PO420076  19.135  12.505   4.400 -0.1854 -0.1685  0.1556
 1276loPI   GL120077  19.334  12.491   4.833  0.2484 -0.3035 -0.1493
 1276loPI   GL220078  19.292  12.770   5.020 -0.0597  0.2615  0.0148
 1276loPI   C1A20079  19.451  12.304   5.155  0.0228  0.1370 -0.0718
 1276loPI   C2A20080  19.414  12.149   5.618 -0.0269 -0.1917 -0.1282
 1276loPI   C3A20081  19.082  12.082   5.969 -0.0758  0.3307  0.0492
 1276loPI   C4A20082  18.995  12.163   6.325  0.5433 -0.1378 -0.1838
 1276loPI   C5A20083  19.151  12.503   6.579 -0.1211  0.0297  0.5153
 1276loPI   C6A20084  19.178  12.917   6.660 -0.0751  0.1618  0.1262
 1276loPI   C1B20085  19.455  13.059   5.357 -0.2378  0.0991 -0.2554
 1276loPI   C2B20086  19.584  13.186   5.649  0.0088 -0.2015 -0.2097
 1276loPI   C3B20087  19.507  13.531   6.074 -0.2394 -0.2040  0.3324
 1276loPI   C4B20088  19.174  13.609   6.281 -0.2399 -0.2129  0.2001
 1277loPI    C120089   0.380   1.934   4.766  0.1448  0.0035  0.0342
 1277loPI    C220090   0.530   1.581   4.876  0.3427  0.0652 -0.0347
 1277loPI    C320091   0.386   1.630   4.506  0.1791  0.0147  0.0218
 1277loPI   PO420092   0.236   2.043   4.959  0.0895  0.1816 -0.0595
 1277loPI   GL120093   0.304   1.997   5.412 -0.0718 -0.1288  0.3767
 1277loPI   GL220094   0.468   1.710   5.418 -0.1660 -0.0884  0.1361
 1277loPI   C1A20095  -0.041   1.821   5.694 -0.2058  0.2390  0.3448
 1277loPI   C2A20096  -0.251   1.874   6.039  0.5644  0.1177  0.1803
 1277loPI   C3A20097  -0.269   1.840   6.531 -0.1136  0.2571 -0.1258
 1277loPI   C4A20098  -0.254   1.815   6.884 -0.0616  0.2984 -0.1311
 1277loPI   C5A20099   0.070   1.642   7.215 -0.0940 -0.1281 -0.1490
 1277loPI   C6A20100   0.210   1.649   7.610 -0.0585  0.1553 -0.3024
 1277loPI   C1B20101   0.205   1.299   5.487  0.3013  0.0602  0.0753
 1277loPI   C2B20102  -0.137   1.074   5.550  0.2823  0.0323  0.0057
 1277loPI   C3B20103  -0.360   0.849   5.848  0.4053  0.0268 -0.0376
 1277loPI   C4B20104  -0.179   0.712   6.195 -0.0349  0.1123 -0.1258
 1278loPI    C120105   0.562   0.763   4.720  0.2001  0.0527 -0.1320
 1278loPI    C220106   0.252   0.771   4.467  0.0070 -0.0829  0.0961
 1278loPI    C320107   0.578   0.992   4.392 -0.0983 -0.0247 -0.2031
 1278loPI   PO420108   0.503   0.493   4.848 -0.2276 -0.2945  0.1957
 1278loPI   GL120109   0.452   0.344   5.207  0.1400  0.0697 -0.1527
 1278loPI   GL220110   0.793   0.303   5.332  0.0723  0.2037  0.1792
 1278loPI   C1A20111   0.302   0.107   5.504 -0.3164  0.1799  0.2487
 1278loPI   C2A20112  -0.043   0.100   5.841 -0.0223 -0.2087  0.0637
 1278loPI   C3A20113  -0.133   0.175   6.168  0.2101  0.0415 -0.1668
 1278loPI   C4A20114  -0.207   0.217   6.570  0.0633 -0.3168 -0.2224
 1278loPI   C5A20115   0.068   0.444   6.840 -0.0878  0.0240  0.0815
 1278loPI   C6A20116   0.091   0.566   7.336 -0.0515  0.1106 -0.1889
 1278loPI   C1B20117   0.638   0.377   5.740  0.1231  0.4608  0.1495
 1278loPI   C2B20118   0.731   0.414   6.262  0.2335 -0.0770  0.0478
 1278loPI   C3B20119   0.929   0.397   6.687 -0.0397 -0.2026 -0.3787
 1278loPI   C4B20120   1.056   0.259   7.107 -0.1717  0.1011  0.0781
 1279loPI    C120121   1.317  18.416   5.123  0.1227 -0.1297  0.2164
 1279loPI    C220122   1.270  18.494   4.733  0.1500  0.1216  0.2617
 1279loPI    C320123   1.060  18.700   5.005  0.0797 -0.1004  0.3777
 1279loPI   PO420124   1.402  18.125   5.056 -0.1318 -0.3676 -0.1098
 1279loPI   GL120125   1.761  18.216   5.286 -0.2818 -0.1746  0.0501
 1279loPI   GL220126   1.774  17.861   5.315 -0.2082 -0.2535 -0.1457
 1279loPI   C1A20127   1.685  18.074   5.780 -0.1453 -0.2018  0.1102
 1279loPI   C2A20128   1.780  17.956   6.301 -0.4484 -0.0734  0.2097
 1279loPI   C3A20129   1.844  17.787   6.714 -0.2932 -0.1109 -0.1103
 1279loPI   C4A20130   1.498  17.577   6.999 -0.3819 -0.0197 -0.1732
 1279loPI   C5A20131   1.346  17.551   7.447  0.0562  0.0223 -0.0477
 1279loPI   C6A20132   1.491  17.568   7.891  0.1000 -0.1818  0.0045
 1279loPI   C1B20133   1.808  17.582   5.725 -0.0839  0.0548 -0.1359
 1279loPI   C2B20134   1.832  17.500   6.129  0.0377  0.0022 -0.0770
 1279loPI   C3B20135   1.613  17.444   6.535 -0.1316 -0.0980 -0.3869
 1279loPI   C4B20136   1.295  17.169   6.771 -0.1338 -0.2041 -0.1008
 1280loPI    C120137  13.701   0.817   4.734  0.0679 -0.1955 -0.1316
 1280loPI    C220138  13.500   1.079   4.508  0.1433  0.0666  0.0996
 1280loPI    C320139  13.512   0.693   4.404 -0.0317  0.1399 -0.2046
 1280loPI   PO420140  13.598   0.827   4.953 -0.1283 -0.0461 -0.1037
 1280loPI   GL120141  13.563   0.692   5.388 -0.0499  0.2778 -0.3112
 1280loPI   GL220142  13.324   0.697   5.553 -0.1541  0.2630  0.0416
 1280loPI   C1A20143  13.456   1.101   5.768  0.0195  0.2272 -0.2994
 1280loPI   C2A20144  13.441   1.086   6.231 -0.2794 -0.0255  0.1905
 1280loPI   C3A20145  13.480   1.050   6.704  0.0073  0.1681  0.1989
 1280loPI   C4A20146  13.535   1.422   6.958 -0.3227 -0.2861 -0.1115
 1280loPI   C5A20147  13.706   1.781   7.098 -0.1015 -0.0339 -0.1526
 1280loPI   C6A20148  13.550   2.098   7.287  0.0825 -0.0092  0.1943
 1280loPI   C1B20149  13.485   0.662   5.947 -0.2194 -0.1822  0.2697
 1280loPI   C2B20150  13.548   0.604   6.424 -0.1550  0.0430 -0.0005
 1280loPI   C3B20151  13.542   0.500   6.808 -0.3193 -0.1737 -0.1785
 1280loPI   C4B20152  13.454   0.334   7.191  0.3179 -0.2785  0.2356
 1281loPI    C120153  13.606   7.406   4.838 -0.0433  0.0979 -0.0903
 1281loPI    C220154  13.697   7.201   4.507 -0.0028  0.0443 -0.0462
 1281loPI    C320155  13.318   7.308   4.579 -0.0600 -0.2118  0.0419
 1281loPI   PO420156  13.718   7.290   5.061 -0.2457 -0.1375 -0.0334
 1281loPI   GL120157  13.670   6.938   5.412 -0.1047  0.0749  0.0294
 1281loPI   GL220158  13.791   6.601   5.453 -0.3280  0.1765  0.0841
 1281loPI   C1A20159  13.391   6.913   5.816  0.3297  0.1159  0.1361
 1281loPI   C2A20160  13.319   6.533   6.092 -0.0887  0.0957  0.3470
 1281loPI   C3A20161  13.508   6.234   6.359  0.1003  0.1723  0.0497
 1281loPI   C4A20162  13.787   6.390   6.657  0.0068 -0.1884  0.0408
 1281loPI   C5A20163  13.895   6.636   7.082  0.1298 -0.0589 -0.0029
 1281loPI   C6A20164  13.919   6.908   7.485  0.0819  0.0369 -0.1912
 1281loPI   C1B20165  13.779   6.645   5.835  0.0531 -0.3162  0.1699
 1281loPI   C2B20166  13.810   6.696   6.232  0.0850 -0.0474 -0.1810
 1281loPI   C3B20167  13.800   6.952   6.620  0.2357 -0.1793 -0.0599
 1281loPI   C4B20168  13.953   7.117   6.958 -0.1425  0.0862 -0.1403
 1282POPI    C120169   9.000   0.342   5.007  0.0127  0.0929  0.1857
 1282POPI    C220170   9.358   0.309   5.181  0.0490 -0.1742  0.0643
 1282POPI    C320171   9.330   0.326   4.782 -0.0717 -0.1275  0.0744
 1282POPI   PO420172   8.782   0.259   5.176  0.0462  0.1022  0.0544
 1282POPI   GL120173   8.861  -0.124   5.245  0.0245  0.2033  0.2788
 1282POPI   GL220174   9.146  -0.252   5.421  0.0459 -0.0896  0.2149
 1282POPI   C1A20175   8.606  -0.171   5.730 -0.2416  0.2770 -0.1336
 1282POPI   D2A20176   8.130  -0.172   5.864 -0.0642  0.0372  0.2145
 1282POPI   C3A20177   8.144  -0.349   6.292 -0.1482 -0.1775 -0.1947
 1282POPI   C4A20178   8.275  -0.701   6.571  0.0618 -0.2205  0.2190
 1282POPI   C1B20179   8.989  -0.442   5.867  0.0979  0.2011 -0.0861
 1282POPI   C2B20180   8.655  -0.333   6.192 -0.4149 -0.0121  0.0331
 1282POPI   C3B20181   8.455  -0.271   6.649  0.0606  0.1396 -0.0408
 1282POPI   C4B20182   7.996  -0.266   6.807  0.0793  0.1358 -0.1767
 1283POPI    C120183  13.128  13.548   4.263  0.1780  0.4076  0.0927
 1283POPI    C220184  13.413  13.500   3.986  0.0439  0.0956  0.0043
 1283POPI    C320185  13.030  13.530   3.876 -0.0024  0.0546  0.1511
 1283POPI   PO420186  13.311  13.610   4.463 -0.3475  0.0234 -0.0276
 1283POPI   GL120187  13.315  13.821   4.927 -0.2484  0.4862  0.1677
 1283POPI   GL220188  13.087  14.086   5.053 -0.1510  0.1164 -0.4268
 1283POPI   C1A20189  13.049  13.556   5.212  0.2512  0.0479  0.2621
 1283POPI   D2A20190  12.614  13.259   5.258  0.0203  0.2335  0.1111
 1283POPI   C3A20191  12.446  13.348   5.546  0.2033  0.0888  0.0213
 1283POPI   C4A20192  12.248  13.526   5.924  0.1305  0.0585 -0.0702
 1283POPI   C1B20193  13.245  14.122   5.430  0.0836  0.0496 -0.2361
 1283POPI   C2B20194  13.066  14.019   5.828 -0.2783  0.0586  0.1170
 1283POPI   C3B20195  12.943  14.016   6.197 -0.0783 -0.1277  0.1437
 1283POPI   C4B20196  12.986  13.911   6.665  0.1760 -0.1792 -0.2228
 1284POPI    C120197   9.430  14.976   4.501  0.1742 -0.2045 -0.0303
 1284POPI    C220198   9.390  15.214   4.183  0.1712 -0.4855 -0.2443
 1284POPI    C320199   9.733  15.210   4.388  0.0995 -0.1462 -0.1114
 1284POPI   PO420200   9.280  15.034   4.682 -0.3098  0.2099  0.0257
 1284POPI   GL120201   9.239  15.441   5.050 -0.3934  0.5330  0.1869
 1284POPI   GL220202   9.257  15.758   5.157 -0.0362  0.1998  0.0386
 1284POPI   C1A20203   9.079  15.398   5.468  0.1088  0.0090  0.2162
 1284POPI   D2A20204   9.020  15.590   5.797  0.0253 -0.2610  0.3579
 1284POPI   C3A20205   9.151  15.342   6.008  0.1308 -0.1051  0.1606
 1284POPI   C4A20206   9.131  15.350   6.476 -0.1456 -0.0205  0.2841
 1284POPI   C1B20207   8.855  15.907   5.343 -0.2603  0.1041  0.2711
 1284POPI   C2B20208   8.434  15.914   5.611 -0.0758 -0.0086  0.3615
 1284POPI   C3B20209   8.058  16.009   5.799  0.0060 -0.1737 -0.0430
 1284POPI   C4B20210   7.676  16.015   5.543 -0.0725 -0.2247 -0.1926
 1285POPI    C120211  13.628  16.473   4.569 -0.0534  0.1735  0.0526
 1285POPI    C220212  13.603  16.620   4.198 -0.3535  0.1462  0.0594
 1285POPI    C320213  13.886  16.352   4.288 -0.1415  0.3148 -0.0911
 1285POPI   PO420214  13.623  16.679   4.718 -0.1046 -0.1821  0.0507
 1285POPI   GL120215  13.587  16.745   5.101 -0.1602  0.0273  0.0623
 1285POPI   GL220216  13.350  16.934   5.077 -0.3918  0.3055 -0.1347
 1285POPI   C1A20217  13.583  16.848   5.568  0.2206  0.0087 -0.1835
 1285POPI   D2A20218  13.574  16.824   5.944 -0.1149 -0.0667 -0.1131
 1285POPI   C3A20219  13.702  17.017   6.303  0.1714 -0.0494 -0.1067
 1285POPI   C4A20220  13.488  17.210   6.774 -0.0316 -0.1335 -0.2702
 1285POPI   C1B20221  13.131  16.804   5.413 -0.0492 -0.1193 -0.4403
 1285POPI   C2B20222  13.122  16.612   5.748 -0.1689 -0.0626 -0.1116
 1285POPI   C3B20223  12.759  16.432   5.983 -0.0421 -0.1347 -0.0182
 1285POPI   C4B20224  12.623  16.320   6.390 -0.1569  0.2188  0.1762
 1286POPI    C120225  18.658  19.346   4.699  0.0108 -0.2454 -0.0766
 1286POPI    C220226  18.680  19.569   4.368  0.1030 -0.1402  0.0000
 1286POPI    C320227  18.908  19.243   4.405  0.0564 -0.1798 -0.0609
 1286POPI   PO420228  18.475  19.545   4.880 -0.3064 -0.0256 -0.1387
 1286POPI   GL120229  18.162  19.452   5.135  0.2556  0.1541  0.2331
 1286POPI   GL220230  17.866  19.423   5.111  0.3068 -0.0817  0.0333
 1286POPI   C1A20231  18.413  19.558   5.495  0.0318 -0.0490  0.0161
 1286POPI   D2A20232  18.582  19.623   5.916  0.3824  0.0021  0.1842
 1286POPI   C3A20233  18.525  19.784   6.341 -0.3088  0.1281  0.1735
 1286POPI   C4A20234  18.316  19.621   6.811  0.2082 -0.0032  0.0542
 1286POPI   C1B20235  17.914  19.375   5.599 -0.0599 -0.1823  0.4585
 1286POPI   C2B20236  17.849  19.093   5.764  0.1386  0.0330 -0.1823
 1286POPI   C3B20237  18.076  19.005   6.213 -0.3457  0.0689  0.0799
 1286POPI   C4B20238  18.174  18.713   6.549 -0.0423  0.3104  0.0137
 1287POPI    C120239  19.487   9.843   4.650 -0.3265  0.4636 -0.2249
 1287POPI    C220240  19.552   9.618   4.326  0.1803  0.0389  0.1534
 1287POPI    C320241  19.453   9.446   4.673 -0.1589  0.4717  0.2808
 1287POPI   PO420242  19.743  10.052   4.752 -0.1916 -0.1570 -0.4007
 1287POPI   GL120243  19.889   9.936   5.224 -0.1517  0.1489 -0.0089
 1287POPI   GL220244  19.732  10.268   5.304 -0.1022  0.0612  0.2661
 1287POPI   C1A20245  20.013   9.948   5.673  0.2012 -0.2023 -0.2251
 1287POPI   D2A20246  20.062   9.751   6.117  0.2789 -0.1590  0.3074
 1287POPI   C3A20247  20.086  10.061   6.452 -0.0814 -0.0347 -0.0407
 1287POPI   C4A20248  20.315  10.345   6.660 -0.1417  0.1801  0.1040
 1287POPI   C1B20249  20.009  10.388   5.596  0.1089 -0.1098 -0.0307
 1287POPI   C2B20250  20.167  10.271   6.022  0.1820 -0.1176 -0.0590
 1287POPI   C3B20251  20.385  10.534   6.214  0.1174  0.1283  0.1989
 1287POPI   C4B20252  20.765  10.714   6.334 -0.3084 -0.3971 -0.2249
 1288POPI    C120253  16.737  13.254   4.464  0.1001  0.0970  0.0422
 1288POPI    C220254  16.789  13.559   4.718 -0.3259  0.0873  0.1502
 1288POPI    C320255  16.667  13.629   4.344  0.0959  0.0848  0.0066
 1288POPI   PO420256  16.961  13.093   4.498 -0.1594 -0.0523  0.0637
 1288POPI   GL120257  17.218  13.201   4.809 -0.1179  0.2342 -0.0550
 1288POPI   GL220258  16.986  12.903   4.936  0.0661 -0.0487 -0.1263
 1288POPI   C1A20259  17.120  13.601   5.101 -0.0162  0.1240 -0.0243
 1288POPI   D2A20260  16.903  13.793   5.466  0.1793  0.2347 -0.2237
 1288POPI   C3A20261  17.127  13.766   5.798  0.0146 -0.0984 -0.2487
 1288POPI   C4A20262  17.197  13.699   6.216 -0.2753 -0.1222  0.0321
 1288POPI   C1B20263  16.844  12.655   5.246 -0.0482 -0.2737  0.0118
 1288POPI   C2B20264  17.063  12.700   5.582  0.2198 -0.0094 -0.1485
 1288POPI   C3B20265  16.913  12.769   6.060  0.0076  0.1175 -0.0362
 1288POPI   C4B20266  16.797  12.692   6.473 -0.4561 -0.1431  0.0821
 1289POPI    C120267   9.915  12.116   4.498 -0.0153  0.1746 -0.1049
 1289POPI    C220268   9.624  11.852   4.422 -0.0437  0.0858  0.2887
 1289POPI    C320269   9.994  11.789   4.282 -0.1858  0.1486 -0.1292
 1289POPI   PO420270   9.876  12.200   4.728  0.1720  0.0402  0.0522
 1289POPI   GL120271  10.090  12.296   5.029 -0.4502 -0.1495  0.2187
 1289POPI   GL220272  10.166  12.056   5.187 -0.1823 -0.0285 -0.1160
 1289POPI   C1A20273   9.832  12.551   5.286  0.1025 -0.1989 -0.0121
 1289POPI   D2A20274   9.588  12.867   5.409  0.1347 -0.0787 -0.2399
 1289POPI   C3A20275   9.310  13.029   5.670  0.0564 -0.0161  0.1097
 1289POPI   C4A20276   9.135  13.216   6.093 -0.2228  0.2501 -0.1024
 1289POPI   C1B20277  10.136  12.200   5.657  0.0137 -0.0559 -0.1729
 1289POPI   C2B20278  10.152  12.521   6.096 -0.0588  0.2810  0.0843
 1289POPI   C3B20279  10.277  12.483   6.467 -0.0758 -0.1368  0.1900
 1289POPI   C4B20280  10.463  12.263   6.800 -0.0367  0.1158  0.2794
 1290POPI    C120281   4.221  17.451   4.679  0.0207  0.0390 -0.0171
 1290POPI    C220282   4.488  17.184   4.547 -0.0100  0.0944 -0.1938
 1290POPI    C320283   4.509  17.565   4.426  0.0424  0.1771  0.0688
 1290POPI   PO420284   4.169  17.370   4.838  0.1767  0.0296 -0.0329
 1290POPI   GL120285   4.082  17.532   5.301  0.1132  0.3914 -0.1897
 1290POPI   GL220286   3.786  17.489   5.194 -0.1679  0.1186 -0.2754
 1290POPI   C1A20287   4.372  17.727   5.452 -0.2195 -0.1281  0.1891
 1290POPI   D2A20288   4.560  17.909   5.896 -0.0540 -0.5674 -0.1766
 1290POPI   C3A20289   4.407  17.978   6.285  0.2607  0.0616  0.6796
 1290POPI   C4A20290   4.017  17.922   6.549 -0.0293  0.2164 -0.0767
 1290POPI   C1B20291   3.666  17.523   5.646  0.0986  0.2412 -0.0307
 1290POPI   C2B20292   3.423  17.761   5.965 -0.3052  0.2627 -0.1673
 1290POPI   C3B20293   3.552  17.723   6.341  0.0639  0.0726  0.0510
 1290POPI   C4B20294   3.476  18.082   6.619  0.2529 -0.1513 -0.3762
 1291POPI    C120295  17.539   1.851   4.372  0.2102 -0.1349  0.1244
 1291POPI    C220296  17.267   1.905   4.083  0.1290  0.1202  0.2459
 1291POPI    C320297  17.570   1.650   4.027  0.1541  0.2195 -0.0922
 1291POPI   PO420298  17.348   1.739   4.606 -0.1103 -0.2008  0.1009
 1291POPI   GL120299  17.405   1.639   4.990  0.0966  0.2713  0.0952
 1291POPI   GL220300  17.491   1.289   5.125 -0.0306  0.2114  0.2534
 1291POPI   C1A20301  17.073   1.519   5.334  0.2015 -0.0396  0.0106
 1291POPI   D2A20302  16.644   1.513   5.602  0.1651  0.0498 -0.2561
 1291POPI   C3A20303  16.695   1.590   5.916  0.2585 -0.2666  0.0522
 1291POPI   C4A20304  16.925   1.516   6.256  0.0097  0.1443  0.2201
 1291POPI   C1B20305  17.505   1.309   5.511 -0.0239  0.3577 -0.0351
 1291POPI   C2B20306  17.587   1.316   5.858  0.0234  0.1043 -0.1813
 1291POPI   C3B20307  17.902   1.468   6.239 -0.3033  0.3884  0.6260
 1291POPI   C4B20308  17.993   1.467   6.592 -0.0276  0.2455 -0.0600
 1292POPI    C120309   3.423  14.674   4.073  0.1184 -0.0124 -0.1017
 1292POPI    C220310   3.571  14.970   3.847 -0.0693 -0.0102 -0.2242
 1292POPI    C320311   3.239  14.778   3.733 -0.2398  0.0758  0.1143
 1292POPI   PO420312   3.523  14.692   4.408  0.0028 -0.1928  0.4314
 1292POPI   GL120313   3.366  14.915   4.702 -0.4378 -0.3237  0.0052
 1292POPI   GL220314   3.567  15.151   4.821 -0.2640  0.1874  0.0384
 1292POPI   C1A20315   3.029  14.936   5.041  0.0808  0.2451  0.4629
 1292POPI   D2A20316   3.047  14.739   5.364  0.0014 -0.0854  0.0929
 1292POPI   C3A20317   3.176  14.587   5.774 -0.1058 -0.1892 -0.0168
 1292POPI   C4A20318   3.389  14.401   6.163  0.0704 -0.0750  0.2691
 1292POPI   C1B20319   3.489  15.078   5.196  0.0907 -0.0299  0.0883
 1292POPI   C2B20320   3.385  15.011   5.594 -0.1459  0.1210  0.0431
 1292POPI   C3B20321   3.119  15.107   5.979 -0.1704 -0.1625 -0.1419
 1292POPI   C4B20322   3.033  14.793   6.285  0.0365 -0.0803 -0.0885
 1293POPI    C120323   5.547   2.809   4.645  0.0512 -0.0173 -0.0632
 1293POPI    C220324   5.561   3.053   4.328 -0.1046  0.0847  0.0073
 1293POPI    C320325   5.621   2.660   4.281 -0.2455  0.0826 -0.1675
 1293POPI   PO420326   5.484   3.050   4.827  0.1820  0.0282 -0.0321
 1293POPI   GL120327   5.508   2.917   5.258  0.0631 -0.0314  0.0479
 1293POPI   GL220328   5.224   3.139   5.307 -0.2664  0.0277 -0.0752
 1293POPI   C1A20329   5.394   2.849   5.643  0.1986  0.2999  0.1176
 1293POPI   D2A20330   5.164   2.570   5.876  0.1631  0.2144 -0.5543
 1293POPI   C3A20331   5.118   2.572   6.397 -0.1927 -0.1456  0.1425
 1293POPI   C4A20332   5.003   2.503   6.755 -0.0422 -0.4294 -0.1271
 1293POPI   C1B20333   4.948   2.862   5.452  0.0935 -0.0167 -0.1761
 1293POPI   C2B20334   4.734   2.582   5.594 -0.2491  0.0951 -0.1377
 1293POPI   C3B20335   4.453   2.654   6.011  0.0282  0.0789 -0.0508
 1293POPI   C4B20336   4.161   2.636   6.352 -0.2287  0.1598 -0.2298
 1294POPI    C120337   3.677  17.647   4.186  0.1327  0.0278 -0.0593
 1294POPI    C220338   3.370  17.513   3.967  0.0529 -0.0186  0.0793
 1294POPI    C320339   3.745  17.470   3.834 -0.0014  0.0609 -0.1025
 1294POPI   PO420340   3.531  17.854   4.360  0.0914 -0.0897 -0.0317
 1294POPI   GL120341   3.640  17.847   4.855 -0.0098  0.4037 -0.1033
 1294POPI   GL220342   3.956  17.832   4.811  0.3203 -0.2142  0.2090
 1294POPI   C1A20343   3.513  17.847   5.203  0.0367 -0.1063  0.2459
 1294POPI   D2A20344   3.126  17.987   5.301  0.2060 -0.2437 -0.0921
 1294POPI   C3A20345   3.118  18.234   5.638 -0.1968  0.2004 -0.1241
 1294POPI   C4A20346   2.963  18.558   5.941  0.0399  0.0639  0.1243
 1294POPI   C1B20347   3.972  17.996   5.262 -0.0710  0.0733  0.1258
 1294POPI   C2B20348   4.154  18.191   5.638 -0.1673  0.0981 -0.1775
 1294POPI   C3B20349   4.190  18.422   6.027  0.0405 -0.1504 -0.1256
 1294POPI   C4B20350   4.223  18.364   6.523 -0.0309  0.1631  0.1573
 1295POPI    C120351   3.224   6.811   4.461 -0.3702 -0.1892 -0.0185
 1295POPI    C220352   3.235   6.861   4.064 -0.1775 -0.0933 -0.0025
 1295POPI    C320353   3.572   6.887   4.278 -0.2603 -0.2732  0.1529
 1295POPI   PO420354   3.073   7.004   4.596  0.0703  0.3806 -0.2471
 1295POPI   GL120355   2.959   7.002   5.083  0.2401 -0.0698  0.0261
 1295POPI   GL220356   2.933   7.225   5.229 -0.0763 -0.0812 -0.1330
 1295POPI   C1A20357   2.974   6.717   5.471 -0.0691 -0.4241 -0.1241
 1295POPI   D2A20358   2.921   6.325   5.671  0.1637  0.1903 -0.2579
 1295POPI   C3A20359   3.149   6.014   5.657 -0.3837 -0.1051 -0.1493
 1295POPI   C4A20360   3.297   5.577   5.737  0.0262 -0.2744 -0.1631
 1295POPI   C1B20361   2.760   7.177   5.580  0.0902 -0.0724  0.1934
 1295POPI   C2B20362   2.448   7.216   5.828  0.0867  0.3581  0.0818
 1295POPI   C3B20363   2.055   7.293   6.053  0.3128  0.0103 -0.2766
 1295POPI   C4B20364   1.851   7.633   6.203 -0.1192  0.1646 -0.2760
 1296POPI    C120365   1.647   9.087   4.590 -0.0676 -0.0535 -0.0026
 1296POPI    C220366   1.437   9.365   4.393 -0.0359  0.0062  0.0473
 1296POPI    C320367   1.780   9.227   4.240 -0.0449  0.0040  0.0290
 1296POPI   PO420368   1.634   9.176   4.766  0.0813  0.1935  0.0417
 1296POPI   GL120369   1.850   9.468   5.025  0.0437  0.2040  0.1936
 1296POPI   GL220370   1.972   9.244   5.184 -0.0832 -0.0561  0.0667
 1296POPI   C1A20371   2.077   9.663   5.374 -0.4529 -0.0247 -0.0005
 1296POPI   D2A20372   1.876   9.695   5.761 -0.4245 -0.1730  0.1338
 1296POPI   C3A20373   1.960   9.245   5.931 -0.0748 -0.1813 -0.0279
 1296POPI   C4A20374   2.103   8.744   5.786 -0.0653 -0.1026  0.1859
 1296POPI   C1B20375   1.566   9.335   5.553 -0.1665 -0.2966 -0.0438
 1296POPI   C2B20376   1.439   9.587   6.045 -0.2143 -0.2822  0.0990
 1296POPI   C3B20377   1.420   9.654   6.501  0.1074 -0.4718  0.2864
 1296POPI   C4B20378   1.349   9.566   6.970 -0.2139 -0.0032  0.0931
 1297POPI    C120379  19.491  16.802   4.592 -0.0031  0.1091 -0.0779
 1297POPI    C220380  19.741  16.496   4.527 -0.0537  0.0623 -0.0520
 1297POPI    C320381  19.616  16.720   4.220  0.0343  0.0972 -0.0628
 1297POPI   PO420382  19.340  16.623   4.850  0.1838 -0.2168  0.2007
 1297POPI   GL120383  19.317  16.272   5.237  0.1128 -0.1896 -0.0453
 1297POPI   GL220384  19.062  16.089   5.102 -0.1888 -0.0383  0.1150
 1297POPI   C1A20385  19.783  16.229   5.471  0.3238 -0.2052  0.1017
 1297POPI   D2A20386  19.914  15.969   5.897  0.2707  0.2205 -0.1858
 1297POPI   C3A20387  19.721  15.613   5.929 -0.0342 -0.0956 -0.0561
 1297POPI   C4A20388  19.659  15.325   6.200  0.0506 -0.0313  0.1139
 1297POPI   C1B20389  18.964  15.907   5.454 -0.1436 -0.2635 -0.3576
 1297POPI   C2B20390  18.821  15.903   5.883  0.0252 -0.1598  0.0968
 1297POPI   C3B20391  18.454  15.821   6.148  0.1414 -0.2403  0.3420
 1297POPI   C4B20392  18.237  16.072   6.246  0.2079 -0.5556 -0.2133
 1298DPPI    C120393  13.439  18.907   4.906  0.0394  0.0789 -0.3649
 1298DPPI    C220394  13.120  18.667   4.919  0.0136  0.1284  0.0468
 1298DPPI    C320395  13.162  18.928   4.619 -0.3440  0.1371 -0.0003
 1298DPPI   PO420396  13.477  18.871   5.181 -0.2677 -0.4078 -0.2467
 1298DPPI   GL120397  13.516  19.211   5.537  0.0294 -0.3444 -0.1756
 1298DPPI   GL220398  13.835  19.139   5.660  0.2692 -0.2652  0.3131
 1298DPPI   C1A20399  13.202  19.347   5.831  0.0125 -0.4082 -0.2106
 1298DPPI   C2A20400  13.068  19.300   6.254  0.1534  0.0276 -0.1690
 1298DPPI   C3A20401  13.033  19.348   6.726 -0.3499  0.2073 -0.3063
 1298DPPI   C4A20402  12.982  19.370   7.168 -0.0590 -0.0919 -0.1506
 1298DPPI   C1B20403  13.979  19.359   6.033 -0.3549 -0.1273 -0.0008
 1298DPPI   C2B20404  14.303  19.613   6.317  0.0317  0.1551 -0.1136
 1298DPPI   C3B20405  14.372  19.935   6.780  0.1035  0.2491  0.0380
 1298DPPI   C4B20406  14.612  20.307   6.691 -0.1638  0.2893  0.2303
 1299DPPI    C120407   7.014   0.593   4.870  0.3955 -0.0960  0.0125
 1299DPPI    C220408   7.336   0.521   4.643  0.2701  0.0032 -0.1997
 1299DPPI    C320409   6.974   0.403   4.521  0.1746  0.2354 -0.1480
 1299DPPI   PO420410   6.998   0.491   5.062 -0.0413  0.1170  0.0128
 1299DPPI   GL120411   7.085   0.235   5.382 -0.0025  0.1252  0.0484
 1299DPPI   GL220412   6.750   0.238   5.382  0.2713  0.1104  0.2812
 1299DPPI   C1A20413   7.169   0.162   5.764 -0.1591  0.0114  0.1135
 1299DPPI   C2A20414   7.162   0.173   6.334  0.1566 -0.1201  0.1004
 1299DPPI   C3A20415   7.237   0.085   6.787 -0.1255  0.0056  0.0940
 1299DPPI   C4A20416   7.432   0.003   7.196 -0.0093 -0.0544 -0.1011
 1299DPPI   C1B20417   6.644   0.370   5.761  0.2742  0.1851 -0.0275
 1299DPPI   C2B20418   6.712   0.287   6.233  0.1807 -0.0305  0.0193
 1299DPPI   C3B20419   6.713   0.239   6.626  0.1077 -0.0606 -0.0604
 1299DPPI   C4B20420   6.949   0.437   6.976  0.0058  0.0633 -0.1300
 1300DPPI    C120421  10.745   0.435   4.564  0.0915  0.1252  0.0395
 1300DPPI    C220422  10.372   0.556   4.482  0.0375 -0.1012 -0.0576
 1300DPPI    C320423  10.664   0.612   4.214  0.0265 -0.1251 -0.0746
 1300DPPI   PO420424  10.705   0.555   4.892  0.1522 -0.1557  0.4249
 1300DPPI   GL120425  10.608   0.730   5.313 -0.0173 -0.0646  0.1345
 1300DPPI   GL220426  10.443   0.442   5.369  0.0215 -0.2714  0.0266
 1300DPPI   C1A20427  10.866   0.776   5.629  0.1475 -0.0617 -0.2467
 1300DPPI   C2A20428  10.996   0.908   6.069 -0.0868 -0.0135  0.1090
 1300DPPI   C3A20429  11.182   0.659   6.479 -0.0211 -0.0608  0.0729
 1300DPPI   C4A20430  11.236   0.482   6.861  0.1041 -0.4590  0.0787
 1300DPPI   C1B20431  10.514   0.514   5.853 -0.3086 -0.1235 -0.1669
 1300DPPI   C2B20432  10.641   0.657   6.287 -0.1177 -0.1559 -0.1306
 1300DPPI   C3B20433  10.685   0.857   6.652 -0.0707  0.0383 -0.0339
 1300DPPI   C4B20434  10.892   0.763   7.054  0.1049  0.0978 -0.1688
 1301DPPI    C120435  11.416   8.980   4.455  0.0303 -0.0919 -0.1660
 1301DPPI    C220436  11.375   9.378   4.442 -0.0915 -0.0975  0.0180
 1301DPPI    C320437  11.413   9.170   4.103 -0.4689  0.0263 -0.1057
 1301DPPI   PO420438  11.234   8.957   4.686  0.0357 -0.0068  0.0166
 1301DPPI   GL120439  11.514   8.786   5.057 -0.1026  0.1937 -0.0995
 1301DPPI   GL220440  11.132   8.838   5.137  0.1858 -0.3808 -0.0973
 1301DPPI   C1A20441  11.590   8.695   5.423  0.0902  0.1071 -0.0619
 1301DPPI   C2A20442  11.714   8.744   5.907 -0.2882  0.1008 -0.1010
 1301DPPI   C3A20443  11.781   8.848   6.336 -0.0200  0.1234 -0.4065
 1301DPPI   C4A20444  11.945   8.940   6.623  0.3858  0.0831 -0.5789
 1301DPPI   C1B20445  11.078   8.840   5.485 -0.0256 -0.1840  0.0785
 1301DPPI   C2B20446  10.954   9.004   5.896 -0.0477  0.3529 -0.0911
 1301DPPI   C3B20447  10.941   8.976   6.293  0.1117 -0.1986 -0.0422
 1301DPPI   C4B20448  11.150   9.222   6.691 -0.1517 -0.1077 -0.2155
 1302DPPI    C120449   9.750  18.866   4.653 -0.0423 -0.1347 -0.2448
 1302DPPI    C220450   9.889  19.070   4.338  0.2719  0.0407  0.0015
 1302DPPI    C320451  10.139  18.849   4.559  0.0499 -0.0975  0.1175
 1302DPPI   PO420452   9.576  19.084   4.779 -0.2501  0.0256  0.0603
 1302DPPI   GL120453   9.561  19.212   5.210  0.1422 -0.0671  0.2002
 1302DPPI   GL220454   9.560  18.921   5.418  0.1700 -0.1849  0.0336
 1302DPPI   C1A20455   9.636  19.486   5.617  0.0563 -0.0414 -0.3450
 1302DPPI   C2A20456   9.206  19.612   5.863  0.2786  0.1126 -0.0396
 1302DPPI   C3A20457   8.909  19.645   6.210 -0.2851  0.1401  0.0230
 1302DPPI   C4A20458   8.899  19.839   6.599 -0.0411 -0.0106 -0.0963
 1302DPPI   C1B20459   9.490  19.080   5.806 -0.0959  0.0480 -0.1977
 1302DPPI   C2B20460   9.607  19.340   6.107 -0.2917  0.1165 -0.0303
 1302DPPI   C3B20461   9.740  19.301   6.585  0.1082 -0.3834  0.0706
 1302DPPI   C4B20462   9.791  19.398   6.969 -0.3010  0.0028  0.3701
 1303DPPI    C120463  10.281   2.029   4.685  0.2292 -0.0348 -0.1108
 1303DPPI    C220464   9.936   1.945   4.502  0.0442  0.0785  0.1793
 1303DPPI    C320465  10.123   2.291   4.428  0.1743 -0.0462 -0.0886
 1303DPPI   PO420466  10.328   1.732   4.818  0.0219 -0.3352 -0.3502
 1303DPPI   GL120467  10.417   1.688   5.213  0.1684 -0.1510 -0.0775
 1303DPPI   GL220468  10.160   1.553   5.240  0.2874  0.2007  0.1942
 1303DPPI   C1A20469  10.423   2.004   5.471 -0.1018  0.2422 -0.0164
 1303DPPI   C2A20470  10.311   2.105   5.800  0.1278  0.0652  0.3526
 1303DPPI   C3A20471  10.069   2.106   6.083 -0.2757  0.0758 -0.0258
 1303DPPI   C4A20472  10.114   2.139   6.478  0.0909 -0.3695 -0.0446
 1303DPPI   C1B20473  10.218   1.590   5.686  0.0180  0.0484 -0.2203
 1303DPPI   C2B20474  10.337   1.687   6.090  0.4852 -0.0977  0.0740
 1303DPPI   C3B20475  10.170   1.640   6.437 -0.0493  0.1815 -0.0002
 1303DPPI   C4B20476  10.073   1.808   6.852  0.0148  0.0477  0.0087
 1304DPPI    C120477  17.902   6.499   4.818  0.1092 -0.0479  0.3130
 1304DPPI    C220478  17.840   6.152   4.629 -0.1522 -0.0017  0.3098
 1304DPPI    C320479  17.750   6.497   4.448  0.1475  0.0720  0.2962
 1304DPPI   PO420480  17.839   6.369   5.133  0.2012  0.0550  0.3753
 1304DPPI   GL120481  17.860   6.264   5.599  0.1555 -0.3569  0.2730
 1304DPPI   GL220482  17.674   5.986   5.487 -0.0514  0.0284  0.1271
 1304DPPI   C1A20483  17.744   6.127   6.098  0.1597 -0.1886 -0.0914
 1304DPPI   C2A20484  17.442   6.319   6.362  0.1055 -0.1685 -0.2407
 1304DPPI   C3A20485  17.445   6.688   6.721 -0.2093  0.0942  0.0718
 1304DPPI   C4A20486  17.463   7.107   6.970  0.2747 -0.2949 -0.3037
 1304DPPI   C1B20487  17.391   5.826   5.748  0.0066 -0.0059  0.1404
 1304DPPI   C2B20488  17.295   5.656   6.246 -0.2782 -0.3123  0.0915
 1304DPPI   C3B20489  17.248   5.706   6.714 -0.0987  0.0581  0.1613
 1304DPPI   C4B20490  17.240   5.945   7.198  0.0104 -0.4277 -0.1965
 1305DPPI    C120491   7.075  15.766   4.182 -0.1377 -0.0824 -0.1343
 1305DPPI    C220492   6.875  15.426   4.247 -0.2619 -0.0416 -0.2970
 1305DPPI    C320493   6.696  15.730   4.059 -0.0852  0.0396 -0.3353
 1305DPPI   PO420494   7.235  15.791   4.413  0.1749  0.2094 -0.0819
 1305DPPI   GL120495   7.141  15.874   4.822 -0.5859 -0.0106 -0.2219
 1305DPPI   GL220496   6.909  16.035   5.037 -0.0682  0.2009  0.2826
 1305DPPI   C1A20497   7.307  15.917   5.247 -0.3801 -0.0189  0.0237
 1305DPPI   C2A20498   7.172  16.015   5.684 -0.0754 -0.1265 -0.2213
 1305DPPI   C3A20499   7.124  16.200   6.087 -0.0870 -0.0048 -0.2026
 1305DPPI   C4A20500   7.117  16.134   6.480  0.0758  0.0254 -0.0459
 1305DPPI   C1B20501   6.992  16.331   5.345  0.0568  0.1292  0.0377
 1305DPPI   C2B20502   7.247  16.550   5.754  0.0354 -0.1959  0.0332
 1305DPPI   C3B20503   7.442  16.687   6.144 -0.3138 -0.1125 -0.1083
 1305DPPI   C4B20504   7.442  16.776   6.657  0.0083  0.2026 -0.0100
 1306DPPI    C120505   7.872  11.934   4.526 -0.1436  0.2466 -0.1100
 1306DPPI    C220506   7.490  11.820   4.491 -0.0247 -0.1241 -0.2491
 1306DPPI    C320507   7.693  11.941   4.168 -0.0104  0.0331 -0.1823
 1306DPPI   PO420508   7.952  11.971   4.731  0.1018  0.3141 -0.0389
 1306DPPI   GL120509   7.875  12.012   5.225 -0.1308 -0.0682 -0.1310
 1306DPPI   GL220510   7.634  11.818   5.360  0.0484  0.0575 -0.0629
 1306DPPI   C1A20511   7.969  12.305   5.497 -0.1174  0.1141  0.5781
 1306DPPI   C2A20512   8.126  12.331   5.866 -0.1089  0.3448  0.0710
 1306DPPI   C3A20513   8.282  12.479   6.260  0.1374 -0.0710  0.2644
 1306DPPI   C4A20514   8.208  12.541   6.628  0.2422 -0.0495  0.0334
 1306DPPI   C1B20515   7.696  11.942   5.719 -0.2833 -0.0988  0.0058
 1306DPPI   C2B20516   7.585  11.904   6.032 -0.0315 -0.5174 -0.3809
 1306DPPI   C3B20517   7.568  11.866   6.481  0.0232  0.0604 -0.3437
 1306DPPI   C4B20518   7.596  11.776   6.965 -0.2954  0.0178 -0.0984
 1307DPPI    C120519  12.962   3.695   4.292  0.1078  0.0057 -0.1205
 1307DPPI    C220520  12.756   3.752   3.955  0.2358 -0.1040 -0.2183
 1307DPPI    C320521  13.085   3.526   3.952  0.1688 -0.2074  0.0059
 1307DPPI   PO420522  12.794   3.715   4.458 -0.0543  0.1104 -0.0086
 1307DPPI   GL120523  12.625   3.816   4.918 -0.2341  0.1122  0.0801
 1307DPPI   GL220524  12.688   4.157   4.861 -0.3106 -0.2951  0.0339
 1307DPPI   C1A20525  12.801   3.616   5.265  0.0603  0.1769  0.1773
 1307DPPI   C2A20526  13.024   3.665   5.672 -0.0663 -0.0964  0.4425
 1307DPPI   C3A20527  13.230   3.896   6.068  0.1174  0.0860  0.0126
 1307DPPI   C4A20528  13.386   4.054   6.419  0.1019  0.0180 -0.6208
 1307DPPI   C1B20529  12.834   4.135   5.328  0.0801  0.2287  0.2562
 1307DPPI   C2B20530  12.717   4.486   5.660  0.3926 -0.0843 -0.1535
 1307DPPI   C3B20531  12.545   4.730   5.930 -0.5089  0.2342  0.2665
 1307DPPI   C4B20532  12.870   5.018   5.904  0.3423  0.3800  0.0228
 1308PYPI    C120533   8.151   7.823   4.528  0.3772 -0.2416  0.2671
 1308PYPI    C220534   8.276   7.471   4.385  0.0115 -0.2364 -0.0816
 1308PYPI    C320535   8.327   7.804   4.169 -0.2646 -0.1805 -0.0647
 1308PYPI   PO420536   8.309   7.776   4.817 -0.1959 -0.0722 -0.0823
 1308PYPI   GL120537   8.389   7.792   5.204  0.0636 -0.0215 -0.5177
 1308PYPI   GL220538   8.323   7.540   5.292  0.1321 -0.1000 -0.1753
 1308PYPI   C1A20539   8.423   7.971   5.621  0.0361  0.3327  0.1357
 1308PYPI   C2A20540   8.245   7.948   6.098 -0.0024  0.1108 -0.1629
 1308PYPI   D3A20541   8.003   8.097   6.492 -0.2531 -0.0443 -0.1123
 1308PYPI   C4A20542   7.619   8.185   6.371 -0.0634  0.0261 -0.0746
 1308PYPI   C1B20543   8.233   7.508   5.782  0.1560 -0.0868 -0.2254
 1308PYPI   C2B20544   8.058   7.393   6.243 -0.0553 -0.3561  0.0679
 1308PYPI   C3B20545   7.867   6.943   6.416  0.4756 -0.1500  0.2486
 1308PYPI   C4B20546   7.558   6.859   6.766  0.2041  0.0299  0.0891
 1309PYPI    C120547  10.102  11.010   4.911  0.2135 -0.1763  0.1938
 1309PYPI    C220548  10.373  11.095   4.630  0.0434 -0.0173  0.0756
 1309PYPI    C320549  10.088  10.824   4.557 -0.1251  0.1734  0.0160
 1309PYPI   PO420550  10.138  11.289   5.031  0.3054 -0.3616 -0.1926
 1309PYPI   GL120551   9.867  11.637   5.276  0.1898  0.1471 -0.2055
 1309PYPI   GL220552   9.631  11.573   5.494 -0.0435  0.2640 -0.3928
 1309PYPI   C1A20553   9.669  12.054   5.412  0.2118  0.1135  0.1835
 1309PYPI   C2A20554   9.682  12.356   5.694  0.0770 -0.1589  0.1194
 1309PYPI   D3A20555   9.718  12.747   6.059 -0.0645  0.1214 -0.1693
 1309PYPI   C4A20556   9.805  12.859   6.441  0.2193 -0.2174  0.0997
 1309PYPI   C1B20557   9.887  11.814   5.829  0.2138 -0.3281  0.1786
 1309PYPI   C2B20558   9.676  11.994   6.168  0.0576  0.1553  0.1316
 1309PYPI   C3B20559   9.807  12.319   6.499  0.0947 -0.4145  0.0201
 1309PYPI   C4B20560   9.985  12.556   6.820 -0.1352  0.2065  0.4411
 1310PYPI    C120561  14.328  17.944   4.962 -0.2019 -0.2950  0.0112
 1310PYPI    C220562  14.249  18.055   4.586  0.0818  0.1533  0.0761
 1310PYPI    C320563  14.501  17.752   4.656  0.1084  0.1350 -0.0922
 1310PYPI   PO420564  14.230  18.182   5.050  0.1302 -0.2458 -0.1456
 1310PYPI   GL120565  13.969  18.448   5.300 -0.1481 -0.0693 -0.3560
 1310PYPI   GL220566  13.699  18.616   5.541 -0.2434 -0.1253 -0.1086
 1310PYPI   C1A20567  14.038  18.264   5.718 -0.2059  0.3699  0.1540
 1310PYPI   C2A20568  13.902  18.228   6.168 -0.0673  0.1532 -0.0777
 1310PYPI   D3A20569  13.798  17.855   6.216  0.3160  0.0470 -0.1408
 1310PYPI   C4A20570  13.727  17.527   6.518 -0.1161  0.0762  0.1671
 1310PYPI   C1B20571  13.912  18.765   5.961 -0.2661  0.4438  0.0450
 1310PYPI   C2B20572  13.823  18.717   6.366  0.1614  0.0748 -0.0613
 1310PYPI   C3B20573  13.873  18.443   6.656 -0.0325  0.0970  0.1740
 1310PYPI   C4B20574  13.964  18.036   6.649 -0.0553 -0.0878  0.1459
 1311PYPI    C120575   5.120  15.143   4.667 -0.0276 -0.0104 -0.0871
 1311PYPI    C220576   5.065  14.788   4.841  0.2638 -0.0326 -0.0350
 1311PYPI    C320577   5.164  14.807   4.454 -0.1848  0.0099 -0.1527
 1311PYPI   PO420578   5.173  15.284   4.833  0.1656  0.1561  0.1968
 1311PYPI   GL120579   5.380  15.209   5.127  0.1947  0.1115 -0.2259
 1311PYPI   GL220580   5.686  15.323   5.004  0.2618  0.1129  0.0724
 1311PYPI   C1A20581   5.336  15.432   5.564 -0.0941 -0.0028  0.1190
 1311PYPI   C2A20582   5.302  15.338   5.965 -0.0635 -0.1165  0.0455
 1311PYPI   D3A20583   5.716  15.277   6.309  0.0608 -0.2905 -0.2675
 1311PYPI   C4A20584   5.980  15.459   6.069  0.0811  0.1118  0.0840
 1311PYPI   C1B20585   5.857  15.347   5.457  0.2355 -0.0608 -0.0863
 1311PYPI   C2B20586   5.699  15.045   5.810 -0.0387  0.0334  0.1382
 1311PYPI   C3B20587   5.969  14.760   6.111 -0.0206 -0.0077  0.1431
 1311PYPI   C4B20588   6.046  14.487   6.441  0.0720  0.2542 -0.0693
 1312PYPI    C120589  13.686   3.662   4.652  0.0817 -0.2011 -0.0834
 1312PYPI    C220590  14.068   3.566   4.580  0.1104  0.0272 -0.2465
 1312PYPI    C320591  13.899   3.872   4.386 -0.0853  0.0784 -0.0002
 1312PYPI   PO420592  13.646   3.666   4.864  0.0068 -0.0074  0.0250
 1312PYPI   GL120593  13.464   3.602   5.243 -0.0338 -0.1447 -0.2409
 1312PYPI   GL220594  13.607   3.294   5.316 -0.1929 -0.0578  0.1056
 1312PYPI   C1A20595  13.489   3.494   5.746 -0.3384  0.0177 -0.0954
 1312PYPI   C2A20596  13.564   3.481   6.132  0.1823 -0.4918  0.0298
 1312PYPI   D3A20597  13.402   3.376   6.500 -0.0394 -0.1182 -0.0533
 1312PYPI   C4A20598  13.230   3.672   6.837 -0.0179 -0.0540 -0.4196
 1312PYPI   C1B20599  13.832   3.138   5.730  0.1606  0.0552  0.2959
 1312PYPI   C2B20600  14.014   3.115   5.969 -0.1602  0.3306 -0.2556
 1312PYPI   C3B20601  14.059   3.374   6.329 -0.2641  0.0486 -0.2105
 1312PYPI   C4B20602  13.817   3.635   6.616 -0.1432  0.3159  0.0500
 1313PYPI    C120603  15.707   8.015   4.534 -0.2704  0.0739  0.0535
 1313PYPI    C220604  15.735   8.272   4.229 -0.1716 -0.0545 -0.0471
 1313PYPI    C320605  15.386   8.093   4.308 -0.1619 -0.1308 -0.1756
 1313PYPI   PO420606  15.703   8.159   4.759 -0.1608  0.2066 -0.0481
 1313PYPI   GL120607  15.808   8.230   5.029  0.0352 -0.2034  0.0336
 1313PYPI   GL220608  16.065   8.037   5.266  0.2008 -0.1508  0.1945
 1313PYPI   C1A20609  15.842   8.541   5.331 -0.3929 -0.2411  0.1640
 1313PYPI   C2A20610  15.746   8.580   5.764 -0.1937 -0.0573 -0.1094
 1313PYPI   D3A20611  16.128   8.579   6.117  0.1707 -0.0081 -0.0874
 1313PYPI   C4A20612  16.196   9.081   6.063 -0.2352  0.0295  0.1715
 1313PYPI   C1B20613  16.306   8.439   5.495  0.0623  0.2383  0.2847
 1313PYPI   C2B20614  16.099   8.882   5.647 -0.0943 -0.3021  0.1964
 1313PYPI   C3B20615  15.974   9.369   5.765 -0.1037  0.1313 -0.0392
 1313PYPI   C4B20616  15.988   9.821   6.005  0.2314  0.2744  0.1863
 1314ERGO   ROH20617  14.662  11.938   4.733  0.1281 -0.1739 -0.1629
 1314ERGO    R120618  14.506  11.928   4.969  0.1738  0.0045 -0.1226
 1314ERGO    R220619  14.336  11.717   5.025 -0.0997  0.2222 -0.1089
 1314ERGO    R320620  14.477  11.708   5.257 -0.0467 -0.0020 -0.1477
 1314ERGO    R420621  14.218  11.586   5.322 -0.2544  0.4602 -0.0628
 1314ERGO    R520622  14.314  11.751   5.427  0.0718  0.3077 -0.1063
 1314ERGO    C120623  14.282  11.501   5.713 -0.2948  0.3884 -0.0725
 1314ERGO    C220624  14.245  11.317   6.041  0.0324  0.3913 -0.0473
 1315ERGO   ROH20625   8.285   1.366   5.634 -0.2645 -0.1854 -0.0927
 1315ERGO    R120626   8.236   1.233   5.880 -0.0093 -0.2114 -0.0520
 1315ERGO    R220627   8.439   1.127   6.035  0.1920  0.0868 -0.0951
 1315ERGO    R320628   8.327   1.282   6.229  0.0410 -0.0213 -0.0906
 1315ERGO    R420629   8.510   1.103   6.372  0.1215  0.0750 -0.0813
 1315ERGO    R520630   8.299   1.133   6.414  0.0917 -0.0727 -0.1261
 1315ERGO    C120631   8.448   1.233   6.750 -0.0612 -0.0333 -0.0690
 1315ERGO    C220632   8.538   1.325   7.031 -0.0900  0.1270  0.1632
 1316ERGO   ROH20633  14.923  14.746   5.015  0.2166  0.0042  0.2137
 1316ERGO    R120634  14.773  14.694   5.248  0.1998 -0.2071  0.1575
 1316ERGO    R220635  14.870  14.541   5.457  0.2940 -0.1593  0.1460
 1316ERGO    R320636  14.806  14.760   5.605  0.0262 -0.2606  0.1855
 1316ERGO    R420637  14.849  14.548   5.802  0.4242 -0.2223  0.1556
 1316ERGO    R520638  14.672  14.674   5.784  0.2223 -0.4788  0.2343
 1316ERGO    C120639  14.776  14.757   6.142  0.2485 -0.3542  0.1983
 1316ERGO    C220640  14.909  14.793   6.493  0.2610 -0.1647 -0.0817
 1317ERGO   ROH20641  14.672   0.323   5.702  0.2812  0.1395  0.0233
 1317ERGO    R120642  14.650   0.260   5.977  0.0149  0.1321  0.0039
 1317ERGO    R220643  14.854   0.135   6.117 -0.2640 -0.2271  0.1098
 1317ERGO    R320644  14.825   0.349   6.283 -0.0115 -0.1981  0.1181
 1317ERGO    R420645  14.937   0.138   6.453  0.0600 -0.2264  0.0318
 1317ERGO    R520646  14.757   0.254   6.492  0.1480 -0.1449  0.1943
 1317ERGO    C120647  14.959   0.340   6.804  0.4858 -0.1988 -0.0058
 1317ERGO    C220648  14.939   0.518   7.121 -0.1367  0.0884  0.0737
 1318ERGO   ROH20649  13.922   1.082   5.322 -0.1535 -0.3038  0.0944
 1318ERGO    R120650  13.910   1.179   5.588 -0.0027 -0.2524  0.0821
 1318ERGO    R220651  14.082   1.373   5.684 -0.0690 -0.1025 -0.1111
 1318ERGO    R320652  13.851   1.499   5.750 -0.1097 -0.2590  0.0596
 1318ERGO    R420653  14.055   1.618   5.925 -0.0007  0.0598 -0.2644
 1318ERGO    R520654  13.866   1.529   5.988  0.1455 -0.0666  0.0269
 1318ERGO    C120655  13.822   1.880   6.128  0.0008  0.0073 -0.1934
 1318ERGO    C220656  13.784   2.175   6.136  0.0687  0.0730  0.0759
 1319ERGO   ROH20657  16.286   4.986   5.249  0.2106  0.0721 -0.0093
 1319ERGO    R120658  16.163   5.086   5.483  0.1333 -0.0304 -0.0053
 1319ERGO    R220659  16.179   4.957   5.727  0.2300 -0.0292 -0.0105
 1319ERGO    R320660  16.271   5.199   5.812  0.0484  0.0380 -0.0003
 1319ERGO    R420661  16.179   5.065   6.056  0.1122 -0.0263 -0.0110
 1319ERGO    R520662  16.120   5.262   5.986 -0.0197 -0.0679 -0.0196
 1319ERGO    C120663  16.266   5.354   6.326 -0.1268  0.0386 -0.0017
 1319ERGO    C220664  16.434   5.189   6.527 -0.1754 -0.1827  0.1249
 1320ERGO   ROH20665   8.348  14.201   5.135  0.0242  0.0169  0.0987
 1320ERGO    R120666   8.472  14.246   5.385 -0.0525 -0.0687  0.1498
 1320ERGO    R220667   8.472  14.494   5.509  0.0388 -0.0842  0.1563
 1320ERGO    R320668   8.367  14.354   5.717 -0.1202 -0.0280  0.1183
 1320ERGO    R420669   8.527  14.564   5.842 -0.2048  0.0199  0.1790
 1320ERGO    R520670   8.541  14.350   5.881 -0.2320  0.0211  0.2509
 1320ERGO    C120671   8.460  14.474   6.232 -0.4959  0.1333  0.1565
 1320ERGO    C220672   8.390  14.540   6.495 -0.1937  0.0854  0.0960
 1321ERGO   ROH20673  18.544   4.382   5.614 -0.1520  0.2369 -0.2950
 1321ERGO    R120674  18.355   4.265   5.789  0.0288  0.1101 -0.1807
 1321ERGO    R220675  18.428   4.120   6.013  0.2585  0.2231 -0.1819
 1321ERGO    R320676  18.264   4.296   6.140  0.1626  0.1094 -0.1452
 1321ERGO    R420677  18.353   4.112   6.350  0.4545  0.2529 -0.1362
 1321ERGO    R520678  18.147   4.163   6.301  0.3758  0.0448 -0.0383
 1321ERGO    C120679  18.157   4.273   6.666  0.4784  0.1635 -0.0753
 1321ERGO    C220680  18.349   4.234   6.969 -0.1080  0.0354  0.4021
 1322ERGO   ROH20681   8.762   4.553   5.534 -0.0256 -0.1045 -0.0503
 1322ERGO    R120682   8.827   4.532   5.809 -0.1031 -0.1518 -0.0338
 1322ERGO    R220683   9.074   4.446   5.897 -0.1101 -0.1341  0.0236
 1322ERGO    R320684   9.072   4.680   6.034 -0.1906 -0.1602  0.0646
 1322ERGO    R420685   9.204   4.490   6.214 -0.1711 -0.1463  0.0492
 1322ERGO    R520686   9.032   4.616   6.262 -0.2055 -0.2027  0.0450
 1322ERGO    C120687   9.277   4.737   6.528 -0.2822 -0.1779  0.1026
 1322ERGO    C220688   9.549   4.664   6.732 -0.4850 -0.3242  0.0055
 1323ERGO   ROH20689  10.998  12.221   4.869  0.0439  0.0195  0.1338
 1323ERGO    R120690  11.116  12.244   5.125 -0.0032  0.0496  0.1518
 1323ERGO    R220691  11.026  12.423   5.316 -0.0662  0.0368  0.1262
 1323ERGO    R320692  11.009  12.200   5.471 -0.0496  0.0422  0.1382
 1323ERGO    R420693  10.976  12.424   5.658 -0.2561  0.0562  0.1005
 1323ERGO    R520694  11.120  12.261   5.674 -0.1858  0.1193  0.1957
 1323ERGO    C120695  10.931  12.215   6.002 -0.3511  0.0726  0.0968
 1323ERGO    C220696  10.770  12.191   6.319 -0.3396  0.1912 -0.1514
 1324ERGO   ROH20697   0.056  18.799   5.362  0.2079 -0.0252  0.1049
 1324ERGO    R120698   0.126  18.840   5.633  0.1494  0.1134  0.1013
 1324ERGO    R220699   0.137  19.091   5.747 -0.0772  0.1655  0.0351
 1324ERGO    R320700  -0.034  18.982   5.928 -0.0035  0.0635  0.0406
 1324ERGO    R420701   0.049  19.234   6.050 -0.1664  0.1023  0.0379
 1324ERGO    R520702   0.060  19.037   6.141 -0.0426  0.1184  0.0358
 1324ERGO    C120703  -0.162  19.214   6.395 -0.1490 -0.0303  0.0448
 1324ERGO    C220704  -0.497  19.127   6.606 -0.1837 -0.0027 -0.0513
 1325ERGO   ROH20705   4.102   1.951   5.886  0.0840  0.1749 -0.0283
 1325ERGO    R120706   4.101   1.942   6.169  0.0431  0.0930 -0.0301
 1325ERGO    R220707   4.089   2.170   6.325  0.0567  0.0524  0.0359
 1325ERGO    R320708   3.876   2.042   6.437  0.0205  0.0516 -0.0348
 1325ERGO    R420709   4.004   2.183   6.660 -0.0188 -0.0107  0.0194
 1325ERGO    R520710   3.956   1.971   6.651 -0.0376 -0.0003 -0.0335
 1325ERGO    C120711   3.756   2.071   6.960 -0.0968 -0.0482 -0.0567
 1325ERGO    C220712   3.530   2.091   7.157 -0.1106  0.1501  0.1529
 1326ERGO   ROH20713   0.024  14.571   4.920  0.1273 -0.4424 -0.0083
 1326ERGO    R120714   0.217  14.550   5.126  0.1892 -0.1215 -0.0311
 1326ERGO    R220715   0.355  14.770   5.223 -0.1390  0.1038 -0.0733
 1326ERGO    R320716   0.260  14.683   5.462  0.0315 -0.0200 -0.0477
 1326ERGO    R420717   0.517  14.809   5.526  0.0968 -0.0590 -0.1750
 1326ERGO    R520718   0.455  14.607   5.580  0.1252 -0.0924 -0.2346
 1326ERGO    C120719   0.523  14.750   5.927  0.3942 -0.2699 -0.2103
 1326ERGO    C220720   0.731  14.778   6.201 -0.0168 -0.4032  0.2390
 1327ERGO   ROH20721   9.059   8.990   5.446  0.1974 -0.0258 -0.0868
 1327ERGO    R120722   8.839   8.935   5.615  0.1107  0.1204 -0.1506
 1327ERGO    R220723   8.858   8.766   5.833 -0.0901  0.0268 -0.2085
 1327ERGO    R320724   8.758   8.981   5.967  0.0811  0.0722 -0.1494
 1327ERGO    R420725   8.695   8.752   6.138  0.1622  0.0992 -0.0660
 1327ERGO    R520726   8.554   8.901   6.064  0.1367  0.1328  0.0312
 1327ERGO    C120727   8.505   8.945   6.439  0.4696  0.1842  0.0724
 1327ERGO    C220728   8.307   9.131   6.608  0.3049 -0.5250 -0.0286
 1328ERGO   ROH20729   8.268  16.885   5.002 -0.0063 -0.0335  0.1001
 1328ERGO    R120730   8.210  17.007   5.251  0.0038 -0.0580  0.1145
 1328ERGO    R220731   8.102  16.867   5.463  0.0800 -0.0958  0.1301
 1328ERGO    R320732   8.317  16.966   5.597  0.0769 -0.0403  0.0938
 1328ERGO    R420733   8.170  16.809   5.797  0.0286  0.1149  0.1786
 1328ERGO    R520734   8.232  17.017   5.815  0.0572  0.1170  0.0494
 1328ERGO    C120735   8.412  16.868   6.117 -0.0043  0.2896  0.1729
 1328ERGO    C220736   8.608  16.910   6.396 -0.1655  0.1832  0.0340
 1329ERGO   ROH20737   3.242   3.647   5.475 -0.0390 -0.0777  0.0763
 1329ERGO    R120738   3.189   3.648   5.753 -0.1709 -0.1648  0.0521
 1329ERGO    R220739   3.179   3.880   5.902  0.0375 -0.2320  0.1704
 1329ERGO    R320740   2.935   3.786   5.973 -0.1129  0.0220  0.0047
 1329ERGO    R420741   3.073   3.832   6.228 -0.1630 -0.2890  0.0978
 1329ERGO    R520742   2.977   3.647   6.164 -0.3622 -0.1417 -0.0519
 1329ERGO    C120743   2.781   3.716   6.484 -0.4210 -0.0838 -0.1000
 1329ERGO    C220744   2.692   3.573   6.757 -0.1921 -0.1135  0.4195
 1330ERGO   ROH20745   3.278  14.447   4.832  0.0480 -0.0724 -0.0815
 1330ERGO    R120746   3.178  14.299   5.052 -0.0994  0.1031 -0.0276
 1330ERGO    R220747   3.332  14.117   5.192 -0.3027 -0.0682 -0.0207
 1330ERGO    R320748   3.256  14.266   5.406 -0.0671  0.0811 -0.0367
 1330ERGO    R420749   3.221  13.989   5.493 -0.0857  0.1416  0.1521
 1330ERGO    R520750   3.071  14.146   5.499 -0.0282  0.1955  0.1934
 1330ERGO    C120751   3.085  14.055   5.869  0.2617  0.4041  0.2376
 1330ERGO    C220752   2.907  14.299   6.156  0.0545  0.0999  0.1214
 1331ERGO   ROH20753   2.303   4.365   5.346  0.1342  0.0901  0.0268
 1331ERGO    R120754   2.110   4.431   5.542  0.0207 -0.0605 -0.0327
 1331ERGO    R220755   2.043   4.260   5.748  0.1023 -0.1079 -0.0466
 1331ERGO    R320756   2.105   4.473   5.904 -0.1212 -0.0485 -0.0355
 1331ERGO    R420757   2.037   4.260   6.093  0.1448 -0.1483 -0.0454
 1331ERGO    R520758   1.950   4.460   6.086 -0.0862 -0.2426 -0.0167
 1331ERGO    C120759   2.091   4.461   6.441 -0.0404 -0.1160 -0.0344
 1331ERGO    C220760   2.032   4.555   6.795 -0.3228 -0.0768 -0.2875
 1332ERGO   ROH20761  11.696  11.051   5.152  0.0840  0.0847  0.0452
 1332ERGO    R120762  11.871  11.008   5.371  0.0255  0.0554  0.0861
 1332ERGO    R220763  12.048  11.200   5.461  0.0441  0.0207  0.1186
 1332ERGO    R320764  11.926  11.155   5.699 -0.0176  0.0540  0.0947
 1332ERGO    R420765  12.149  11.334   5.763  0.1002 -0.1075  0.1575
 1332ERGO    R520766  12.106  11.142   5.856 -0.0422 -0.1005  0.1142
 1332ERGO    C120767  12.094  11.368   6.163  0.0750 -0.1508  0.1577
 1332ERGO    C220768  12.023  11.463   6.466 -0.1341 -0.0308 -0.0888
 1333ERGO   ROH20769   3.856  15.477   5.113  0.0779  0.0268  0.0432
 1333ERGO    R120770   3.857  15.364   5.372  0.0071  0.0137  0.0383
 1333ERGO    R220771   3.919  15.510   5.598  0.0062 -0.0135  0.0590
 1333ERGO    R320772   3.678  15.419   5.685 -0.0298  0.0428  0.0107
 1333ERGO    R420773   3.816  15.506   5.928  0.0557 -0.2689  0.0721
 1333ERGO    R520774   3.727  15.310   5.893 -0.0606 -0.1820 -0.0996
 1333ERGO    C120775   3.531  15.417   6.201  0.0507 -0.3645  0.0344
 1333ERGO    C220776   3.338  15.480   6.510  0.0839  0.2330  0.2095
 1334ERGO   ROH20777   2.069   6.926   5.481 -0.0192  0.2358  0.1890
 1334ERGO    R120778   2.000   6.880   5.752 -0.0334  0.2936  0.1961
 1334ERGO    R220779   2.041   6.637   5.877 -0.3865  0.1996  0.1439
 1334ERGO    R320780   2.175   6.788   6.058 -0.1046 -0.0399  0.1407
 1334ERGO    R420781   2.044   6.581   6.218 -0.4076  0.1410  0.1336
 1334ERGO    R520782   2.030   6.796   6.248 -0.0570  0.1627  0.1702
 1334ERGO    C120783   2.172   6.690   6.586 -0.1554 -0.1180  0.1246
 1334ERGO    C220784   2.290   6.687   6.860 -0.2286 -0.1694 -0.1029
 1335ERGO   ROH20785   7.309   6.205   5.322  0.0406 -0.0480 -0.0288
 1335ERGO    R120786   7.155   6.046   5.498  0.0136  0.0272  0.0172
 1335ERGO    R220787   7.240   5.982   5.753  0.0313  0.0448  0.0180
 1335ERGO    R320788   7.000   6.088   5.825  0.0679  0.1334  0.0317
 1335ERGO    R420789   7.068   5.905   6.043 -0.0852 -0.0727 -0.0815
 1335ERGO    R520790   6.883   5.906   5.929 -0.0623  0.1169 -0.1327
 1335ERGO    C120791   6.744   5.960   6.280 -0.1186 -0.0580 -0.1264
 1335ERGO    C220792   6.871   5.991   6.657  0.4000 -0.2438 -0.1391
 1336ERGO   ROH20793   5.499  17.393   5.376 -0.0129  0.0356 -0.1113
 1336ERGO    R120794   5.532  17.302   5.642 -0.1410  0.2200 -0.0304
 1336ERGO    R220795   5.770  17.197   5.735 -0.2916 -0.0610  0.0479
 1336ERGO    R320796   5.741  17.388   5.927  0.0041  0.1587 -0.1170
 1336ERGO    R420797   5.981  17.237   6.006 -0.2721 -0.2109  0.0560
 1336ERGO    R520798   5.806  17.277   6.130 -0.2349  0.2074 -0.0097
 1336ERGO    C120799   6.077  17.439   6.344  0.0169 -0.0920 -0.0942
 1336ERGO    C220800   6.387  17.357   6.344 -0.0414  0.4602 -0.0414
 1337ERGO   ROH20801   5.376   9.359   5.418  0.0602  0.0472 -0.1472
 1337ERGO    R120802   5.280   9.313   5.680  0.1823 -0.1103 -0.1288
 1337ERGO    R220803   5.026   9.388   5.761  0.3355  0.1499  0.1279
 1337ERGO    R320804   5.007   9.127   5.833  0.0325  0.0889 -0.1489
 1337ERGO    R420805   4.778   9.257   5.963  0.1544  0.2070 -0.0534
 1337ERGO    R520806   4.930   9.133   6.060  0.0022 -0.0653 -0.1539
 1337ERGO    C120807   4.616   8.936   6.148 -0.2356  0.1831 -0.4190
 1337ERGO    C220808   4.296   8.855   6.332  0.0726 -0.2426 -0.5609
 1338ERGO   ROH20809  17.906   0.498   5.100  0.3607 -0.2948 -0.1139
 1338ERGO    R120810  17.949   0.354   5.341  0.0628 -0.2367 -0.0224
 1338ERGO    R220811  18.148   0.421   5.520  0.1300 -0.4636 -0.0110
 1338ERGO    R320812  17.942   0.428   5.697  0.0896 -0.0264 -0.0634
 1338ERGO    R420813  18.183   0.436   5.864  0.0668 -0.2250 -0.0129
 1338ERGO    R520814  18.017   0.295   5.882 -0.1394  0.0171  0.0672
 1338ERGO    C120815  18.009   0.451   6.230 -0.0083  0.3244 -0.0633
 1338ERGO    C220816  17.976   0.507   6.529  0.0339  0.0386 -0.0238
 1339ERGO   ROH20817   9.906  10.699   5.783  0.0199  0.1487  0.0498
 1339ERGO    R120818   9.944  10.566   6.029 -0.1060  0.2263  0.1112
 1339ERGO    R220819  10.178  10.433   6.092 -0.2785 -0.0738  0.1163
 1339ERGO    R320820  10.171  10.592   6.313  0.0099  0.0544  0.0383
 1339ERGO    R420821  10.413  10.428   6.346 -0.2759 -0.3860  0.1122
 1339ERGO    R520822  10.250  10.451   6.490 -0.2455 -0.0154  0.1069
 1339ERGO    C120823  10.543  10.575   6.700 -0.0037 -0.4475  0.0367
 1339ERGO    C220824  10.588  10.635   7.028  0.0581 -0.0957  0.0535
 1340ERGO   ROH20825  14.025   3.327   5.021 -0.0372 -0.1341  0.1361
 1340ERGO    R120826  14.064   3.384   5.295 -0.0157 -0.0847  0.1232
 1340ERGO    R220827  14.170   3.623   5.383 -0.1785  0.0070  0.0813
 1340ERGO    R320828  13.943   3.632   5.533 -0.1520 -0.1594  0.1329
 1340ERGO    R420829  14.148   3.762   5.699 -0.2160  0.0176  0.0736
 1340ERGO    R520830  14.019   3.595   5.757 -0.0712 -0.0795  0.1185
 1340ERGO    C120831  13.921   3.851   6.023 -0.2130 -0.1324  0.1174
 1340ERGO    C220832  13.890   3.875   6.217 -0.0676  0.0600  0.2278
 1341ERGO   ROH20833  13.537  15.747   4.929 -0.0931 -0.0011 -0.1041
 1341ERGO    R120834  13.301  15.763   5.084 -0.0462 -0.0051 -0.0319
 1341ERGO    R220835  13.137  15.545   5.127 -0.0053 -0.0173  0.0547
 1341ERGO    R320836  13.173  15.611   5.389  0.0679  0.0286  0.0337
 1341ERGO    R420837  12.931  15.445   5.386  0.1158 -0.0465  0.1412
 1341ERGO    R520838  12.951  15.644   5.473  0.0862 -0.0276  0.1076
 1341ERGO    C120839  12.845  15.448   5.782  0.2552 -0.0203  0.1719
 1341ERGO    C220840  12.869  15.219   6.037  0.3821  0.0727 -0.0282
 1342ERGO   ROH20841  14.766   8.951   5.450 -0.0581 -0.0908  0.1315
 1342ERGO    R120842  14.867   8.992   5.711 -0.0938 -0.1657  0.1568
 1342ERGO    R220843  14.731   9.137   5.902 -0.0250 -0.0479  0.1110
 1342ERGO    R320844  14.765   8.912   6.050 -0.2500 -0.0690  0.1352
 1342ERGO    R420845  14.767   9.131   6.246  0.1942 -0.0119  0.0911
 1342ERGO    R520846  14.919   8.977   6.222 -0.0357 -0.2433  0.0197
 1342ERGO    C120847  14.819   8.916   6.585  0.1107 -0.0107  0.1023
 1342ERGO    C220848  14.664   9.029   6.929 -0.0359 -0.0358  0.1089
 1343ERGO   ROH20849  11.911   6.091   5.296  0.0150  0.3867  0.0242
 1343ERGO    R120850  11.963   6.030   5.568 -0.0490  0.1449 -0.0155
 1343ERGO    R220851  12.180   6.134   5.704 -0.0567 -0.0144  0.1147
 1343ERGO    R320852  11.989   6.215   5.880 -0.0710 -0.1260  0.1520
 1343ERGO    R420853  12.227   6.171   6.045  0.0120  0.0530  0.0981
 1343ERGO    R520854  12.029   6.085   6.077  0.0732 -0.0822  0.1570
 1343ERGO    C120855  12.075   6.269   6.408  0.0384 -0.0127  0.1235
 1343ERGO    C220856  11.993   6.265   6.697  0.0082  0.1950 -0.3887
 1344ERGO   ROH20857   0.814   8.056   5.169  0.0369 -0.2467  0.0477
 1344ERGO    R120858   0.726   8.070   5.437  0.0342 -0.1064  0.0400
 1344ERGO    R220859   0.819   7.899   5.633 -0.0908 -0.1110  0.0937
 1344ERGO    R320860   0.878   8.131   5.762  0.0610 -0.1120  0.0290
 1344ERGO    R420861   0.921   7.922   5.963 -0.2738 -0.0757  0.1494
 1344ERGO    R520862   0.795   8.098   5.985 -0.1137  0.0637 -0.0058
 1344ERGO    C120863   1.036   8.152   6.276 -0.2378 -0.0561  0.1211
 1344ERGO    C220864   1.260   8.068   6.588 -0.2424  0.0208 -0.0449
 1345ERGO   ROH20865  16.877  15.652   5.043 -0.0029 -0.4745  0.1899
 1345ERGO    R120866  16.869  15.840   5.255 -0.2930 -0.3699  0.0906
 1345ERGO    R220867  16.785  15.773   5.509 -0.0418 -0.4101  0.1640
 1345ERGO    R320868  17.026  15.878   5.582 -0.2143  0.1324  0.0030
 1345ERGO    R420869  16.852  15.916   5.817 -0.0699 -0.6006  0.2602
 1345ERGO    R520870  16.968  16.070   5.713 -0.5782 -0.1602  0.2970
 1345ERGO    C120871  17.116  16.097   6.064 -0.2485 -0.2025  0.1650
 1345ERGO    C220872  17.196  16.046   6.418 -0.0284  0.1643  0.2029
 1346ERGO   ROH20873   1.569   5.848   5.621  0.0124  0.1020 -0.0103
 1346ERGO    R120874   1.485   5.829   5.891  0.0458  0.0943  0.0005
 1346ERGO    R220875   1.395   5.592   6.002 -0.0573  0.1153 -0.0270
 1346ERGO    R320876   1.587   5.644   6.187  0.0019 -0.0144 -0.0529
 1346ERGO    R420877   1.416   5.440   6.312 -0.3092  0.3391  0.1038
 1346ERGO    R520878   1.472   5.633   6.397 -0.0336  0.3296 -0.0528
 1346ERGO    C120879   1.609   5.400   6.666 -0.4002  0.3476  0.1557
 1346ERGO    C220880   1.634   5.288   7.073 -0.1112  0.0845 -0.0395
 1347W        W20881   4.968   1.231  13.183  0.1280 -0.0426  0.1256
 1348W        W20882   1.613   6.931   1.096  0.2407 -0.0368 -0.1373
 1349W        W20883   5.863  16.814  12.105 -0.1073  0.1626  0.0595
 1350W        W20884  14.484   1.786  10.730 -0.1465 -0.2441  0.1330
 1351W        W20885  15.967  10.473  14.173  0.1146 -0.0827 -0.0214
 1352W        W20886   4.232  10.059   3.161  0.1210  0.1774 -0.0033
 1353W        W20887   9.202   0.748  13.092 -0.3053 -0.2257 -0.2247
 1354W        W20888  11.612   8.058  13.878  0.1754  0.3171  0.0202
 1355W        W20889   3.474   7.708  14.183 -0.1461 -0.1250 -0.3082
 1356W        W20890  19.284   0.638   1.888 -0.1354  0.0011  0.0468
 1357W        W20891  11.793  14.732  10.028  0.3883  0.1482  0.1107
 1358W        W20892  19.237  10.872  10.901  0.0326  0.1193  0.0277
 1359W        W20893  18.057  14.950   3.670  0.0905  0.0568 -0.0188
 1360W        W20894  11.791   5.041  12.383 -0.1522  0.2359  0.4061
 1361W        W20895  16.273  17.263  14.111  0.2915  0.0373  0.3037
 1362W        W20896   9.824   7.701  13.178  0.2558  0.0829 -0.0067
 1363W        W20897  12.440  18.184  13.446 -0.0491 -0.0823  0.2687
 1364W        W20898  15.235  12.791  11.736 -0.4396 -0.3165  0.0481
 1365W        W20899   6.480   8.156   2.485 -0.1230  0.1610 -0.0447
 1366W        W20900   2.639   3.617   2.452 -0.1443 -0.0039 -0.1002
 1367W        W20901  19.530  16.681  12.949 -0.0276  0.1821  0.0214
 1368W        W20902  12.406   7.773  13.242  0.1851  0.2033 -0.3290
 1369W        W20903   5.434  14.336   3.701  0.0991 -0.2636  0.1374
 1370W        W20904  10.153   9.087  10.710 -0.1698 -0.3707  0.1093
 1371W        W20905  11.055  13.321   2.409 -0.2356  0.2876  0.1865
 1372W        W20906   0.236   6.277   2.304  0.1956  0.2847  0.2600
 1373W        W20907  12.006   4.835   2.837  0.1642  0.2111  0.1865
 1374W        W20908   8.803  16.369   4.659 -0.1095 -0.0054 -0.1170
 1375W        W20909  16.202  18.512  13.573 -0.1877  0.3158 -0.2800
 1376W        W20910   3.946  10.280  10.403 -0.3535 -0.0634 -0.1011
 1377W        W20911  16.206   9.810   1.128 -0.0662  0.3105 -0.1713
 1378W        W20912  10.575  13.462  13.527  0.0321 -0.1748 -0.3675
 1379W        W20913  12.806   9.749  12.848  0.0356 -0.1694  0.3068
 1380W        W20914   2.601  12.895   3.189 -0.3344 -0.1517  0.2715
 1381W        W20915   6.082   2.118  10.389  0.1566  0.2534 -0.0912
 1382W        W20916   8.806   8.239   2.550 -0.3079 -0.3343 -0.1257
 1383W        W20917  11.037  18.394  13.496  0.2581  0.0752 -0.0249
 1384W        W20918  11.121   6.006   3.446 -0.0937  0.1856  0.2684
 1385W        W20919   0.926   1.762   9.735 -0.1904 -0.1040  0.2519
 1386W        W20920   6.652  19.487   9.620  0.1429  0.0317 -0.0177
 1387W        W20921   5.796  14.250   0.107 -0.0916 -0.0972  0.4933
 1388W        W20922   5.482  17.510  12.636  0.1385  0.1089  0.1069
 1389W        W20923   3.994   4.572  14.074  0.1984 -0.1461  0.2015
 1390W        W20924   5.295  10.146   2.751  0.2258  0.3311  0.0913
 1391W        W20925   6.422  16.806   2.847 -0.0041 -0.1045 -0.1336
 1392W        W20926  17.496   5.921  12.782 -0.0321 -0.4222  0.1389
 1393W        W20927  17.615   2.703   1.363 -0.5812 -0.1607 -0.0353
 1394W        W20928  11.781   3.375   0.643 -0.2283 -0.0732  0.1946
 1395W        W20929  11.619  11.088   2.109  0.3392  0.2733 -0.1485
 1396W        W20930   0.926   5.887  13.648  0.1334  0.1914  0.0584
 1397W        W20931  11.503  12.160   4.012 -0.0441  0.0821 -0.0567
 1398W        W20932   8.447  14.639  10.528  0.2852  0.2404  0.1491
 1399W        W20933  13.939  16.630  14.301  0.1977 -0.0460  0.0836
 1400W        W20934   7.874   2.424   2.783  0.2484 -0.0501  0.0446
 1401W        W20935   6.221   3.257   2.152 -0.1246  0.0399 -0.1188
 1402W        W20936   9.017  15.892   4.760  0.1808 -0.1090  0.1755
 1403W        W20937  17.204   4.551   1.753  0.1507 -0.0656 -0.2140
 1404W        W20938  17.675   5.417  12.529  0.1212  0.1606  0.0985
 1405W        W20939  12.287   8.925   3.973 -0.2128  0.0830  0.1362
 1406W        W20940  19.046   4.552  11.513 -0.3716  0.0086 -0.2513
 1407W        W20941  18.478  12.071  12.415  0.2860  0.0848 -0.2377
 1408W        W20942  18.524   6.955  10.956 -0.0228  0.1797  0.0849
 1409W        W20943  13.403  17.731  12.853 -0.0799 -0.0791  0.0115
 1410W        W20944   5.592  12.094   4.093 -0.0574 -0.0629  0.2937
 1411W        W20945   8.744  17.491  11.709 -0.0469  0.2480 -0.0477
 1412W        W20946  10.778   7.274   0.590  0.0520 -0.0413 -0.1730
 1413W        W20947  15.974  15.550  11.210  0.2073 -0.2354 -0.0794
 1414W        W20948   6.222  10.659   2.557  0.2094 -0.1610 -0.2375
 1415W        W20949   8.484  18.770  12.659 -0.1396 -0.1945 -0.0812
 1416W        W20950  13.307   4.992   1.381 -0.0637 -0.0408 -0.1630
 1417W        W20951   8.382   0.139  13.124 -0.0995 -0.2186 -0.2440
 1418W        W20952  18.622  18.347  12.661 -0.0329 -0.0654 -0.2147
 1419W        W20953   0.352  13.987  13.795  0.0622  0.4412 -0.2246
 1420W        W20954  11.438  16.935   1.686 -0.2414  0.0092 -0.1583
 1421W        W20955   4.057   6.345   1.770 -0.0947  0.0404  0.2194
 1422W        W20956   0.331  19.327   1.867  0.2888 -0.0887 -0.2985
 1423W        W20957  12.639   7.097   2.870  0.0354  0.0497  0.2109
 1424W        W20958   4.337   8.779  14.005 -0.0039 -0.2944 -0.3152
 1425W        W20959  17.577   3.976  14.270 -0.2696  0.2598  0.1168
 1426W        W20960  17.236   2.521  13.213 -0.2704 -0.0649  0.0312
 1427W        W20961   4.635  11.063  12.141 -0.3613  0.0470  0.1032
 1428W        W20962   9.445  16.068   3.896 -0.1278 -0.2103  0.0501
 1429W        W20963  16.896   2.646   1.845  0.3817  0.1376  0.0723
 1430W        W20964   3.933  11.809   0.801 -0.1830 -0.3752 -0.0172
 1431W        W20965  11.330  15.397  13.227 -0.1170  0.0037 -0.1576
 1432W        W20966   7.303   0.475   0.768  0.1826 -0.0562  0.1771
 1433W        W20967   6.520   4.017   0.903 -0.3303 -0.0812 -0.2599
 1434W        W20968  12.583  19.370   0.163 -0.1581 -0.0252 -0.1512
 1435W        W20969  15.346  14.692  13.898 -0.0834 -0.1022  0.3945
 1436W        W20970  19.374   3.972   3.521  0.0660  0.1531  0.1165
 1437W        W20971   1.160  15.093  13.861  0.1873  0.0028  0.1744
 1438W        W20972   3.580  11.269   3.577  0.2102 -0.1156  0.0433
 1439W        W20973   1.615   5.449  11.910 -0.1707  0.0270  0.1580
 1440W        W20974  18.582  14.323  13.961  0.0410  0.0043 -0.1165
 1441W        W20975  13.606  15.103   2.491  0.2721  0.1099 -0.3933
 1442W        W20976   2.722   1.397  12.950 -0.1938 -0.1309 -0.2161
 1443W        W20977   1.021  12.694   2.399 -0.0764 -0.1613  0.0096
 1444W        W20978  10.426  15.072   3.879 -0.3745 -0.2533  0.0167
 1445W        W20979   2.673  10.223  13.237 -0.0110  0.3481 -0.0584
 1446W        W20980   9.337   3.324  14.332  0.1892 -0.0170 -0.3942
 1447W        W20981   3.507   7.096  11.926  0.4901 -0.3955  0.1737
 1448W        W20982  16.436  12.743  14.250  0.4085  0.1894  0.1584
 1449W        W20983   1.118   7.882   3.231 -0.1009  0.1144  0.1295
 1450W        W20984   9.536   8.843   1.807  0.1103 -0.0428  0.1390
 1451W        W20985   7.214   0.791  11.525 -0.1516 -0.1000 -0.1440
 1452W        W20986  16.686   5.562  12.752 -0.3437 -0.1475 -0.1542
 1453W        W20987   9.624  17.994   1.942  0.0478 -0.2607 -0.2968
 1454W        W20988  17.641  18.261   1.923 -0.3409  0.1798  0.4110
 1455W        W20989  18.167   5.645   2.058 -0.1201  0.0690  0.3846
 1456W        W20990   2.572   3.379  14.060  0.0165  0.1681 -0.3233
 1457W        W20991  12.476  17.458   3.885  0.0659 -0.0912 -0.0113
 1458W        W20992   8.173  16.652   1.678 -0.1949  0.1973 -0.0185
 1459W        W20993   8.729   6.926   3.842 -0.0126  0.0347 -0.0046
 1460W        W20994  10.548  14.558  12.748 -0.1163  0.0172 -0.0241
 1461W        W20995   3.571  14.130   9.434  0.3334 -0.2030  0.0804
 1462W        W20996  17.530   7.227   5.214  0.1662 -0.0584  0.0148
 1463W        W20997  14.874  10.989  11.026  0.0277  0.0188 -0.1016
 1464W        W20998  10.044   9.936  13.002 -0.0164  0.1964 -0.2820
 1465W        W20999  17.020  11.848  14.257  0.1150 -0.0230  0.2479
 1466W        W21000  15.149  13.571   4.570 -0.2851 -0.0039  0.1257
 1467W        W21001   5.035   6.211   3.530  0.1581 -0.3151  0.1172
 1468W        W21002   3.056   8.931   1.495 -0.0189  0.1174 -0.2133
 1469W        W21003  15.194   9.035   1.060  0.1245  0.0773 -0.0261
 1470W        W21004  14.046  10.462   1.749  0.1139  0.0049  0.2100
 1471W        W21005  18.706  17.875  11.008  0.0332 -0.0301  0.1188
 1472W        W21006  12.237  12.378   3.588  0.2812  0.2752 -0.4541
 1473W        W21007   4.718   2.207   0.656 -0.0872 -0.1324 -0.0449
 1474W        W21008  14.827   0.092  13.542 -0.2226 -0.0187 -0.4112
 1475W        W21009   4.397  18.068   2.590  0.0735  0.1739 -0.0679
 1476W        W21010  19.303   7.911   0.242 -0.2052 -0.1353  0.0942
 1477W        W21011  17.265  10.997  11.450 -0.2731  0.1100 -0.0320
 1478W        W21012  11.399  14.783   3.872 -0.0772  0.1401 -0.3351
 1479W        W21013  13.541  15.800   3.430  0.1873 -0.0403 -0.0450
 1480W        W21014  14.142  13.220   1.118 -0.2127  0.1575  0.5178
 1481W        W21015  10.783  17.000  10.914  0.2507  0.1155 -0.1373
 1482W        W21016   0.186   7.455   1.463  0.1140  0.1182  0.3893
 1483W        W21017  13.794   7.475   3.723  0.2115 -0.2000  0.1592
 1484W        W21018  14.365   9.198  12.299  0.2569 -0.1046 -0.0039
 1485W        W21019  13.942  14.920  11.229  0.2048  0.0718 -0.2042
 1486W        W21020  18.076   7.416   1.240 -0.1947  0.0603  0.0068
 1487W        W21021   2.691  19.195  14.056  0.2083 -0.0746  0.3673
 1488W        W21022   9.545   7.612   2.401  0.1298  0.0921 -0.0052
 1489W        W21023   0.616   1.336   1.173 -0.2653  0.1128  0.3417
 1490W        W21024  15.211   0.188  11.974  0.3651 -0.1583  0.0855
 1491W        W21025   8.530  17.395   4.921  0.1839  0.1400 -0.0764
 1492W        W21026  10.647  13.368   2.781 -0.2950  0.2080 -0.0936
 1493W        W21027   6.525  18.670   1.448 -0.2664 -0.0509 -0.3579
 1494W        W21028  18.602   0.522   3.510  0.1421  0.2232 -0.1254
 1495W        W21029   6.710   5.752  10.380  0.1174  0.1211  0.1602
 1496W        W21030   6.057   9.423   5.473  0.0615  0.1017  0.3121
 1497W        W21031  13.686   7.339   0.814  0.0784 -0.1079  0.4475
 1498W        W21032  13.515   4.970   2.705  0.2653 -0.1323  0.0736
 1499W        W21033   5.999  12.436   3.863  0.1373 -0.0675 -0.2070
 1500W        W21034   1.560  11.583  13.129  0.2622 -0.1462  0.2099
 1501W        W21035   7.046  10.601   1.911 -0.3907  0.1709 -0.1783
 1502W        W21036  18.421  14.718  12.164 -0.1479 -0.0578 -0.0269
 1503W        W21037  10.343   3.534  13.932 -0.0614  0.2904 -0.1725
 1504W        W21038  10.156  14.629   0.508 -0.4247 -0.1454  0.0409
 1505W        W21039  13.084   5.540   5.042 -0.0123 -0.2932  0.2465
 1506W        W21040   7.850   4.368  13.650 -0.0351  0.0845 -0.0616
 1507W        W21041   3.238  19.329   4.998 -0.3301 -0.4094 -0.1673
 1508W        W21042   2.784   6.680   2.783  0.0418 -0.1079 -0.0987
 1509W        W21043   5.474   3.480   1.639  0.1572  0.0284  0.1267
 1510W        W21044   7.147   1.678   2.658 -0.2639  0.0868 -0.3415
 1511W        W21045  19.228   8.929   3.616  0.1740 -0.0193  0.1424
 1512W        W21046  10.643   6.734  13.013  0.0401 -0.1095  0.0482
 1513W        W21047   1.779  19.149  12.202 -0.2714 -0.3843 -0.2175
 1514W        W21048   8.410   7.587   1.239  0.1113 -0.1619 -0.2967
 1515W        W21049  17.494   3.665   3.725 -0.0275 -0.0145 -0.1593
 1516W        W21050  10.734   9.762   0.297 -0.1532  0.3894 -0.1153
 1517W        W21051   3.719  15.982  12.745  0.1495  0.2796 -0.3108
 1518W        W21052   3.604   5.299  11.206  0.2169  0.0576 -0.0741
 1519W        W21053   4.422  11.591  12.601 -0.2346  0.3412 -0.1865
 1520W        W21054   4.927   3.038   3.316  0.3366  0.0410 -0.1604
 1521W        W21055  18.129   0.015  10.635  0.0291  0.0490  0.0170
 1522W        W21056   8.459   2.569   3.658  0.0537  0.2961  0.0766
 1523W        W21057  15.566   9.916   3.114  0.0556 -0.1567 -0.0960
 1524W        W21058   1.004  16.017   0.933 -0.0506 -0.2214  0.0865
 1525W        W21059   0.809   1.228   4.835  0.0034  0.0808 -0.2754
 1526W        W21060  13.735  12.520  11.226  0.1689 -0.1035 -0.1664
 1527W        W21061   9.523   7.593  11.800 -0.1780 -0.0478  0.1575
 1528W        W21062   2.595  16.684   0.805 -0.2819  0.1227  0.1040
 1529W        W21063  19.264   4.636   0.570  0.0755 -0.1936 -0.2318
 1530W        W21064  14.719   2.950  10.902 -0.3376  0.0232 -0.1092
 1531W        W21065  17.567  17.405  13.379  0.2295 -0.4260 -0.2446
 1532W        W21066   0.380   5.707  11.093 -0.0472  0.0531  0.0008
 1533W        W21067  14.480  10.422   0.741 -0.3246  0.5757  0.2018
 1534W        W21068  11.824  11.507  11.097  0.2526 -0.0828 -0.0977
 1535W        W21069   9.687   8.568   3.884 -0.0932 -0.2062 -0.0725
 1536W        W21070   5.567  10.347  11.852  0.0097 -0.1490 -0.0992
 1537W        W21071   6.398   4.356   4.202 -0.1716  0.0799  0.2764
 1538W        W21072   5.363  11.684   3.839 -0.3052  0.1715 -0.1825
 1539W        W21073  17.907   0.769  10.934  0.1072  0.4141  0.0175
 1540W        W21074  13.397  10.449  11.280 -0.0635 -0.2961  0.1250
 1541W        W21075   3.073  18.862   0.564 -0.1518  0.4298  0.1500
 1542W        W21076   2.120   5.726  10.373  0.0180  0.0420  0.0954
 1543W        W21077  11.385   4.127   3.776 -0.3396 -0.0218 -0.1877
 1544W        W21078  10.251  12.078   2.757  0.0694  0.1034 -0.0888
 1545W        W21079  12.749   9.143   4.037 -0.0924  0.1471 -0.4304
 1546W        W21080  12.466   5.865  11.148  0.0850  0.0584 -0.4502
 1547W        W21081  16.791  11.338   9.968  0.0121  0.0036  0.0681
 1548W        W21082   6.720  14.429  14.106 -0.1966  0.2590  0.2239
 1549W        W21083   6.585   0.264   3.927  0.1169  0.1563  0.3025
 1550W        W21084  13.793  16.500  10.841  0.0146  0.0549  0.1277
 1551W        W21085  11.049   5.564   3.197  0.2852 -0.0754  0.0228
 1552W        W21086   4.477  15.097  12.923 -0.2180 -0.1210 -0.2801
 1553W        W21087   1.857  16.357   1.661 -0.0734  0.2133 -0.2543
 1554W        W21088  17.203   2.473   5.468  0.0142 -0.3874  0.0565
 1555W        W21089   8.384  11.321   2.819  0.1466  0.1616  0.4031
 1556W        W21090   3.404   8.242  11.051  0.1395  0.3993 -0.1263
 1557W        W21091  14.879   1.510  10.849  0.1579 -0.0967 -0.4373
 1558W        W21092  16.150  17.238  10.632 -0.3019 -0.0655 -0.1450
 1559W        W21093  15.501   3.632   0.510  0.0339  0.1249 -0.2161
 1560W        W21094   3.475   5.253   2.591 -0.0750  0.2570 -0.0946
 1561W        W21095  12.082  11.841  13.549 -0.0050 -0.4102 -0.0112
 1562W        W21096  19.142   8.671  13.899  0.0353  0.1493 -0.0970
 1563W        W21097   1.990   4.122   3.378 -0.2643  0.0538  0.2062
 1564W        W21098   3.572   6.571   1.963 -0.1414  0.3796 -0.0137
 1565W        W21099   7.442   3.301  12.863 -0.0926 -0.0505 -0.4016
 1566W        W21100   3.390  14.908   1.863  0.0598 -0.1164  0.3008
 1567W        W21101  18.502  16.175   3.869 -0.2201  0.0540 -0.1044
 1568W        W21102  10.755   9.738   0.795 -0.2095  0.1045  0.0823
 1569W        W21103  19.125   4.885   1.895 -0.1313  0.0353 -0.1297
 1570W        W21104   2.084  12.025  13.916 -0.1062  0.0234  0.2916
 1571W        W21105   4.901  10.921   0.302  0.0590 -0.0081 -0.3408
 1572W        W21106  16.500   5.938   2.495 -0.0552 -0.0568 -0.1422
 1573W        W21107  14.261   6.443   3.319 -0.0330 -0.2756 -0.0686
 1574W        W21108  10.030  17.094   0.466 -0.0488 -0.1191 -0.2936
 1575W        W21109  14.970   4.938   3.483  0.0450  0.2943 -0.1515
 1576W        W21110   2.022   3.019   1.017  0.1211  0.0696  0.0700
 1577W        W21111   0.953   3.943   3.928 -0.1354  0.2384  0.3236
 1578W        W21112   3.227  14.950  12.859  0.1780 -0.2541  0.3393
 1579W        W21113  17.156  13.716   2.217 -0.1459 -0.2286  0.0170
 1580W        W21114   7.824  17.512   3.068  0.1370 -0.0092 -0.2573
 1581W        W21115  13.340   0.375   2.200  0.1513 -0.1237  0.1927
 1582W        W21116  18.233  10.308   3.166  0.2349 -0.0432 -0.0181
 1583W        W21117   4.100  18.186  11.682  0.2364  0.1087 -0.0205
 1584W        W21118   6.265   2.684  11.932 -0.1520  0.2508  0.0251
 1585W        W21119  13.140   4.016   1.701  0.4029 -0.1141 -0.0883
 1586W        W21120  12.948   9.700   4.101 -0.0445  0.0068 -0.0105
 1587W        W21121  11.559  17.258   4.875  0.1606 -0.2563 -0.1319
 1588W        W21122   2.303  18.386   0.408  0.0029  0.0498 -0.0880
 1589W        W21123  11.924   6.507   3.772  0.3681 -0.0251  0.5219
 1590W        W21124   1.517   3.494   0.183  0.3730 -0.3360 -0.2689
 1591W        W21125  14.597  19.418   2.494 -0.4001 -0.1493  0.1710
 1592W        W21126   0.765  11.411  10.403  0.1339 -0.0042 -0.1895
 1593W        W21127   3.266   8.585   2.662 -0.1495  0.2031  0.2126
 1594W        W21128  14.493  11.961  14.074  0.1271  0.1008 -0.0282
 1595W        W21129   2.057  14.633   2.559 -0.2136 -0.2035 -0.0245
 1596W        W21130   1.439   1.979  11.225 -0.0242  0.0333 -0.0912
 1597W        W21131  14.594  12.804  10.543 -0.2412 -0.0636 -0.1612
 1598W        W21132   5.748   7.204  12.053 -0.0327  0.4186  0.0506
 1599W        W21133   4.513   0.096  10.878 -0.0052  0.1553  0.2089
 1600W        W21134  14.278   9.989  12.317 -0.1811 -0.1122  0.0256
 1601W        W21135  17.064  12.821  11.713  0.0357  0.1392 -0.2284
 1602W        W21136  14.213  14.452   3.878  0.2794 -0.2170 -0.1200
 1603W        W21137  12.123  14.761   2.341 -0.1466  0.1888 -0.0255
 1604W        W21138   2.584  19.408   4.270  0.1419 -0.0795 -0.0921
 1605W        W21139   6.976   0.507   3.929  0.1071  0.3715 -0.0784
 1606W        W21140  13.882  16.154  11.915 -0.2005 -0.1738  0.1176
 1607W        W21141  13.980   7.062  10.574 -0.1583 -0.2437  0.1147
 1608W        W21142   4.036   0.022   2.939  0.2317 -0.1484 -0.0570
 1609W        W21143  13.259   0.247   1.140 -0.0208  0.1577 -0.1561
 1610W        W21144   1.519  12.050  12.775  0.2144 -0.0203  0.0867
 1611W        W21145  18.194   6.007  13.267 -0.1548  0.1907  0.1883
 1612W        W21146   5.908   5.349   1.644  0.2135  0.0857 -0.1603
 1613W        W21147  14.776  16.187   3.370 -0.4410  0.4923  0.1809
 1614W        W21148  10.070  12.561  13.268 -0.0211  0.1164 -0.1472
 1615W        W21149  15.425  11.042   3.652  0.0267  0.0300  0.0965
 1616W        W21150  16.659   5.343   0.136  0.2508  0.0717 -0.3313
 1617W        W21151   8.535   4.202  13.501  0.0779  0.4314 -0.0388
 1618W        W21152  14.521  16.363  13.086 -0.1409 -0.2978  0.0664
 1619W        W21153  10.729  16.681  10.282 -0.1420 -0.2807  0.1435
 1620W        W21154  12.538   5.411   1.443  0.2027  0.2056  0.0422
 1621W        W21155  10.083  18.701   3.551  0.0233 -0.1282  0.1174
 1622W        W21156  12.904  17.162   3.867  0.2655 -0.0004  0.1076
 1623W        W21157   3.793   0.902   4.366  0.3434 -0.0488  0.1471
 1624W        W21158  14.866   3.142   0.148 -0.3888 -0.1561  0.0886
 1625W        W21159   1.424  12.664   1.314  0.2560  0.2326 -0.0100
 1626W        W21160  13.006   4.246  13.034  0.2005  0.1903 -0.2162
 1627W        W21161  11.576   6.826   2.827  0.0757 -0.1415 -0.2354
 1628W        W21162   9.089  12.823  10.474  0.2027 -0.1971  0.2871
 1629W        W21163  16.771   6.726  13.885 -0.2546  0.0485  0.1306
 1630W        W21164   5.675  14.074  12.913  0.0700 -0.3380 -0.1672
 1631W        W21165   3.129   3.970   2.810  0.2157  0.2435 -0.1745
 1632W        W21166  12.478   2.400  13.366 -0.0925  0.1579 -0.0249
 1633W        W21167  14.353  18.703   2.737  0.3795 -0.2269  0.0071
 1634W        W21168   4.987  11.071   1.296  0.1722 -0.2517  0.2034
 1635W        W21169   1.225  15.752  10.593 -0.1527 -0.1073  0.0924
 1636W        W21170  18.919  15.403   0.018 -0.0891  0.0154 -0.1336
 1637W        W21171   8.674   9.468   4.231 -0.0722  0.2204  0.1526
 1638W        W21172  19.153   2.429   3.638  0.1608  0.0097 -0.1290
 1639W        W21173  11.150   7.829  13.453 -0.0681  0.1745  0.1242
 1640W        W21174   4.041  12.127  12.535  0.0338 -0.1444 -0.0083
 1641W        W21175  17.230   4.503   2.818  0.0595  0.0093  0.0324
 1642W        W21176   6.094   8.824   0.459  0.0707  0.1317 -0.1524
 1643W        W21177   9.883  13.138   2.807  0.5204  0.4747  0.0171
 1644W        W21178  14.280   2.864  13.324  0.2036 -0.3852  0.4168
 1645W        W21179   3.326  11.200   4.341 -0.0804  0.1827 -0.1997
 1646W        W21180   2.673  14.966   3.054  0.3000 -0.1731 -0.2199
 1647W        W21181   1.074  15.072   0.023 -0.2116 -0.1519 -0.2487
 1648W        W21182   9.119  16.732   1.739  0.2025  0.1025  0.2718
 1649W        W21183  17.800   8.186   2.083  0.5159 -0.1471  0.1356
 1650W        W21184   5.587  15.964   3.365 -0.3425  0.0351 -0.0004
 1651W        W21185  13.974  19.175  13.949 -0.3191 -0.0051 -0.0342
 1652W        W21186   6.026  14.637   3.583  0.3694  0.2461 -0.1644
 1653W        W21187   9.618   6.627  11.517  0.0747 -0.1927  0.0421
 1654W        W21188  14.270  15.281   3.299  0.3625 -0.1360 -0.0678
 1655W        W21189  17.384  16.533   2.395 -0.1218  0.0664 -0.0015
 1656W        W21190  16.845   8.333  11.504 -0.1180 -0.1845 -0.0785
 1657W        W21191   5.357  19.324   0.705 -0.1360 -0.0511  0.0351
 1658W        W21192   9.496  12.922   2.472 -0.0429 -0.1198  0.0298
 1659W        W21193   8.960  13.806  12.158 -0.1398  0.4163  0.0345
 1660W        W21194   9.224  12.959   3.524 -0.2464  0.1791  0.1016
 1661W        W21195  12.132  16.206   2.646  0.1937  0.3266  0.0872
 1662W        W21196   9.428   7.047   0.838  0.3343 -0.1644 -0.0138
 1663W        W21197   1.841   9.088   1.334 -0.0160 -0.0298 -0.0058
 1664W        W21198   2.997   8.183   3.687  0.0131 -0.0106  0.4491
 1665W        W21199  16.632   3.103   1.887 -0.0120 -0.3683 -0.0827
 1666W        W21200   1.168  16.315   3.456 -0.0945  0.0110  0.1418
 1667W        W21201  15.103   8.709   3.205  0.1628 -0.1979 -0.0146
 1668W        W21202   7.655   7.357   1.572 -0.3147  0.3430 -0.0266
 1669W        W21203  12.387   7.748  11.012  0.0477  0.0993 -0.1550
 1670W        W21204  11.791  18.195  12.293  0.0086 -0.3151 -0.0151
 1671W        W21205   6.548   0.376   0.156 -0.2811  0.1867  0.2347
 1672W        W21206   1.369  17.964   3.575 -0.1228  0.0214  0.1224
 1673W        W21207  10.939   4.171  10.665 -0.0606 -0.0668 -0.1361
 1674W        W21208  18.038  12.807  12.161 -0.1058 -0.1433  0.1212
 1675W        W21209   7.499   9.284   0.174 -0.1207 -0.0561 -0.1567
 1676W        W21210   5.335  15.434   4.117 -0.1929  0.3077  0.2923
 1677W        W21211   2.983  16.408   3.197  0.3787 -0.4028  0.0668
 1678W        W21212  18.852   4.619  14.252 -0.0826  0.1823  0.0403
 1679W        W21213   9.014  17.019   2.911 -0.7676 -0.0703 -0.1749
 1680W        W21214  17.189  13.005  13.306 -0.0381 -0.0813  0.3097
 1681W        W21215   8.162  15.928  10.522  0.0171  0.3845 -0.2253
 1682W        W21216   3.939  17.774   3.406  0.1229 -0.1193 -0.1111
 1683W        W21217  11.946  18.651  12.137 -0.0784  0.1187  0.1580
 1684W        W21218   0.935   2.300   3.356 -0.0228  0.1639 -0.0336
 1685W        W21219   9.982  10.134   3.426  0.0122  0.1143 -0.0958
 1686W        W21220   3.255  11.397  10.619 -0.2356  0.1858  0.0738
 1687W        W21221  13.955  15.918  11.489  0.4017  0.1692 -0.0402
 1688W        W21222  10.859  11.497   1.561  0.0346 -0.0161 -0.0552
 1689W        W21223  11.415  13.217  12.306 -0.3171  0.2089  0.1768
 1690W        W21224   2.965  13.790  13.255 -0.0169  0.0515  0.1024
 1691W        W21225  16.702   2.229   3.612 -0.0352  0.1458 -0.1149
 1692W        W21226   9.239   8.502  13.086  0.3759  0.2831  0.1362
 1693W        W21227   3.119  17.604  12.340  0.5999  0.0471 -0.2550
 1694W        W21228   0.829   5.805   0.280  0.1978 -0.1742  0.4633
 1695W        W21229   4.217  17.956  13.016  0.4380  0.0858 -0.0751
 1696W        W21230  19.453   1.771   1.509 -0.2370 -0.3297  0.2802
 1697W        W21231  14.573  15.288   2.629  0.0340  0.0442 -0.1902
 1698W        W21232   0.570  11.081  10.910 -0.0931  0.0770 -0.1985
 1699W        W21233  15.097   1.969   2.210  0.0149 -0.4548 -0.2064
 1700W        W21234  13.619   9.148  13.904  0.3091 -0.0531  0.0262
 1701W        W21235   4.665   6.403   3.805  0.0432 -0.3178  0.1185
 1702W        W21236   8.823   3.801  12.857  0.0848  0.3832 -0.1150
 1703W        W21237  18.510   6.415  13.068 -0.2256  0.0024  0.1157
 1704W        W21238   4.651   7.592  12.627  0.1528  0.2478 -0.3063
 1705W        W21239  10.586  11.147   1.227  0.0326  0.0017 -0.1931
 1706W        W21240   3.881  14.114   1.422  0.2204 -0.0512 -0.0644
 1707W        W21241  13.382  13.915   3.061 -0.1091  0.2974 -0.2465
 1708W        W21242  15.820  19.436   0.278  0.0029  0.0883  0.1816
 1709W        W21243  14.287   0.988  13.273 -0.0871 -0.1772 -0.0776
 1710W        W21244   6.439   0.834   2.248 -0.1483  0.1647 -0.0335
 1711W        W21245   6.454   5.769  12.628  0.2611 -0.0780 -0.0123
 1712W        W21246   1.663   6.641  13.087  0.1169 -0.3559 -0.0352
 1713W        W21247   8.758   2.158   3.402 -0.1730 -0.1065 -0.3348
 1714W        W21248   7.794   9.070   1.190 -0.1013 -0.2659  0.2408
 1715W        W21249  13.235   1.219  13.632 -0.0022  0.0034  0.4747
 1716W        W21250   9.190   0.475   2.892 -0.1188  0.1327  0.0116
 1717W        W21251   5.661   9.068  13.625 -0.3465 -0.1243 -0.1112
 1718W        W21252   5.599   7.783   2.016  0.2907  0.0079 -0.0732
 1719W        W21253  15.381  18.329  10.566 -0.0163  0.2540 -0.2547
 1720W        W21254  10.664  14.303   3.141  0.1923  0.1364  0.0589
 1721W        W21255   4.621   4.296   3.197  0.2440 -0.0150 -0.5117
 1722W        W21256  12.127  13.025  12.835  0.3479  0.1496 -0.0728
 1723W        W21257  15.769   9.197  13.864 -0.1315 -0.1607 -0.0385
 1724W        W21258   7.848   2.099   1.298 -0.0658  0.1134  0.1499
 1725W        W21259  13.328   0.139  12.306 -0.0308  0.0179  0.1091
 1726W        W21260   3.270  10.034  11.959  0.0146 -0.1306  0.1398
 1727W        W21261  19.256  13.998  11.946  0.1883 -0.2751  0.1265
 1728W        W21262   2.658  16.280  10.362  0.0262  0.0797 -0.2910
 1729W        W21263   6.032  18.459  13.532 -0.0191  0.1711  0.2463
 1730W        W21264   3.869   4.097  13.037  0.0454  0.1180  0.0614
 1731W        W21265  19.277  15.418   3.757 -0.2265  0.0151 -0.1043
 1732W        W21266   7.724   9.427  11.779  0.2680  0.2589  0.2382
 1733W        W21267  19.504   2.757  10.581  0.0547  0.0314 -0.1137
 1734W        W21268  11.705   2.611   3.771  0.2180 -0.0587 -0.2219
 1735W        W21269   6.778  19.215   2.108  0.0898  0.1204  0.0984
 1736W        W21270   8.866   5.508   3.686 -0.0243  0.1904 -0.3274
 1737W        W21271  10.144   2.393  12.447 -0.0278  0.3418 -0.1218
 1738W        W21272   0.697  15.227  12.130 -0.0121  0.1659  0.2414
 1739W        W21273   1.134  15.718  13.648 -0.1954 -0.0021 -0.1612
 1740W        W21274  14.297  16.269   3.373  0.1801  0.2484 -0.6063
 1741W        W21275  19.169  15.974  11.895 -0.0394 -0.1948  0.1089
 1742W        W21276  13.280  17.910   3.513  0.3684  0.2549 -0.2338
 1743W        W21277  14.388  14.797  11.438 -0.1004  0.0213  0.0785
 1744W        W21278  10.810   6.608  11.203 -0.1913 -0.1774 -0.2170
 1745W        W21279  11.730  19.139  11.962  0.3422  0.2672 -0.1941
 1746W        W21280  16.640  11.396   3.041  0.0482  0.2169  0.0886
 1747W        W21281   6.715   9.034   3.333  0.1148 -0.2857  0.2282
 1748W        W21282  10.479   6.423   2.570 -0.1425  0.2750  0.0954
 1749W        W21283   4.501   9.320  10.737  0.1940  0.0640 -0.1085
 1750W        W21284   2.906   8.428   1.359 -0.2069 -0.1008 -0.0539
 1751W        W21285  10.978   7.604  13.885 -0.1080  0.0328  0.2329
 1752W        W21286  12.455   6.172  10.176 -0.2062  0.0232  0.1667
 1753W        W21287   9.850  14.271   1.416 -0.2574 -0.1942 -0.0416
 1754W        W21288  17.964  14.441  10.708  0.0429 -0.1217 -0.1257
 1755W        W21289  19.377   1.270   0.293  0.1601 -0.0655  0.1401
 1756W        W21290   3.112  14.416   4.354  0.2669  0.2517 -0.0820
 1757W        W21291   0.618   9.452   1.352 -0.2022 -0.1087  0.3313
 1758W        W21292  15.290  19.284  12.274  0.0858  0.0576  0.0451
 1759W        W21293   7.833   5.005   0.561 -0.1568  0.0523 -0.0938
 1760W        W21294   3.008  17.412   9.947  0.1066 -0.0809  0.0388
 1761W        W21295  17.215  12.131   0.454  0.2019 -0.1121  0.3962
 1762W        W21296   9.529   6.927  10.270  0.2091  0.0230 -0.1647
 1763W        W21297  12.481  18.288   1.554  0.0278  0.3173 -0.1520
 1764W        W21298  12.856   7.764  12.125 -0.0791  0.0149  0.0410
 1765W        W21299  11.160   2.448   2.926 -0.0851 -0.2248  0.0700
 1766W        W21300  14.831   1.936  13.168  0.0656  0.0242  0.0978
 1767W        W21301   5.613  11.535  10.775 -0.2479 -0.3129  0.0852
 1768W        W21302  16.673  15.885  12.404  0.0868 -0.1522  0.1695
 1769W        W21303  13.497  13.664   2.253 -0.0352 -0.4081 -0.2460
 1770W        W21304  13.770   1.434   9.880 -0.0559 -0.1287 -0.0774
 1771W        W21305   6.906   8.480   2.544  0.0407  0.0967  0.1395
 1772W        W21306   7.458  10.258  11.709 -0.0649  0.2599  0.0760
 1773W        W21307  11.758  15.866   1.223 -0.1624 -0.3822  0.1861
 1774W        W21308  12.559  13.522  11.003  0.1686 -0.1332 -0.2654
 1775W        W21309  14.549  13.040  13.875  0.1183 -0.0681  0.2452
 1776W        W21310  11.122   6.578   1.602  0.1653 -0.0149 -0.1303
 1777W        W21311   9.284   9.358   4.277 -0.3782  0.0534  0.2508
 1778W        W21312  12.826  18.114   0.078  0.0708  0.4392 -0.1442
 1779W        W21313   2.058   5.791  12.074  0.1921  0.2244  0.1042
 1780W        W21314  17.631   9.259   3.424  0.3018 -0.1973  0.4322
 1781W        W21315   1.528  17.864  13.815 -0.0617 -0.2224 -0.0641
 1782W        W21316  11.688   9.108   2.268  0.2878 -0.3460  0.0699
 1783W        W21317  18.629  17.755   3.955 -0.0761  0.0177  0.2020
 1784W        W21318  13.977   4.515   2.106  0.0025  0.0027 -0.1753
 1785W        W21319  18.767   5.588  12.609  0.1181 -0.1230  0.1494
 1786W        W21320  10.572   5.126  13.116 -0.2253 -0.0030  0.0764
 1787W        W21321   2.410   8.856   2.204  0.1009 -0.1581  0.2230
 1788W        W21322  13.202  16.836  12.073  0.2378  0.0775  0.2212
 1789W        W21323  10.260   7.753  13.051 -0.1336 -0.2975  0.0770
 1790W        W21324   8.410   3.831   0.725  0.3308  0.0692  0.2134
 1791W        W21325  18.861   1.180   0.295  0.0173 -0.5609  0.1570
 1792W        W21326   1.325  19.102   0.018 -0.1257 -0.1618  0.3075
 1793W        W21327   5.102   3.993  13.586  0.2357 -0.4473 -0.0256
 1794W        W21328   9.739   0.112   4.924 -0.1772 -0.0905 -0.2185
 1795W        W21329  16.441   1.246   0.887  0.2003  0.0696 -0.1266
 1796W        W21330   5.423  19.196  13.730  0.2496 -0.1206  0.2199
 1797W        W21331  13.157  10.453  10.863 -0.1222  0.0541 -0.2171
 1798W        W21332   1.955   1.623   1.134 -0.0298 -0.1404  0.4279
 1799W        W21333   9.726  18.353  10.310  0.2556 -0.1027  0.3154
 1800W        W21334  17.073   2.399  12.301  0.1429 -0.3612  0.2160
 1801W        W21335  16.834  14.539  13.828  0.1971  0.3719 -0.1890
 1802W        W21336  12.802   6.816   1.515 -0.0099  0.0618  0.3322
 1803W        W21337   3.741   1.051   1.744 -0.0267  0.1261 -0.0055
 1804W        W21338   7.132   0.971  10.069  0.1382  0.1510 -0.1451
 1805W        W21339  12.980  14.005   1.328  0.1136 -0.0665  0.4178
 1806W        W21340  10.191   2.969  13.823 -0.2418  0.2183  0.0347
 1807W        W21341  18.426   2.947  12.314  0.1258  0.2962  0.1007
 1808W        W21342   5.031   3.070   2.211 -0.1659 -0.0733 -0.2293
 1809W        W21343   2.437   4.294  11.856  0.1668 -0.2230  0.3081
 1810W        W21344  13.118  17.380  12.516 -0.3848  0.0549 -0.1957
 1811W        W21345  17.853   5.686  13.111 -0.0492  0.0302  0.0520
 1812W        W21346   5.473  14.301  11.268  0.4853  0.0830  0.3346
 1813W        W21347   5.057  10.493   2.961 -0.1859 -0.1862 -0.0349
 1814W        W21348  16.618  12.238  12.791  0.1201 -0.3627 -0.3890
 1815W        W21349   9.817  18.000   0.604 -0.0036  0.0315 -0.1138
 1816W        W21350  10.828  16.493   2.767 -0.0933 -0.2032 -0.0649
 1817W        W21351  11.536  13.694  12.479  0.1558  0.2345  0.5165
 1818W        W21352  15.823   5.212   3.360 -0.2039  0.3227  0.1396
 1819W        W21353   2.419  10.021  12.259 -0.1148 -0.0595 -0.0576
 1820W        W21354  19.345   1.707   0.502  0.0927 -0.0062  0.0407
 1821W        W21355   2.433  17.849   2.649 -0.1813  0.3797 -0.0922
 1822W        W21356   1.534  12.076   0.678 -0.0604 -0.1868 -0.1491
 1823W        W21357   3.076   1.502   3.614  0.2087 -0.0556 -0.2164
 1824W        W21358  14.967  10.392  12.460 -0.2188  0.0611  0.3431
 1825W        W21359  15.146  15.526  12.767  0.0125 -0.0246 -0.1069
 1826W        W21360   9.938   4.433   4.992 -0.2380  0.0653 -0.3131
 1827W        W21361   9.730   8.058  13.853  0.0044  0.2499  0.0178
 1828W        W21362   6.972  15.856  13.610 -0.0154 -0.0250  0.1028
 1829W        W21363   3.526   5.869   1.376 -0.1341 -0.2300  0.2190
 1830W        W21364   1.819   1.593   0.296 -0.4061  0.2260 -0.2612
 1831W        W21365   5.687   5.465  12.102  0.0006 -0.0680 -0.0533
 1832W        W21366   8.985  16.068  13.044 -0.1123  0.0479 -0.0160
 1833W        W21367   0.582   1.136   3.616  0.0716  0.3388 -0.0314
 1834W        W21368  16.803   6.811  10.923 -0.0661  0.3324  0.0449
 1835W        W21369   9.469   4.399  12.363 -0.0253  0.1794  0.0376
 1836W        W21370  19.186   6.743   1.078 -0.0087 -0.1418  0.0671
 1837W        W21371   3.348   5.800  11.815 -0.2451 -0.1607 -0.0021
 1838W        W21372   1.949  14.822  12.824  0.2476 -0.1588  0.2470
 1839W        W21373  18.530  11.493   0.501  0.0486 -0.2112  0.0341
 1840W        W21374   2.833   2.335   1.941  0.0213  0.1380  0.0681
 1841W        W21375  18.417   7.296   4.839 -0.0610  0.3719 -0.0851
 1842W        W21376   1.697  17.302   9.540 -0.0035 -0.1841  0.0731
 1843W        W21377   7.184  11.204   0.491  0.5353 -0.1006  0.1059
 1844W        W21378   7.814   8.133   1.655 -0.2299  0.1863 -0.3785
 1845W        W21379   5.805  16.735   3.826  0.0447 -0.0839 -0.0454
 1846W        W21380  15.400  11.879   0.013 -0.0090 -0.3254  0.0474
 1847W        W21381   8.181   1.022   3.138 -0.0812 -0.0163 -0.0831
 1848W        W21382   1.180  13.429   0.423  0.0438 -0.2119  0.1148
 1849W        W21383   0.107   5.184   1.916  0.2102 -0.0577  0.0095
 1850W        W21384  14.998  15.693   0.197  0.1640 -0.0914  0.1814
 1851W        W21385  14.348  14.003  12.562 -0.0463  0.2474 -0.0938
 1852W        W21386   4.417   9.544  12.396  0.2805 -0.0113 -0.0236
 1853W        W21387   7.763  11.006   0.755  0.0853  0.0514 -0.1289
 1854W        W21388   2.744  11.565   4.350 -0.1635 -0.0961 -0.1197
 1855W        W21389  10.053  17.896   2.179 -0.4802  0.0690  0.1769
 1856W        W21390  14.934  12.385   3.242 -0.3508  0.0491 -0.0193
 1857W        W21391   1.610  16.805  14.342 -0.0169  0.0863  0.2403
 1858W        W21392   9.391  12.372  10.509  0.1909  0.0285 -0.0721
 1859W        W21393   9.340  18.984   0.530 -0.0242 -0.0930  0.0652
 1860W        W21394  10.761  15.522   2.220 -0.1100 -0.1036 -0.2611
 1861W        W21395   4.353  15.740   3.460 -0.1069  0.0049 -0.0725
 1862W        W21396   3.645   4.971  10.190 -0.1724  0.0770  0.1695
 1863W        W21397  17.615  19.376  10.721 -0.0771  0.0393 -0.0395
 1864W        W21398  16.734   6.067   2.938 -0.0785  0.5712  0.2809
 1865W        W21399  11.776  11.237   1.116 -0.1414 -0.4152 -0.0625
 1866W        W21400  16.919  13.372  11.013  0.0574  0.1373 -0.0154
 1867W        W21401  16.416   0.839  14.171  0.1030  0.1429  0.0782
 1868W        W21402  10.708  14.995  11.216 -0.0079 -0.2578 -0.1092
 1869W        W21403   9.887   8.273   0.497 -0.0319  0.3480  0.4671
 1870W        W21404  14.798  15.610   3.181 -0.2282 -0.2120  0.2762
 1871W        W21405  12.299   2.973  13.928 -0.0609 -0.0904 -0.1458
 1872W        W21406  10.636   3.811  11.102  0.1135 -0.0895  0.3312
 1873W        W21407  18.111   3.479   4.458 -0.0579  0.1335 -0.0664
 1874W        W21408   7.403  17.751  12.353  0.0054  0.0612 -0.1633
 1875W        W21409  15.743   5.159  11.871  0.0938  0.2151 -0.1943
 1876W        W21410  13.841   9.158  13.492 -0.0005 -0.2599  0.1000
 1877W        W21411   7.360   3.387  11.012 -0.2547  0.1911 -0.2511
 1878W        W21412  11.701   8.272  10.664 -0.0642  0.1178  0.0022
 1879W        W21413   9.162   5.359  12.406 -0.1977 -0.0259 -0.0375
 1880W        W21414  13.131   0.219  12.897 -0.4075 -0.3501 -0.1398
 1881W        W21415  10.962  12.940   9.426 -0.0081  0.3255 -0.0736
 1882W        W21416  17.335   2.109   2.351 -0.0353 -0.2716 -0.0946
 1883W        W21417  19.277   8.490   1.977 -0.2010 -0.2533  0.1509
 1884W        W21418  16.974   6.717   2.240  0.0885 -0.1560  0.2298
 1885W        W21419   7.332  10.732   0.521  0.1487 -0.0757 -0.2774
 1886W        W21420   9.481   4.547  13.569  0.3008  0.1454  0.0940
 1887W        W21421   6.853  10.848   0.295  0.0603  0.3558 -0.3223
 1888W        W21422   1.765  18.399   0.771 -0.4264  0.0363 -0.0146
 1889W        W21423  18.503   6.167   3.619  0.0210 -0.1674  0.0139
 1890W        W21424  17.506  14.278   9.131  0.2492  0.0090  0.0035
 1891W        W21425   8.042  13.107   1.152 -0.2477 -0.2896  0.1647
 1892W        W21426  11.178   8.832   0.602  0.0444  0.0651  0.0728
 1893W        W21427  10.258  12.261   0.974  0.1189  0.0800 -0.0305
 1894W        W21428   1.579   3.501   1.975  0.2192 -0.2699  0.2128
 1895W        W21429   3.181   5.436   0.050  0.0486  0.1505  0.0824
 1896W        W21430  13.580   2.560   0.724  0.5106  0.0583  0.1752
 1897W        W21431   3.415  15.658   0.149  0.1700 -0.0995 -0.1641
 1898W        W21432   6.843   5.495  14.042  0.1793 -0.0013  0.0191
 1899W        W21433  15.521   0.571   4.257 -0.0270 -0.1110  0.0483
 1900W        W21434   1.592  14.793   3.089  0.1345 -0.0489  0.0262
 1901W        W21435  18.372   9.272  10.378  0.0993 -0.0922 -0.1903
 1902W        W21436   0.751  16.346   3.758  0.0172 -0.1106 -0.3305
 1903W        W21437   2.403   8.874   3.247  0.1835  0.1231 -0.1541
 1904W        W21438   3.632   6.417  14.281 -0.0576 -0.3080 -0.1723
 1905W        W21439  11.085  15.292  11.257 -0.0868 -0.2329  0.0571
 1906W        W21440  18.498  10.816   3.211  0.1970 -0.1891  0.0715
 1907W        W21441   1.284  17.932   1.275  0.2901 -0.3864 -0.2346
 1908W        W21442   5.359  13.472   1.786  0.0163  0.1553  0.1347
 1909W        W21443  18.300  18.031   3.707 -0.3322 -0.0010 -0.0173
 1910W        W21444   4.151   3.575   3.595  0.1234 -0.1404  0.1690
 1911W        W21445  17.834  17.372  12.909  0.1929 -0.3539 -0.0937
 1912W        W21446  16.754   3.604  12.331  0.2106  0.2006 -0.2007
 1913W        W21447  12.416  13.823  13.465 -0.0008  0.1133 -0.2320
 1914W        W21448   2.413   3.787  14.305 -0.1546 -0.0663  0.2382
 1915W        W21449  11.187   9.927   0.491  0.2616 -0.1156 -0.0322
 1916W        W21450   7.367  13.225  13.741  0.2992 -0.0970 -0.0270
 1917W        W21451  15.791  10.506   1.545 -0.3789  0.4432  0.2080
 1918W        W21452   0.070  13.237   3.317  0.2869  0.1503 -0.0029
 1919W        W21453   4.615   8.718   0.123  0.0174  0.1674  0.0623
 1920W        W21454  19.468   4.265  13.086  0.0437  0.1834  0.1782
 1921W        W21455  12.671   2.688   2.982  0.0805 -0.0226 -0.1484
 1922W        W21456  15.294   8.212   3.305  0.2766 -0.0717  0.0025
 1923W        W21457  12.235   5.656   3.782 -0.2137 -0.2778 -0.2432
 1924W        W21458   6.480   5.364   0.986  0.0330  0.0645 -0.1516
 1925W        W21459   9.279   1.417  12.557  0.0281 -0.0186  0.0094
 1926W        W21460  18.334  11.689   3.634  0.0115 -0.1440  0.1472
 1927W        W21461   4.479   0.478   2.708 -0.1873  0.1515 -0.1188
 1928W        W21462  14.562  15.216   3.708  0.1100 -0.1363 -0.1204
 1929W        W21463  19.444  10.434   1.520  0.1916 -0.0684 -0.0328
 1930W        W21464   5.472   7.063   1.216  0.1053  0.1656  0.2292
 1931W        W21465   9.455  18.365  11.203 -0.1765  0.0524  0.0322
 1932W        W21466   4.415   4.735  13.734  0.1204  0.0972 -0.0160
 1933W        W21467   4.724   5.713   0.840 -0.0546 -0.0049 -0.1828
 1934W        W21468   3.454   9.119  11.721 -0.3065 -0.0983  0.1323
 1935W        W21469  12.394   3.587   2.194 -0.0598  0.2740 -0.0761
 1936W        W21470  10.219  12.735  10.096  0.2010 -0.0759 -0.3741
 1937W        W21471   6.721  10.762  10.832 -0.1954  0.0164 -0.0630
 1938W        W21472  15.555   8.470  12.040 -0.1413 -0.0818  0.2970
 1939W        W21473   1.054   7.485   1.962 -0.0103 -0.0981 -0.0607
 1940W        W21474   8.432  19.010   4.471 -0.1605 -0.0089 -0.0648
 1941W        W21475   3.119   5.923   3.748  0.1074  0.0734 -0.2865
 1942W        W21476   8.782   5.762   2.426 -0.3738  0.0250 -0.1669
 1943W        W21477   0.834   6.700   2.253 -0.3263  0.1065  0.1117
 1944W        W21478  11.797  11.746  12.979 -0.1177 -0.0510  0.1164
 1945W        W21479   7.232   2.030   5.298 -0.0962 -0.0719 -0.3660
 1946W        W21480  13.416  13.792  13.435 -0.0819  0.1877  0.3222
 1947W        W21481   2.093  18.501  13.277  0.1344 -0.2195 -0.2370
 1948W        W21482   0.046   5.475   1.275 -0.1003  0.0938  0.0996
 1949W        W21483  18.855  13.962   1.337  0.0198 -0.4403  0.3900
 1950W        W21484  16.037   4.828   3.062  0.0184 -0.0170 -0.2965
 1951W        W21485   1.479   1.205   4.979  0.1355 -0.1060  0.1487
 1952W        W21486   9.624   2.537  12.492  0.1908 -0.3616 -0.1257
 1953W        W21487  15.335   4.929   1.049  0.0148  0.1786  0.1745
 1954W        W21488   4.426   3.258  14.100 -0.2043  0.0139 -0.1581
 1955W        W21489  10.056   8.031  10.766 -0.4383  0.2786 -0.1054
 1956W        W21490   9.505  14.832   3.517  0.2276 -0.0513  0.2518
 1957W        W21491   8.471   4.487   3.493 -0.2788 -0.2385  0.2139
 1958W        W21492  13.931  10.492  13.809  0.0827 -0.0062  0.0203
 1959W        W21493   1.789  18.446   1.251 -0.0694  0.0297 -0.0972
 1960W        W21494   1.715  18.826  13.177  0.0596 -0.0826  0.0320
 1961W        W21495  15.745   9.191  10.579  0.1727  0.3547 -0.1318
 1962W        W21496  11.961  13.963   1.221  0.0492 -0.1971 -0.0494
 1963W        W21497   2.449  15.754  11.608 -0.1223  0.0333  0.1266
 1964W        W21498  16.213   3.337   1.010  0.0724  0.2614 -0.1009
 1965W        W21499   1.076   4.895  14.030  0.1649 -0.1191  0.0674
 1966W        W21500   9.474   4.395   4.354 -0.0031 -0.0476  0.2534
 1967W        W21501  16.785  14.108  13.084  0.2125  0.1022  0.1339
 1968W        W21502   3.872  16.732  11.026  0.0256 -0.4995 -0.0282
 1969W        W21503  15.314  19.516  12.765 -0.2749  0.0565 -0.0725
 1970W        W21504   1.362   7.355  10.973 -0.2032  0.0135 -0.3055
 1971W        W21505   9.426   1.477   0.854 -0.2202  0.0016 -0.3051
 1972W        W21506  14.615  17.784   1.149  0.0087  0.0787  0.0287
 1973W        W21507   6.714   3.852  12.187  0.0887  0.1289 -0.1668
 1974W        W21508   5.715  17.296  12.262 -0.1406 -0.1636 -0.0770
 1975W        W21509  12.214  19.043  14.217  0.2894  0.3456 -0.1121
 1976W        W21510  16.438   9.999  10.036  0.2587 -0.1316  0.1721
 1977W        W21511   5.043   0.515  12.610  0.2189 -0.2689  0.0871
 1978W        W21512  17.423  16.352  10.394  0.0483 -0.0168  0.2034
 1979W        W21513  10.301  12.943   2.645  0.3883  0.0171 -0.0201
 1980W        W21514   4.145  17.489  10.434  0.1038  0.0089  0.2601
 1981W        W21515  18.968  14.273  10.894 -0.1963  0.1477  0.0164
 1982W        W21516  15.241   3.245   1.445 -0.3031  0.1710 -0.0033
 1983W        W21517  11.288   2.667   0.184 -0.0966  0.0930  0.2193
 1984W        W21518  16.184   0.468  11.980 -0.0647  0.0564 -0.3897
 1985W        W21519   1.184   5.251  11.024  0.1293  0.2768  0.0844
 1986W        W21520  14.990   2.893  12.890  0.1921 -0.3789  0.0686
 1987W        W21521  14.038   6.284  10.474 -0.4796 -0.2649 -0.1210
 1988W        W21522  15.234  14.014  12.526 -0.0402  0.3348  0.1962
 1989W        W21523   8.237   1.907   4.236  0.2533 -0.1684 -0.0595
 1990W        W21524  11.760   2.651   0.307 -0.1200 -0.0461  0.0911
 1991W        W21525  15.452  18.632  11.421 -0.1000  0.0855  0.2583
 1992W        W21526  11.151   1.031  10.527  0.1550  0.0910 -0.1325
 1993W        W21527  18.691   3.143   2.348 -0.1024 -0.2652  0.1715
 1994W        W21528  12.688  17.663  11.404  0.3002  0.0611 -0.0366
 1995W        W21529  14.460  12.456  11.524  0.2936 -0.0026  0.2288
 1996W        W21530   8.847   2.893   0.802 -0.0557  0.0977  0.2079
 1997W        W21531   9.618  18.568  11.698 -0.1206 -0.2823  0.1532
 1998W        W21532   2.257   0.234   2.253  0.0731 -0.1567  0.1038
 1999W        W21533  13.599   3.498   3.361  0.0453  0.1532  0.0871
 2000W        W21534   0.006  11.784   1.341 -0.0760 -0.0734 -0.1994
 2001W        W21535   3.505  11.626  11.026  0.0249 -0.0497 -0.0738
 2002W        W21536  18.650   7.930  12.158 -0.2104 -0.1196 -0.1501
 2003W        W21537  19.158   2.831   2.152 -0.0566 -0.1695  0.4340
 2004W        W21538   3.614   3.479   3.499  0.0631  0.1003  0.1080
 2005W        W21539   6.765  15.063   3.518 -0.0037  0.4695  0.2168
 2006W        W21540   3.844   2.065  12.834  0.0379  0.0221  0.1180
 2007W        W21541   0.666   5.299   3.045 -0.0008 -0.1733 -0.1609
 2008W        W21542  18.422   4.397  12.902 -0.0260  0.1127  0.2188
 2009W        W21543  12.546   5.442   2.686 -0.0816 -0.0454  0.1308
 2010W        W21544   3.802   8.911  10.836 -0.1567  0.0490 -0.3985
 2011W        W21545   3.137   5.180   0.588 -0.1829 -0.1352  0.1557
 2012W        W21546   9.471  14.530  12.464  0.2822  0.5153  0.0161
 2013W        W21547   1.973  19.184  13.539  0.3365 -0.0210  0.0323
 2014W        W21548   5.496   8.471  12.380 -0.0767  0.3428  0.1015
 2015W        W21549   1.611  15.794   3.832 -0.0781 -0.2904  0.0749
 2016W        W21550  19.025  14.251   2.346  0.0948  0.1947  0.0674
 2017W        W21551   8.607  15.389   0.292 -0.0705  0.3785  0.0721
 2018W        W21552   0.289  10.753   4.078  0.3468  0.0487 -0.3080
 2019W        W21553   6.703  15.997   0.188  0.0031  0.1747 -0.1903
 2020W        W21554   3.636   6.969   1.575  0.2033 -0.1034  0.1513
 2021W        W21555   6.292   6.863  11.013  0.0630  0.2156 -0.3319
 2022W        W21556   1.127   1.026   1.002 -0.1738 -0.3675  0.0783
 2023W        W21557  11.744   0.981   1.249 -0.0284  0.0576  0.2362
 2024W        W21558  13.111   8.360   4.252 -0.0333 -0.0785 -0.0157
 2025W        W21559  17.543  16.703  11.221 -0.0761  0.0059  0.0263
 2026W        W21560  19.167   9.021  13.037  0.1205  0.0108  0.1043
 2027W        W21561  10.504   2.679  10.362  0.1621  0.1052  0.0827
 2028W        W21562  18.628  17.065  12.214  0.0441 -0.2328  0.0850
 2029W        W21563   5.125   0.908   0.294  0.0089  0.0305 -0.0508
 2030W        W21564   0.028   2.925   1.812  0.1262  0.4189 -0.0418
 2031W        W21565   7.261   6.615   2.625 -0.0326  0.0976  0.0891
 2032W        W21566   4.820  17.801  11.537 -0.0344  0.1757 -0.3593
 2033W        W21567  17.504  14.275   1.934  0.0606 -0.3051  0.2441
 2034W        W21568  16.395  18.149   1.516 -0.0336  0.1170 -0.0719
 2035W        W21569  17.281  11.491   3.726 -0.0076  0.1749  0.0065
 2036W        W21570   3.446  11.891  11.576 -0.2746 -0.2071  0.3352
 2037W        W21571  11.324  19.239   0.174  0.1630 -0.1399 -0.0106
 2038W        W21572   0.079   1.207  12.227  0.1427  0.0622  0.1214
 2039W        W21573  18.492   3.795   9.888 -0.2919 -0.0113 -0.1209
 2040W        W21574   3.850  17.112  10.297  0.0297 -0.1478 -0.0702
 2041W        W21575  13.067   1.897   1.648 -0.1171 -0.2238  0.0909
 2042W        W21576  17.533  11.899  13.109 -0.3905  0.3789  0.1656
 2043W        W21577   4.838  19.038   0.562  0.2573  0.2554  0.0712
 2044W        W21578  13.288   5.527  10.408  0.0670 -0.2653  0.1818
 2045W        W21579  16.548  16.693   3.795 -0.0366  0.2144 -0.0257
 2046W        W21580  15.739   2.863   3.847  0.1441 -0.2323  0.0287
 2047W        W21581   5.793  18.668   2.409  0.1329 -0.0307 -0.1148
 2048W        W21582   1.912  15.032  13.619 -0.1304  0.0936  0.2473
 2049W        W21583   1.316  11.590   1.831  0.0303  0.1639  0.2055
 2050W        W21584   9.252  13.352   2.533  0.1155  0.0752 -0.2424
 2051W        W21585   8.108   9.494   1.375 -0.3079  0.0965 -0.0690
 2052W        W21586   4.122  17.452   0.591  0.0630  0.0070  0.2647
 2053W        W21587   4.774  15.289  12.192 -0.2367 -0.0139 -0.2745
 2054W        W21588   4.895   7.850  13.209  0.0147 -0.1491  0.0428
 2055W        W21589   0.016   1.331   2.704 -0.1315 -0.0865 -0.0243
 2056W        W21590   9.724   4.276   3.227 -0.2376 -0.2075 -0.3857
 2057W        W21591  11.449  10.312   0.256 -0.1675  0.2127 -0.2916
 2058W        W21592   4.730   5.051   2.783  0.0374 -0.1713 -0.3866
 2059W        W21593   9.828   4.224   2.754  0.0368  0.0065 -0.0828
 2060W        W21594   5.378   4.184   0.226  0.1201  0.1065 -0.0445
 2061W        W21595   5.461  11.151   3.609 -0.1245  0.0560  0.0101
 2062W        W21596  17.152   1.128   2.068 -0.0895 -0.3729  0.4595
 2063W        W21597   2.305  17.690   4.808 -0.0909 -0.1048 -0.0308
 2064W        W21598  19.413  18.454  10.595  0.1834 -0.0354  0.0165
 2065W        W21599   2.170  12.727  12.605  0.2098 -0.0366  0.0927
 2066W        W21600  10.220  17.317  13.590  0.0918  0.1514  0.1056
 2067W        W21601  18.985   0.048   3.945  0.0582  0.0350  0.2123
 2068W        W21602  12.099  12.746   2.905  0.2364  0.1391 -0.0713
 2069W        W21603   6.067  10.433  11.003 -0.3445  0.0332  0.2588
 2070W        W21604   8.243  16.200   1.462  0.0145  0.1231  0.2283
 2071W        W21605  10.189  17.599  10.471  0.2045 -0.1094  0.0292
 2072W        W21606   6.986  12.872   2.315  0.1302  0.0124  0.3003
 2073W        W21607  17.389  14.065  11.000  0.1389 -0.3528 -0.1442
 2074W        W21608   2.362   8.161   3.815 -0.2008  0.3072  0.0779
 2075W        W21609   9.291  13.343  12.030 -0.1031  0.1672  0.2442
 2076W        W21610   2.897   7.070  13.519  0.0089  0.0764 -0.1937
 2077W        W21611   4.110   3.668  12.509  0.1419  0.1785  0.2520
 2078W        W21612  18.100   7.191  13.843  0.1982  0.2559  0.1629
 2079W        W21613  18.842  18.194   3.083 -0.1779 -0.3116  0.0283
 2080W        W21614   4.554   5.899  10.102  0.0519 -0.0883 -0.1455
 2081W        W21615  17.755  14.478  11.718  0.0746  0.1423 -0.1757
 2082W        W21616  16.289   6.935   3.078  0.0019  0.0783 -0.0277
 2083W        W21617  11.318   6.716  11.749  0.1164 -0.1256 -0.1862
 2084W        W21618   6.228   1.821  10.931  0.1562  0.1836 -0.0167
 2085W        W21619  16.876   1.975   2.389  0.0203  0.0581  0.1013
 2086W        W21620   4.432   7.563  10.060  0.0325 -0.1415 -0.2633
 2087W        W21621  10.445   9.871  12.101  0.1407  0.2196 -0.3142
 2088W        W21622   7.531   8.094   3.023  0.1273  0.2547 -0.1104
 2089W        W21623   3.166   6.657  11.939 -0.1791 -0.0394 -0.2152
 2090W        W21624  18.910  17.278  13.664  0.0206  0.0349 -0.1974
 2091W        W21625   1.831   4.728   4.691  0.0120 -0.2588 -0.1333
 2092W        W21626  10.560   2.968  11.216 -0.1485  0.0566 -0.1397
 2093W        W21627   0.484  17.223   3.492 -0.2922  0.1201  0.1098
 2094W        W21628  13.235   8.751  11.290  0.1468  0.2858 -0.2102
 2095W        W21629   5.933  10.471  11.541  0.1642  0.1100  0.1690
 2096W        W21630   8.971  16.263  14.294  0.1884  0.2564 -0.0625
 2097W        W21631  10.906  15.402   0.209 -0.0546 -0.1247 -0.2001
 2098W        W21632   8.213  15.078  10.544 -0.1722 -0.2008  0.0164
 2099W        W21633   1.127   7.312  12.015  0.0086 -0.0455 -0.0452
 2100W        W21634   3.628   2.148  12.228 -0.2270 -0.0779  0.3762
 2101W        W21635   2.744   6.922   3.348 -0.2374 -0.1012 -0.0687
 2102W        W21636  14.419  12.573  13.928 -0.0708  0.1801 -0.1388
 2103W        W21637  10.059  16.620   0.314 -0.1479  0.1339  0.1196
 2104W        W21638  11.850  13.943   1.966 -0.0997  0.0093 -0.2339
 2105W        W21639  17.469  17.966  13.138  0.0870  0.0591  0.0899
 2106W        W21640  17.088   4.048  11.250  0.0255  0.1326 -0.1012
 2107W        W21641   6.760   6.113   1.328 -0.0858  0.0177  0.0666
 2108W        W21642   8.264  12.867  11.195 -0.2360  0.1024 -0.0873
 2109W        W21643   4.740  14.500   3.616  0.0631  0.0016  0.1444
 2110W        W21644  18.791  15.601  12.123  0.3067  0.0565  0.2367
 2111W        W21645  17.095  11.138  13.134  0.2290  0.2097  0.1913
 2112W        W21646   2.330   8.480  12.481 -0.4356 -0.1396  0.2620
 2113W        W21647   0.072   9.027   0.075 -0.0683 -0.1859 -0.2838
 2114W        W21648   9.038  17.313  12.653 -0.2309 -0.0809 -0.0095
 2115W        W21649  16.280   5.153  12.129  0.0005 -0.2880  0.0893
 2116W        W21650  17.968  10.463  11.335 -0.1365  0.1155 -0.0477
 2117W        W21651  14.246  19.162  10.181 -0.2374  0.0309  0.0530
 2118W        W21652   7.230  11.495   4.766 -0.0430 -0.2412  0.0933
 2119W        W21653   2.363   8.636  11.975  0.1420 -0.1086  0.2882
 2120W        W21654  17.985   4.333   0.172 -0.0911  0.0029 -0.0046
 2121W        W21655  10.052   3.322  10.654 -0.3541  0.0292  0.0482
 2122W        W21656   2.707   1.990   3.380  0.1195  0.1698 -0.0690
 2123W        W21657  16.757  11.412  12.267  0.0997  0.1663  0.1249
 2124W        W21658   9.549   4.496   0.849 -0.1172 -0.0766  0.1225
 2125W        W21659   4.493  15.267  11.468 -0.0836 -0.2776  0.1717
 2126W        W21660   8.786   6.042  12.264  0.0828  0.0149  0.3009
 2127W        W21661  10.115  12.409   3.969  0.0258  0.0824 -0.0424
 2128W        W21662  16.938  11.814   0.876 -0.4009  0.1335 -0.1628
 2129W        W21663   2.016  13.114  12.260 -0.0484 -0.1047  0.0418
 2130W        W21664  11.494  17.809  12.661 -0.3947 -0.0422 -0.0044
 2131W        W21665  16.577   3.917   3.208  0.2750  0.1208 -0.0096
 2132W        W21666   9.204  11.376   3.950 -0.1134  0.1288  0.0072
 2133W        W21667  12.254  11.552  10.289  0.0291 -0.0018 -0.1547
 2134W        W21668  17.770   8.983  14.201 -0.1236 -0.0495 -0.3110
 2135W        W21669  13.676   4.345  12.490 -0.1962  0.0219 -0.2519
 2136W        W21670   5.372   9.217  14.030  0.0736  0.1878 -0.0378
 2137W        W21671   5.906  15.756  13.218  0.3021  0.0559 -0.1730
 2138W        W21672  13.581   0.071   0.230 -0.0337 -0.1172 -0.1060
 2139W        W21673  12.390   9.979  12.572 -0.5149  0.0256 -0.0755
 2140W        W21674   9.225  13.595   0.811 -0.1788  0.2387  0.0229
 2141W        W21675  10.886  13.530   0.719  0.4355 -0.1100  0.0746
 2142W        W21676   4.067   5.460  12.526 -0.1709  0.0870 -0.3433
 2143W        W21677  16.523  13.770   0.008 -0.4605 -0.2473  0.2965
 2144W        W21678  12.308   8.301   1.137 -0.2223 -0.1486 -0.1611
 2145W        W21679  13.708  10.851  11.162  0.0466  0.2908  0.1365
 2146W        W21680  15.210  17.175  11.671 -0.1750 -0.2826 -0.0780
 2147W        W21681  12.642  16.720   3.960  0.1949 -0.0380 -0.0236
 2148W        W21682   2.852   4.568   4.409  0.2765 -0.2574 -0.1040
 2149W        W21683  11.629  18.029   5.148  0.1897 -0.0026  0.0099
 2150W        W21684  18.867  15.921  14.013  0.0146 -0.0757 -0.4495
 2151W        W21685   7.693   5.285  11.626  0.1849  0.3093  0.0904
 2152W        W21686   1.939   5.694   0.610  0.1902 -0.1525  0.4743
 2153W        W21687   1.266   6.918  12.298  0.1483 -0.2526 -0.0754
 2154W        W21688   9.998  15.899  10.341  0.2689 -0.0082 -0.1117
 2155W        W21689  10.219  14.193   2.877 -0.3145  0.0187  0.1774
 2156W        W21690  15.528   8.131  10.763  0.2233 -0.1674 -0.4156
 2157W        W21691   0.415   8.229  10.098  0.0084  0.0117  0.0359
 2158W        W21692   2.228  12.679   0.841 -0.0665  0.0348  0.1346
 2159W        W21693  12.878  14.733  13.391 -0.0961  0.1139  0.1840
 2160W        W21694   1.672   0.053  13.578 -0.2110 -0.0579 -0.1295
 2161W        W21695  17.741  19.021   0.591 -0.3149 -0.0222  0.1107
 2162W        W21696  17.415   2.992  13.266  0.2274 -0.1852  0.2243
 2163W        W21697  18.239  14.813   0.413 -0.1125 -0.1175  0.2106
 2164W        W21698  17.013   3.673  12.794  0.1806  0.2963 -0.0226
 2165W        W21699  16.538   4.627  12.715 -0.0236 -0.2813  0.2991
 2166W        W21700  11.728  14.424   4.062  0.1120  0.1348 -0.1280
 2167W        W21701  12.606   3.057  11.047  0.0301  0.0973  0.0062
 2168W        W21702  10.249   9.085  11.727 -0.2948  0.0858 -0.0187
 2169W        W21703   1.563  19.370   1.060 -0.0281  0.1085 -0.2782
 2170W        W21704   2.173   2.747   4.140  0.0910  0.1254  0.2208
 2171W        W21705  14.960   9.766   2.754 -0.0040  0.1326 -0.1768
 2172W        W21706  10.160   5.009   0.434 -0.2322  0.2144 -0.0019
 2173W        W21707  18.343  18.141   0.577 -0.1693  0.0464  0.0871
 2174W        W21708  10.661   7.440  11.242 -0.1630  0.4148  0.1245
 2175W        W21709  13.065   6.073   1.246  0.0364 -0.1910  0.1751
 2176W        W21710  11.087   0.205   0.491 -0.0885 -0.2854  0.1941
 2177W        W21711  17.566   6.046  13.915  0.3316  0.2702 -0.1567
 2178W        W21712   8.924  10.481   0.521 -0.0935  0.2504 -0.0604
 2179W        W21713  16.293  10.611   2.915 -0.0987 -0.0076 -0.0297
 2180W        W21714   4.082   8.258   4.993  0.2938  0.1382 -0.4249
 2181W        W21715  19.326   7.449   2.107 -0.1191 -0.1222 -0.2761
 2182W        W21716   0.067   6.508   4.128  0.1342 -0.1245 -0.0854
 2183W        W21717  12.746  12.463   1.522 -0.3392 -0.1792 -0.0264
 2184W        W21718  19.021  17.648   1.432  0.1143  0.1619 -0.2614
 2185W        W21719   0.380  15.464  13.954 -0.0017 -0.3324 -0.2838
 2186W        W21720   0.992  16.608  10.985 -0.2431 -0.2537  0.3233
 2187W        W21721   5.127   1.268  10.576 -0.2307  0.2049  0.1688
 2188W        W21722   9.720  13.659  12.233 -0.0750  0.3589  0.1095
 2189W        W21723   8.116   3.769   2.808  0.1616 -0.1935 -0.2150
 2190W        W21724   4.742  15.837  10.585 -0.0486  0.0112  0.1655
 2191W        W21725  14.396   9.067  11.712  0.2452  0.1794 -0.1192
 2192W        W21726  17.055   8.241   4.767  0.2602 -0.2752 -0.0490
 2193W        W21727   0.079  15.103  13.738  0.1217  0.0205 -0.0292
 2194W        W21728   4.563  19.300  14.131 -0.2013 -0.0760 -0.0289
 2195W        W21729   5.641  10.038  10.895 -0.2398 -0.1593 -0.2786
 2196W        W21730  13.718   0.920  10.647 -0.0649  0.2949 -0.1920
 2197W        W21731   7.556   3.391   1.406 -0.1323  0.0671  0.0931
 2198W        W21732   5.359   3.727   2.564 -0.0936  0.0094 -0.0265
 2199W        W21733   4.369  15.899  11.716 -0.0161  0.1578  0.0869
 2200W        W21734   5.860  10.593  14.210 -0.2882 -0.0036 -0.0379
 2201W        W21735  15.452   9.008   3.042  0.1779 -0.1443 -0.0638
 2202W        W21736  18.058  13.270  12.284  0.1285  0.1077  0.2331
 2203W        W21737  17.886   4.682  14.026 -0.4708 -0.1070 -0.0285
 2204W        W21738   6.704   5.659  11.147  0.2064 -0.0688 -0.0789
 2205W        W21739  15.000  13.968   3.232 -0.0549  0.1982 -0.1176
 2206W        W21740  11.439   0.691  13.529 -0.1516  0.0986 -0.2632
 2207W        W21741  15.492  12.981   0.304  0.0257 -0.0713 -0.0580
 2208W        W21742  18.713   2.101   3.558  0.1879 -0.0168  0.0980
 2209W        W21743   9.885  10.349  12.451  0.0656 -0.2153 -0.0571
 2210W        W21744  11.085   4.625  13.762 -0.0560 -0.0459 -0.1168
 2211W        W21745   3.440  17.289   1.304  0.2179 -0.0726  0.1005
 2212W        W21746  14.957   8.683  10.716 -0.0997 -0.0475 -0.2577
 2213W        W21747   2.592  19.012  10.587  0.0406 -0.2020 -0.0988
 2214W        W21748   4.665  11.387   0.295  0.2857  0.0712 -0.2170
 2215W        W21749  13.794  12.811  12.277  0.0419 -0.0159 -0.1555
 2216W        W21750   7.252  15.374   1.407  0.0668 -0.1245 -0.0311
 2217W        W21751   5.921  10.940  13.642 -0.1085 -0.6753  0.0550
 2218W        W21752   7.701   4.524   0.531  0.0591  0.2679 -0.0745
 2219W        W21753  15.211   4.045  12.184 -0.0137  0.2676  0.0227
 2220W        W21754  10.634  10.659  12.561 -0.3704 -0.2169 -0.3068
 2221W        W21755   5.640  19.266  11.086  0.0649 -0.1218 -0.0087
 2222W        W21756  19.394  10.313  12.372  0.2677  0.2093  0.2424
 2223W        W21757   9.522  15.216   1.842 -0.1711  0.2879  0.2693
 2224W        W21758  17.691  10.344   2.455  0.1264 -0.0216 -0.0098
 2225W        W21759  15.562   8.079  11.687  0.0886 -0.3223  0.0922
 2226W        W21760   7.801   2.261  10.430  0.1087  0.2294  0.0304
 2227W        W21761  10.273   9.013  11.210 -0.2414 -0.0408  0.0262
 2228W        W21762   1.534   7.925   0.088  0.3183  0.3097  0.0771
 2229W        W21763  19.357  12.231   3.543  0.0848  0.3299 -0.1314
 2230W        W21764   7.191  10.936  13.717  0.1286  0.2481  0.2037
 2231W        W21765   6.288   6.499  11.382  0.0245 -0.3492 -0.0492
 2232W        W21766  11.243   0.943   3.895 -0.2209 -0.1525  0.1982
 2233W        W21767  12.448  13.326  12.168 -0.1074  0.2114 -0.1449
 2234W        W21768  17.235  16.991  11.971  0.0260  0.1384 -0.2119
 2235W        W21769  10.384   9.750   1.568  0.3832  0.1072  0.1606
 2236W        W21770   6.848  11.836   0.731 -0.0113  0.2567 -0.1361
 2237W        W21771  12.557  17.602  10.699  0.0242 -0.0380  0.0410
 2238W        W21772  11.085   7.792   2.533 -0.1290 -0.2235  0.2391
 2239W        W21773  10.285  12.229  10.844  0.1232  0.1943 -0.1237
 2240W        W21774   3.062   4.518  11.217  0.2495  0.1584 -0.1220
 2241W        W21775   4.257   5.805  11.719  0.0437 -0.1305  0.1542
 2242W        W21776  15.369   6.931   0.390  0.0398 -0.1958 -0.0917
 2243W        W21777  10.245  17.004  11.194  0.3379  0.2450  0.0769
 2244W        W21778   8.682  14.912  12.953 -0.0184  0.1904  0.1477
 2245W        W21779  12.669  12.270   2.283 -0.1513  0.1052  0.1621
 2246W        W21780   2.720  12.291  12.178 -0.0520  0.2350 -0.1184
 2247W        W21781  19.503  10.197   4.343  0.1128 -0.1795  0.1261
 2248W        W21782   6.559   5.920   2.736 -0.0510 -0.1207  0.2014
 2249W        W21783   5.207  13.447  11.362 -0.1416  0.0919  0.1039
 2250W        W21784   3.518   8.729   4.373  0.0715 -0.3120 -0.0738
 2251W        W21785   4.162   2.264  11.746  0.0618 -0.1801 -0.1699
 2252W        W21786   3.774   9.852   2.225  0.0490 -0.0973 -0.0996
 2253W        W21787   2.624  15.701   1.553 -0.1833  0.0744 -0.1219
 2254W        W21788   6.126  19.080  12.492  0.1277  0.0289  0.1843
 2255W        W21789  16.409  13.281  14.231  0.2074  0.1643 -0.3300
 2256W        W21790   0.102  12.578  13.629  0.1927  0.0155 -0.0509
 2257W        W21791  11.563  10.441  12.647  0.1095 -0.2747  0.2460
 2258W        W21792  11.648  10.950   3.695  0.0419  0.1267 -0.2569
 2259W        W21793  12.679  16.822   2.277  0.3540 -0.0960 -0.0162
 2260W        W21794  18.314  15.955  11.803  0.2537  0.0528 -0.1263
 2261W        W21795   1.867   3.773  11.055  0.2625 -0.2988  0.1232
 2262W        W21796  11.332   3.354  11.701  0.2474  0.2526 -0.1417
 2263W        W21797   7.531   2.985   0.317  0.0808 -0.3164  0.1210
 2264W        W21798   6.665  18.810  12.524 -0.3540 -0.0546 -0.2157
 2265W        W21799   2.704  16.797   4.076 -0.1249  0.0392 -0.1445
 2266W        W21800  18.038  17.454  11.604  0.2107  0.1155  0.2926
 2267W        W21801  10.028  12.341  11.661  0.0850 -0.1915 -0.1681
 2268W        W21802   3.320   6.032  13.146 -0.0858 -0.0871 -0.2449
 2269W        W21803   7.527   6.550  11.382  0.1981 -0.1624 -0.0056
 2270W        W21804  16.884   8.543   3.975  0.2460 -0.1488 -0.2335
 2271W        W21805  11.839   4.972  14.217 -0.0093  0.4055 -0.0506
 2272W        W21806   3.908  12.486  14.258 -0.4384  0.2949 -0.1314
 2273W        W21807   9.165   3.591   1.761  0.0721 -0.1420  0.0045
 2274W        W21808  14.991   8.137  10.893  0.2109  0.2492  0.0504
 2275W        W21809   7.860   3.256  13.199  0.0540  0.1204 -0.0883
 2276W        W21810   3.349  19.304   3.568  0.1121  0.2552  0.0699
 2277W        W21811  16.596  17.828   0.318  0.0240 -0.0396 -0.3076
 2278W        W21812  15.947   7.612   2.160  0.0863  0.1719 -0.0152
 2279W        W21813   5.536   5.136  13.529  0.1327  0.0114 -0.0511
 2280W        W21814   8.227   2.065   2.444  0.0563  0.2638 -0.4826
 2281W        W21815   4.162   2.211  12.359 -0.2370 -0.0121 -0.0917
 2282W        W21816   1.309  14.979  12.846  0.1096 -0.1739 -0.2509
 2283W        W21817  12.695   1.204   2.138  0.5171 -0.0261 -0.0211
 2284W        W21818  16.730   9.657  13.827  0.1021 -0.0058 -0.2484
 2285W        W21819   8.889  13.801   3.528 -0.2270  0.0200  0.0374
 2286W        W21820   0.932  11.880   1.202 -0.3889 -0.3029 -0.0083
 2287W        W21821   6.733  11.303  10.854  0.0882 -0.0266  0.1525
 2288W        W21822   5.251  14.578  12.263  0.0985  0.3627 -0.2133
 2289W        W21823   4.982  15.795  12.382  0.1751 -0.3152  0.1040
 2290W        W21824  10.644  16.057  11.062 -0.5079 -0.4083 -0.2508
 2291W        W21825   5.888   7.215   2.847 -0.4392  0.2213  0.0291
 2292W        W21826  13.735   9.618  11.169  0.1917  0.3004 -0.0797
 2293W        W21827  14.691   4.745  10.049  0.1989 -0.0391  0.0370
 2294W        W21828  16.240  16.297   4.083 -0.4074  0.1254 -0.2906
 2295W        W21829  18.973  14.773   1.053  0.1193 -0.3765 -0.1405
 2296W        W21830   1.745   0.706   2.964  0.1411  0.0540 -0.1074
 2297W        W21831   1.687   4.414   4.278  0.3574  0.0995 -0.3054
 2298W        W21832  17.382  10.798   4.234  0.1151 -0.0246  0.1694
 2299W        W21833  14.988   9.453   1.237 -0.1396 -0.2032 -0.2108
 2300W        W21834   8.328   6.571   3.212  0.1469  0.3331 -0.2269
 2301W        W21835  18.609  13.978  11.036 -0.2702 -0.0077 -0.0209
 2302W        W21836   0.424  10.500  10.801 -0.0409 -0.0615  0.1209
 2303W        W21837   8.305   3.046  12.782  0.0243 -0.1322  0.1617
 2304W        W21838  10.873  14.230   2.679  0.2660 -0.0694  0.0918
 2305W        W21839  13.391   7.783   0.681  0.0569 -0.0029  0.0216
 2306W        W21840   2.463  18.814   2.486  0.0528  0.4072  0.3290
 2307W        W21841  12.793  16.772   3.338  0.1493 -0.1060  0.1058
 2308W        W21842  18.104  14.431   0.108 -0.2990  0.1506  0.1574
 2309W        W21843   2.947  15.688  10.141 -0.1303 -0.0172 -0.3628
 2310W        W21844   5.080   0.340   1.848  0.0690 -0.0312  0.0260
 2311W        W21845  12.951  13.954  11.168  0.2811 -0.3223 -0.2456
 2312W        W21846   5.828   9.644   0.888  0.2882 -0.0127  0.0901
 2313W        W21847   2.162   0.479   3.062  0.2905  0.1120  0.0434
 2314W        W21848  16.797  11.676  10.362  0.1089  0.1883 -0.3906
 2315W        W21849  12.404   5.168   1.876 -0.0171 -0.2660 -0.1759
 2316W        W21850   8.372   9.770  13.666  0.0717 -0.2878 -0.0393
 2317W        W21851   4.550  17.285   5.130 -0.0856  0.0912 -0.2059
 2318W        W21852   0.363  10.402   0.938 -0.1351  0.3221 -0.0429
 2319W        W21853   8.019  16.100  11.544 -0.0949  0.0392  0.0330
 2320W        W21854   6.677  10.372  12.743 -0.3333  0.0754  0.2560
 2321W        W21855   6.112   4.540  12.346 -0.2117  0.3674  0.0940
 2322W        W21856  10.397   4.219  10.564  0.2373  0.0796 -0.0951
 2323W        W21857  17.199   7.394  11.786  0.2181  0.0377  0.3504
 2324W        W21858   3.293  11.993   3.876 -0.0775 -0.1084  0.0663
 2325W        W21859   0.354   1.291  11.149 -0.0127 -0.0899  0.3132
 2326W        W21860   4.768  10.423   3.362  0.3899  0.0320  0.0282
 2327W        W21861   3.769  14.818   3.313  0.1671 -0.0411  0.1367
 2328W        W21862   2.126  17.407   5.212  0.1579 -0.0247 -0.2932
 2329W        W21863   4.387   5.083  10.648  0.0206  0.0096 -0.1753
 2330W        W21864   0.601   7.672   2.192  0.2090 -0.1938  0.0099
 2331W        W21865  10.491  10.871  13.513 -0.2588 -0.1712 -0.0471
 2332W        W21866   0.092   0.865   0.072 -0.0285 -0.3590 -0.1890
 2333W        W21867   3.849  15.966  11.348  0.1346  0.0934 -0.1035
 2334W        W21868  15.128  16.002   3.044  0.1610 -0.2988  0.0949
 2335W        W21869   8.545  16.882   3.000  0.0437 -0.1884  0.1566
 2336W        W21870  19.135   8.910   0.029 -0.1973  0.0918  0.2572
 2337W        W21871   0.234  17.100   3.935 -0.0091 -0.2049 -0.1358
 2338W        W21872  17.575  15.911   3.543 -0.1865  0.2436 -0.1585
 2339W        W21873   9.642  17.978   2.534 -0.2590  0.0713  0.0145
 2340W        W21874   6.960   4.185   1.101 -0.0542  0.2712  0.0786
 2341W        W21875  18.733  11.819   3.378 -0.5792 -0.1457 -0.4645
 2342W        W21876  12.653   3.170   0.764  0.1938  0.0580  0.0715
 2343W        W21877   3.545   6.968  13.425  0.1895 -0.0391  0.3425
 2344W        W21878  14.945  10.110  12.950 -0.0505 -0.1268  0.0909
 2345W        W21879   1.182  10.767   2.059 -0.2975 -0.0215  0.0005
 2346W        W21880   8.946   8.689   1.117 -0.3168 -0.0414 -0.2887
 2347W        W21881  11.538  10.303  11.622 -0.3128  0.1942  0.0247
 2348W        W21882  12.965   7.776  13.409  0.3434 -0.1918  0.0062
 2349W        W21883   8.711   6.859   3.310  0.1337  0.2275 -0.1328
 2350W        W21884   9.923  16.096   0.910  0.2826 -0.2249 -0.0677
 2351W        W21885   0.709   1.280   0.682 -0.1670  0.0775 -0.1457
 2352W        W21886   1.570  10.081  12.051 -0.5393  0.1710  0.0578
 2353W        W21887   9.361   4.293  10.921  0.3999  0.0749  0.1615
 2354W        W21888  12.045   8.655  12.786 -0.0885 -0.1202 -0.0015
 2355W        W21889   3.180   6.687   3.199  0.0871  0.1257  0.2579
 2356W        W21890   2.888  10.967   1.499  0.1648  0.1005  0.1534
 2357W        W21891   5.762  19.068  12.914  0.1030  0.0429  0.2976
 2358W        W21892   4.221  10.548   3.927  0.0021 -0.2040  0.0261
 2359W        W21893   0.115  13.809  11.395 -0.1129 -0.1218  0.1722
 2360W        W21894   7.257  17.391  10.535  0.1009  0.0820  0.2622
 2361W        W21895   2.380   8.471  13.843  0.0668 -0.1900 -0.1847
 2362W        W21896   5.095   2.078   1.072  0.0094  0.3003  0.0021
 2363W        W21897   0.380  13.409  13.558 -0.1271  0.1122  0.0370
 2364W        W21898  10.880  19.007   0.979 -0.0849  0.3403 -0.0455
 2365W        W21899   5.963   1.009   3.438 -0.2847 -0.0563 -0.0421
 2366W        W21900   2.047   5.258   2.336 -0.0758 -0.2165 -0.0327
 2367W        W21901  13.544   3.444  13.286 -0.2303 -0.1609 -0.1285
 2368W        W21902   7.816  11.386   1.336  0.0272  0.1570  0.0938
 2369W        W21903   5.539  17.505   1.976  0.1316 -0.0514 -0.1330
 2370W        W21904   9.741  16.928  11.479 -0.1395 -0.0859  0.1378
 2371W        W21905   7.930  14.478  12.308 -0.1912 -0.1362  0.0267
 2372W        W21906   0.652  10.677   2.718  0.3007 -0.2879  0.0978
 2373W        W21907   3.985   8.051   2.851  0.1270  0.2989 -0.0899
 2374W        W21908   6.851   8.232   4.379  0.2862  0.3266 -0.0543
 2375W        W21909   5.888  10.971  11.430 -0.2170 -0.1497  0.2422
 2376W        W21910  13.565  11.841  11.959  0.0153 -0.2587  0.1981
 2377W        W21911  10.349   1.500   0.577  0.2375  0.0901  0.0228
 2378W        W21912   4.973  14.818  13.649 -0.0894  0.1688  0.0764
 2379W        W21913   9.581  11.142   3.682  0.1328  0.1522  0.1096
 2380W        W21914   8.769   7.863   1.853 -0.1302 -0.3601 -0.1900
 2381W        W21915  11.490   7.722  10.492  0.1480  0.0032 -0.0466
 2382W        W21916  10.772   1.365  10.332 -0.0623  0.0266 -0.1524
 2383W        W21917  14.963  16.881   2.827 -0.0608 -0.0728  0.1094
 2384W        W21918  12.490   0.590  11.789 -0.1041 -0.0673 -0.2459
 2385W        W21919  17.764  12.772  13.581  0.2409  0.3557  0.2176
 2386W        W21920  10.433  13.333  11.090  0.0878  0.1319 -0.2058
 2387W        W21921   6.080   9.347   2.100  0.2094  0.4017  0.2819
 2388W        W21922   0.596  12.352  11.372  0.1949  0.3013 -0.1277
 2389W        W21923   4.887   7.467   0.146  0.0040  0.4123  0.0764
 2390W        W21924  15.381   7.670  13.389  0.0889  0.0166  0.1440
 2391W        W21925  10.316   9.870   1.084  0.0933 -0.1618 -0.1262
 2392W        W21926  18.471  18.963   2.572  0.0656 -0.4060 -0.2582
 2393W        W21927  13.035  13.593   3.377  0.0556 -0.3079  0.2345
 2394W        W21928   6.444   6.220   0.267  0.2771 -0.1635  0.2264
 2395W        W21929   1.832   7.031   3.699  0.2920 -0.1916 -0.3552
 2396W        W21930   7.579  10.135  12.693 -0.1322 -0.2137 -0.2995
 2397W        W21931   8.779  10.271  12.969  0.0255  0.3575  0.0263
 2398W        W21932  10.957  16.121  13.278  0.1453 -0.1833  0.0882
 2399W        W21933   7.503  15.841  10.954 -0.0931  0.0233 -0.1433
 2400W        W21934  18.442   9.785  10.276 -0.4256 -0.0098 -0.1377
 2401W        W21935  15.537   2.703   3.411 -0.2895  0.0698  0.0773
 2402W        W21936   1.448  16.077  13.421  0.3170 -0.0329  0.1343
 2403W        W21937   1.018  14.583  11.676  0.0652  0.4618 -0.0927
 2404W        W21938   2.049   5.220   1.350  0.0415 -0.1172  0.0767
 2405W        W21939   7.645   9.053   2.904 -0.2694  0.1410  0.3795
 2406W        W21940   5.158   7.541  13.514  0.1918  0.1958  0.4783
 2407W        W21941  18.644  15.141  13.534  0.1713 -0.2760  0.1358
 2408W        W21942   6.194   7.673   0.113 -0.2086  0.1000  0.0578
 2409W        W21943   6.425  11.192   0.253 -0.1828 -0.1862  0.1036
 2410W        W21944   7.077  17.759  12.952  0.1395  0.1024 -0.1617
 2411W        W21945  15.334  13.332  11.718 -0.1341 -0.3422  0.1453
 2412W        W21946  16.873   9.231  12.936  0.3053  0.0129 -0.1414
 2413W        W21947   8.729  12.069   0.904  0.1007 -0.0706 -0.0324
 2414W        W21948  11.672  14.103  10.786  0.1302 -0.0871  0.0582
 2415W        W21949  17.194  10.123  10.625  0.4544 -0.2844 -0.2301
 2416W        W21950   6.260  12.256   0.678 -0.3721 -0.0217  0.0393
 2417W        W21951   0.832   7.758   2.720  0.3946 -0.0961 -0.1180
 2418W        W21952  19.108   1.609  13.985  0.0177 -0.2098 -0.1423
 2419W        W21953   0.623   6.689   3.516 -0.2172  0.1103  0.1468
 2420W        W21954   2.882   7.664  12.298  0.1160  0.3267  0.0039
 2421W        W21955   3.053  10.421  11.626  0.0478 -0.0363 -0.2033
 2422W        W21956   0.127   6.332   3.201  0.1427 -0.0869 -0.1147
 2423W        W21957  10.956   9.722  12.264 -0.1191 -0.0993  0.0497
 2424W        W21958   2.792  14.666   1.975  0.0587 -0.1023 -0.2667
 2425W        W21959  10.979   3.313  13.244 -0.2265 -0.0182  0.3455
 2426W        W21960   8.258   0.569  11.799 -0.1470  0.0984  0.1086
 2427W        W21961   4.984   5.295   3.167 -0.0351  0.1030 -0.1236
 2428W        W21962  15.405   0.394   1.843 -0.0539 -0.0328  0.0552
 2429W        W21963   4.303  17.370   0.135 -0.0997 -0.1921  0.1659
 2430W        W21964  18.211   3.568   3.167  0.0922 -0.1354 -0.2912
 2431W        W21965  17.130  15.833  14.134 -0.2314 -0.3186 -0.0381
 2432W        W21966   5.790   6.462   0.894 -0.1771 -0.1006 -0.0790
 2433W        W21967   6.576   1.102   3.382  0.1275 -0.0699 -0.1414
 2434W        W21968  19.145   9.657   0.833  0.0315 -0.1829  0.1477
 2435W        W21969   3.189  10.220  10.608  0.1082 -0.2035  0.0080
 2436W        W21970  15.923   5.770  10.680  0.3608  0.0200  0.2489
 2437W        W21971   3.595   1.061   1.254 -0.2368 -0.0401  0.1175
 2438W        W21972  11.149  10.686  11.936  0.0307  0.0665 -0.1409
 2439W        W21973   5.767  17.552  14.260 -0.1125 -0.1871 -0.3183
 2440W        W21974   6.143  11.593   2.560  0.1051 -0.1008  0.1912
 2441W        W21975   7.069   6.963   3.307  0.0529 -0.0092 -0.1230
 2442W        W21976   0.918  17.431   0.788 -0.1544 -0.3297  0.1036
 2443W        W21977   7.614  12.125   1.581  0.0996  0.1861  0.1775
 2444W        W21978   8.755   9.150  13.355 -0.2479  0.0860  0.0601
 2445W        W21979   8.618  11.856   3.344  0.0277 -0.2350 -0.1710
 2446W        W21980   6.992   1.853  13.988 -0.1437  0.2272  0.0645
 2447W        W21981   9.182   2.084   0.082  0.1574  0.2900  0.1629
 2448W        W21982  15.933   6.621  11.044  0.2111 -0.2060  0.2239
 2449W        W21983  12.244   3.218   1.856  0.1765  0.0765 -0.1237
 2450W        W21984  15.700   3.978  12.300 -0.1148  0.2940  0.0416
 2451W        W21985   5.875  16.860   0.819  0.2550  0.0756 -0.0260
 2452W        W21986   6.633  13.210   1.511  0.1139 -0.1873 -0.1951
 2453W        W21987   8.261   0.415  13.932 -0.0029  0.1468  0.3171
 2454W        W21988  16.449  10.742  11.342  0.1515 -0.0918 -0.0750
 2455W        W21989   4.181   1.824  13.209  0.2106 -0.1764  0.0574
 2456W        W21990   7.437  18.224  12.923 -0.2715  0.0438 -0.0690
 2457W        W21991   0.677  10.247   0.497 -0.0248 -0.0001 -0.4590
 2458W        W21992   8.953   4.387   4.225 -0.0521  0.1599 -0.1635
 2459W        W21993   3.906   4.988   1.212  0.0086 -0.2497  0.0690
 2460W        W21994  15.783   9.485   2.261  0.0560 -0.0348  0.1517
 2461W        W21995   6.556  18.939  10.916  0.2006 -0.0865 -0.0730
 2462W        W21996  12.776   2.848  10.394  0.1782 -0.0599 -0.0628
 2463W        W21997   1.112   8.645  14.069 -0.0269 -0.0523  0.1486
 2464W        W21998  12.758  18.180  12.174  0.1206 -0.1032  0.0731
 2465W        W21999  15.963  16.562  11.339  0.0084 -0.0676 -0.1068
 2466W        W22000  11.987   9.132  11.709  0.0414  0.2753  0.1553
 2467W        W22001   5.298   4.016  11.081  0.0012  0.0766  0.3003
 2468W        W22002   7.162  10.908   2.320 -0.0975  0.0219 -0.0929
 2469W        W22003  13.834   5.953   4.419  0.0893  0.2906  0.0255
 2470W        W22004  16.813  14.663  12.038  0.0852  0.3169  0.0605
 2471W        W22005   6.168  10.166  12.993 -0.0586  0.1183 -0.1768
 2472W        W22006  18.652  18.628   2.170  0.1953  0.1079 -0.1108
 2473W        W22007   7.792   3.180  11.981 -0.1697  0.3181  0.0920
 2474W        W22008   6.265   2.983   2.839 -0.0642 -0.1306  0.0791
 2475W        W22009   9.586   4.118  14.226 -0.1013  0.0374 -0.1285
 2476W        W22010   5.188   7.160   4.039 -0.1408 -0.1356  0.2532
 2477W        W22011  14.310   1.438   1.701  0.1705 -0.2671  0.2542
 2478W        W22012  11.436   0.324   2.366 -0.1739  0.1527 -0.0049
 2479W        W22013   9.941  19.309  11.281 -0.3078  0.2195  0.0377
 2480W        W22014   8.436  16.864   3.692 -0.0975 -0.3297  0.3325
 2481W        W22015  13.662   0.313   2.587  0.0780  0.3540 -0.0885
 2482W        W22016  11.130   1.053   0.082  0.4144  0.0103  0.0274
 2483W        W22017  12.797  13.269   1.877 -0.0190  0.0844 -0.0272
 2484W        W22018  19.210  16.373   4.451  0.1488 -0.0459 -0.0590
 2485W        W22019  17.282   4.474  12.730 -0.2319  0.2264 -0.0248
 2486W        W22020  12.264  15.554  11.300  0.1364 -0.1089  0.1641
 2487W        W22021   6.050   5.664  12.972  0.1479  0.1518  0.1378
 2488W        W22022  16.911  17.899  12.385 -0.0437  0.0091 -0.1210
 2489W        W22023  15.750   1.854   3.522 -0.1990 -0.1238 -0.5823
 2490W        W22024   3.237   7.991  12.346 -0.1655  0.0267 -0.1168
 2491W        W22025  15.828   5.507   2.875  0.1187  0.2415 -0.0771
 2492W        W22026  15.499  16.174   1.230 -0.0611 -0.2711  0.3154
 2493W        W22027   0.803  18.754   1.387 -0.0079 -0.1263  0.1214
 2494W        W22028   2.459  18.011   1.171 -0.1565  0.1584 -0.0873
 2495W        W22029  15.768   6.018   2.150 -0.0865  0.0390  0.0873
 2496W        W22030  13.111  18.036  14.026 -0.1199  0.1596  0.1450
 2497W        W22031   9.270   4.152  13.213  0.2933  0.2617 -0.0856
 2498W        W22032   2.903   6.493   1.247 -0.0127  0.0845  0.0528
 2499W        W22033  16.546  16.952   0.140 -0.0559 -0.1254  0.0158
 2500W        W22034   0.117  12.713   0.231  0.2330 -0.0721  0.0535
 2501W        W22035  14.856  19.201   5.678 -0.1415  0.0943  0.5168
 2502W        W22036   0.706   8.006  11.945 -0.0983 -0.0812  0.0248
 2503W        W22037  18.149  14.370   0.602  0.1880  0.0350  0.1030
 2504W        W22038   6.921   0.395  14.217 -0.1765  0.2255 -0.0579
 2505W        W22039   4.329   7.271   1.998  0.0796  0.0570  0.1399
 2506W        W22040   9.486  17.947  13.827  0.2951 -0.1193 -0.2954
 2507W        W22041   0.076   8.792   1.687 -0.0444 -0.1870  0.5012
 2508W        W22042  15.325   7.055   1.327 -0.1679 -0.5143  0.2035
 2509W        W22043  19.024   2.540  12.325 -0.0958 -0.0298  0.2802
 2510W        W22044   2.806   1.179  10.701 -0.1417  0.2510 -0.0485
 2511W        W22045  13.654  10.057  13.780  0.0937 -0.1456 -0.2596
 2512W        W22046   5.483   2.336  10.975  0.1219  0.0842  0.1354
 2513W        W22047  10.730  16.437   0.005  0.0450 -0.1051  0.3378
 2514W        W22048   2.195  13.236   1.226  0.1144  0.1978 -0.1102
 2515W        W22049   7.107   8.130   1.665 -0.3507 -0.2201 -0.2152
 2516W        W22050   2.639  12.023   1.522 -0.3251 -0.2109 -0.1906
 2517W        W22051  12.706  12.196  11.982 -0.2138 -0.0350  0.0960
 2518W        W22052   8.768   0.892  13.423 -0.0473 -0.2433  0.2502
 2519W        W22053  18.511  14.393  12.977  0.0609  0.0589  0.2089
 2520W        W22054  14.786  15.745   2.482 -0.0970  0.0879 -0.0421
 2521W        W22055  18.653  10.023  12.039 -0.2917 -0.0326 -0.2384
 2522W        W22056   6.260   7.888   2.002  0.2015  0.2520  0.2508
 2523W        W22057   3.684   1.698  12.489 -0.2272 -0.1614 -0.0480
 2524W        W22058  17.681  16.079  13.036  0.1019  0.1116  0.2502
 2525W        W22059   7.674  12.691  11.311  0.2455 -0.1466 -0.0215
 2526W        W22060   6.824  15.196  11.232  0.1274 -0.1112 -0.1264
 2527W        W22061   5.185   8.488   2.860 -0.2504  0.2006 -0.0170
 2528W        W22062   7.996  11.247   1.882  0.1072 -0.1526  0.1817
 2529W        W22063  15.805  16.585   1.551  0.0056 -0.0018  0.0720
 2530W        W22064   0.773  17.558   1.777 -0.2503  0.2155  0.0438
 2531W        W22065   1.221   2.627   3.043 -0.2511  0.0210 -0.2228
 2532W        W22066  18.846   3.970  11.371 -0.0339  0.3028  0.0879
 2533W        W22067   4.723  10.811  11.659 -0.1651 -0.1195  0.0661
 2534W        W22068   9.523  13.617   4.286 -0.4287  0.1631  0.3999
 2535W        W22069   7.960   0.671   3.963  0.1381 -0.0065  0.3415
 2536W        W22070  16.805  17.833   1.404  0.0088  0.0917 -0.1973
 2537W        W22071  15.962  17.931  14.347  0.0369  0.0423  0.0588
 2538W        W22072  18.537   2.464   0.943  0.0993 -0.1890 -0.2867
 2539W        W22073  11.478   0.637   0.380 -0.1296 -0.1171  0.1640
 2540W        W22074   9.518   4.447   1.945 -0.1656 -0.3105  0.2339
 2541W        W22075  13.866  12.196   8.886  0.0032  0.3253  0.3545
 2542W        W22076   9.270   1.508   1.462 -0.1281 -0.3517  0.0299
 2543W        W22077   0.777   6.310   1.143 -0.0259 -0.0405  0.0945
 2544W        W22078  13.322   9.341  11.297  0.1374  0.4504  0.1515
 2545W        W22079   4.192  16.637   2.387  0.1556 -0.2772  0.0469
 2546W        W22080  12.680   6.483  13.863  0.1173 -0.2669  0.1428
 2547W        W22081   1.127   4.203  12.173  0.3031 -0.1155 -0.2117
 2548W        W22082   4.230   7.467  11.748 -0.0181 -0.3695 -0.0914
 2549W        W22083  15.969  10.308   9.476 -0.1108  0.4186 -0.0553
 2550W        W22084   6.294   8.576   1.304  0.0979  0.1482 -0.5135
 2551W        W22085   4.737   1.321   1.875 -0.3961 -0.1943  0.3134
 2552W        W22086  15.585  18.018   0.919  0.0094  0.2137  0.3102
 2553W        W22087   0.361  15.070   3.323 -0.2053  0.2932  0.0098
 2554W        W22088  12.495   5.679   3.218 -0.1228 -0.0243 -0.0743
 2555W        W22089  14.271  17.342  13.623 -0.3238  0.3256  0.2993
 2556W        W22090  18.783  10.566  10.401 -0.4003 -0.3228  0.0731
 2557W        W22091   7.076  17.333  10.110 -0.0251 -0.4343  0.0927
 2558W        W22092  12.956   7.198   3.282  0.1497  0.2088 -0.1523
 2559W        W22093   9.274  11.358  12.152  0.0216  0.3778  0.2015
 2560W        W22094   1.139   8.970  13.666 -0.1743  0.1196 -0.1775
 2561W        W22095   6.297   6.662  10.066 -0.1049  0.0935 -0.2988
 2562W        W22096  12.500  18.128   3.799 -0.0275  0.0889  0.0874
 2563W        W22097   3.907  16.885   3.590 -0.1381  0.1138 -0.0011
 2564W        W22098  18.458   1.304   5.296  0.0333 -0.0127 -0.1081
 2565W        W22099  17.587   5.343   0.146  0.1425  0.1972  0.2237
 2566W        W22100  16.437  15.319  14.164 -0.2179  0.2691 -0.0554
 2567W        W22101   7.592   3.842   2.695  0.1077 -0.3101 -0.0186
 2568W        W22102   5.919   5.430  14.279  0.3076 -0.0665 -0.1202
 2569W        W22103   7.073  16.221  13.048 -0.2353  0.3011 -0.5694
 2570W        W22104   7.599  16.607   3.286 -0.0153 -0.0222  0.2555
 2571W        W22105  14.295   5.977  12.231  0.0466 -0.1669 -0.2029
 2572W        W22106   9.265  14.535   0.818 -0.0872 -0.1514 -0.0483
 2573W        W22107  10.963  17.299   1.746 -0.0788 -0.1093 -0.1508
 2574W        W22108  15.902  11.417   3.876 -0.0237  0.0906  0.0284
 2575W        W22109  14.544   4.862  11.619  0.0564 -0.0377  0.1468
 2576W        W22110   4.942   0.266   2.638 -0.0461 -0.0804 -0.2931
 2577W        W22111   2.315   3.793   3.558 -0.1640  0.4813  0.1464
 2578W        W22112   6.976  15.544   3.298 -0.2431  0.0328 -0.0988
 2579W        W22113  15.529   2.065  11.342 -0.1295  0.1724 -0.0879
 2580W        W22114   3.470   7.557   1.760  0.2792  0.1863  0.0910
 2581W        W22115   7.242  10.932   0.997 -0.4429 -0.0671 -0.1808
 2582W        W22116   2.777   6.694  11.630  0.1722 -0.3515 -0.0575
 2583W        W22117   6.863  17.398   5.103 -0.0428  0.0910  0.2614
 2584W        W22118  10.766   7.955   1.731  0.0414  0.0084  0.0283
 2585W        W22119   2.111   3.764   2.549 -0.3342  0.3832 -0.3021
 2586W        W22120  18.565   5.032  13.839 -0.0492 -0.2302 -0.3250
 2587W        W22121   8.253   4.419   1.764 -0.0691 -0.0314 -0.0138
 2588W        W22122  19.410  16.786   1.215  0.2552  0.2972  0.2981
 2589W        W22123   3.919   9.742   3.497  0.4677 -0.0709 -0.2330
 2590W        W22124  17.195  17.543  12.931  0.1533  0.2150  0.0594
 2591W        W22125   3.922   8.469   4.610 -0.0199  0.0039 -0.0440
 2592W        W22126   0.685   4.655   1.579  0.0644  0.2127 -0.0043
 2593W        W22127  11.035  15.149   1.328  0.0256  0.0516 -0.1546
 2594W        W22128  14.547  18.831   0.522  0.1699  0.2306 -0.0705
 2595W        W22129   6.146   2.564  10.484 -0.0080  0.0371 -0.0712
 2596W        W22130   0.298   8.792  12.537 -0.2118 -0.1432 -0.0004
 2597W        W22131   7.965   8.267  13.412  0.0992  0.2008 -0.0659
 2598W        W22132   3.366   1.136   4.059  0.0099 -0.2521  0.1028
 2599W        W22133  11.389   2.408  13.698  0.2662  0.1751  0.1857
 2600W        W22134  13.903   0.117   3.076 -0.4392  0.0645  0.1162
 2601W        W22135  13.453   9.643  10.408 -0.0710  0.1064 -0.1206
 2602W        W22136  10.039  13.039   0.277 -0.1296  0.1362 -0.1749
 2603W        W22137   9.615   3.201  13.629  0.1181 -0.2397 -0.0285
 2604W        W22138   2.304  17.630   3.171  0.4547 -0.0878 -0.1783
 2605W        W22139   7.034  17.199   3.197  0.0011 -0.0136 -0.0242
 2606W        W22140  16.332  14.833   3.472 -0.2523 -0.2465  0.0157
 2607W        W22141  15.109   2.461   3.416  0.2006  0.2503  0.0974
 2608W        W22142   6.998   9.765  13.665 -0.0059 -0.3965 -0.1760
 2609W        W22143   6.549  13.105  10.822  0.2561 -0.0126  0.2145
 2610W        W22144   4.142   1.028  10.727 -0.0740  0.2011 -0.0187
 2611W        W22145  18.360   6.860  12.006  0.2294  0.0779 -0.0687
 2612W        W22146  12.839  10.652  12.803  0.0528 -0.1318 -0.0221
 2613W        W22147   5.456   5.692   1.644 -0.2924 -0.1255  0.1700
 2614W        W22148  16.496  14.054   3.531  0.1801  0.0290 -0.2168
 2615W        W22149  10.962   2.214   4.107 -0.1228  0.2069  0.2293
 2616W        W22150  10.646   4.014   4.971  0.0569 -0.0253 -0.0768
 2617W        W22151   5.200  19.103  11.505  0.3002  0.2137  0.0179
 2618W        W22152  13.442  16.835   0.462  0.0249  0.2648 -0.0282
 2619W        W22153  13.465   9.370  12.283 -0.0055 -0.3370 -0.1349
 2620W        W22154  14.060   6.912   1.203 -0.1158 -0.1295 -0.0242
 2621W        W22155  18.009   0.932   0.722 -0.0204 -0.0243  0.1996
 2622W        W22156  10.203  12.683  10.595  0.4834  0.2187 -0.0601
 2623W        W22157  15.208   0.580  11.021 -0.1597 -0.1017 -0.0489
 2624W        W22158   1.501   6.116  12.960  0.0554  0.3072 -0.0501
 2625W        W22159   9.638  17.106   2.288  0.0518  0.1028 -0.0274
 2626W        W22160   4.635   0.601   1.989  0.1822  0.2461 -0.2998
 2627W        W22161  19.290   1.022  10.574  0.2220  0.4163  0.1873
 2628W        W22162   8.215  13.645  13.674  0.0967 -0.1113 -0.0923
 2629W        W22163   9.572  15.391   2.882  0.1192  0.3915 -0.1928
 2630W        W22164   3.251  16.960   1.830 -0.1171  0.0966  0.1535
 2631W        W22165  16.673   8.754  12.935 -0.3602  0.0267 -0.0841
 2632W        W22166   2.061  17.520   4.024 -0.0131 -0.1445  0.0521
 2633W        W22167   7.978  10.095   3.068  0.0914  0.0636  0.1517
 2634W        W22168   5.963  13.521   0.796  0.3055  0.2195 -0.1784
 2635W        W22169  17.799  12.986  10.756  0.0874 -0.2631 -0.0476
 2636W        W22170  18.504  16.233  10.335 -0.1632 -0.1300  0.0416
 2637W        W22171  14.273  18.303   0.617  0.3061 -0.1622 -0.2698
 2638W        W22172  18.723  19.388  12.860 -0.0005 -0.1631 -0.4053
 2639W        W22173  15.818  17.691  12.558  0.1066 -0.3010  0.2187
 2640W        W22174  19.534  13.231  11.448 -0.1591  0.0522  0.0211
 2641W        W22175  12.643   6.021   0.742  0.0510 -0.0989 -0.1071
 2642W        W22176  15.900   2.385   4.024 -0.1243  0.0823  0.1279
 2643W        W22177  12.757  16.765  10.469  0.0578  0.0896 -0.1480
 2644W        W22178  13.982  13.247   4.504  0.0428  0.0140 -0.0186
 2645W        W22179  16.485   2.481   2.173  0.1773 -0.0476 -0.1577
 2646W        W22180  15.650  12.666   9.735  0.0458 -0.0759  0.1192
 2647W        W22181   5.189   3.807  11.516 -0.0202  0.1305  0.0936
 2648W        W22182   8.632  12.974   4.770 -0.1795  0.0043 -0.0455
 2649W        W22183   0.125   8.377  10.920  0.2396  0.0187 -0.0381
 2650W        W22184  15.348   4.384   9.779  0.0640  0.0659 -0.2382
 2651W        W22185   3.210   0.493   3.174  0.0434 -0.1396 -0.0199
 2652W        W22186   3.141   6.265   2.799 -0.3019  0.1000  0.0411
 2653W        W22187   9.914  13.811   2.602 -0.2293 -0.1961 -0.3224
 2654W        W22188   2.215   9.368  11.754 -0.2759  0.0466 -0.2689
 2655W        W22189  17.742  17.131   1.654  0.2057  0.0624  0.0468
 2656W        W22190  17.191  18.611  10.898 -0.0062 -0.0692 -0.0362
 2657W        W22191  19.312  16.999   0.769 -0.3438 -0.3300  0.3246
 2658W        W22192   2.237   7.622   1.345  0.1480 -0.0501 -0.3100
 2659W        W22193   0.860   1.783  13.858  0.1659 -0.1114  0.0412
 2660W        W22194   6.775  19.457  14.002 -0.2213  0.1481 -0.2197
 2661W        W22195  16.709  12.388   3.609 -0.2069  0.1608  0.1615
 2662W        W22196   5.649   0.104   0.446 -0.2302  0.0152 -0.1112
 2663W        W22197  11.679  17.520   2.969 -0.0284 -0.1075 -0.1392
 2664W        W22198   4.459   1.729   1.956  0.0153  0.1481  0.2073
 2665W        W22199   4.449  13.476  11.007 -0.0233 -0.0657 -0.0058
 2666W        W22200  18.942   5.582  11.876  0.0427  0.0754  0.4433
 2667W        W22201  16.222  12.116  10.333 -0.1733  0.1200  0.0128
 2668W        W22202   9.018  12.282  12.706 -0.4660  0.0766  0.1523
 2669W        W22203   2.722  16.454  12.115 -0.1621  0.0250 -0.1305
 2670W        W22204  11.620  12.166  11.710 -0.0174  0.0850  0.1509
 2671W        W22205  11.951  10.195   1.426 -0.2654 -0.0816  0.2181
 2672W        W22206  18.149  16.636   2.536 -0.3383 -0.1675 -0.0214
 2673W        W22207   8.266   0.597   2.087 -0.1881  0.1280 -0.1431
 2674W        W22208  15.431   4.463   4.062 -0.1297  0.0757 -0.0371
 2675W        W22209   9.096  11.931  13.769  0.1342 -0.1128 -0.0002
 2676W        W22210   1.042   2.806  12.666 -0.1761  0.1453  0.0883
 2677W        W22211  15.057  15.982   1.067  0.0611 -0.4803  0.3086
 2678W        W22212   3.139   6.953  12.349  0.1687 -0.2395 -0.2395
 2679W        W22213   7.167   3.044   2.605  0.0154  0.3904 -0.0252
 2680W        W22214  18.655  13.946  11.795  0.1178 -0.1435  0.0067
 2681W        W22215  12.869  13.056  12.103  0.0589 -0.4195  0.2444
 2682W        W22216   3.963   2.603   9.640 -0.1657 -0.0576 -0.3355
 2683W        W22217   7.987  14.546   3.243 -0.2655  0.3289  0.2022
 2684W        W22218   2.188   8.267  12.928  0.1787 -0.0525  0.2876
 2685W        W22219  15.659  18.132   0.407 -0.1634 -0.3462 -0.0871
 2686W        W22220  17.405  16.482  12.250  0.1106 -0.3146  0.5012
 2687W        W22221  12.867  10.589   3.126  0.0468  0.0649 -0.3121
 2688W        W22222   2.661  11.468  13.399 -0.0989 -0.1004  0.3395
 2689W        W22223   4.493  11.578   0.916 -0.0235  0.1322 -0.2365
 2690W        W22224   3.531  11.610   2.300 -0.0313 -0.1484 -0.0365
 2691W        W22225  10.064   7.337   2.680 -0.0228  0.2527 -0.1407
 2692W        W22226   3.406   8.411   3.959  0.3324 -0.1510  0.1195
 2693W        W22227  13.344  10.193   0.056  0.1360 -0.1020 -0.1910
 2694W        W22228  17.771   5.596  11.857 -0.2244 -0.0086  0.0904
 2695W        W22229  17.780   9.272  12.036  0.0692  0.0180 -0.2059
 2696W        W22230   4.603  11.048   2.277 -0.3870 -0.1009  0.1709
 2697W        W22231   3.331   0.353  10.121  0.0932 -0.1914  0.0591
 2698W        W22232   3.092  16.468  11.166  0.0464  0.1017  0.1342
 2699W        W22233  17.463  10.790   3.282  0.0064 -0.0099 -0.0632
 2700W        W22234  16.387   9.245  13.698 -0.0848  0.1571  0.1139
 2701W        W22235  16.123  18.273  11.992 -0.1215  0.0389  0.2241
 2702W        W22236  13.680   2.978  10.289 -0.1314  0.1290  0.3392
 2703W        W22237  16.227  13.083  11.675  0.0374  0.1153  0.0472
 2704W        W22238   4.915   5.046  11.443 -0.0266 -0.3292  0.0484
 2705W        W22239   3.298  12.094  12.953 -0.2218  0.3203 -0.0294
 2706W        W22240  18.180  15.720  10.221 -0.2016 -0.0978 -0.2486
 2707W        W22241  10.487  10.202  10.676  0.0106  0.1614  0.0793
 2708W        W22242  11.727   5.425   0.677 -0.0922 -0.1758 -0.2490
 2709W        W22243  14.156  13.122   0.150  0.0386  0.1028 -0.0271
 2710W        W22244   6.924  12.695  14.275  0.1272  0.0685 -0.0978
 2711W        W22245   6.083  11.529   0.017  0.1097  0.0285  0.1693
 2712W        W22246  10.233   0.265   0.969 -0.0572  0.2600 -0.2226
 2713W        W22247   2.741  18.389  11.342 -0.0690  0.2459 -0.2888
 2714W        W22248   7.790  18.866   3.467 -0.2639  0.0861  0.0514
 2715W        W22249   4.609  14.134   1.005 -0.0413  0.0613 -0.3836
 2716W        W22250   4.290  18.191  13.578 -0.0697 -0.2448  0.0745
 2717W        W22251  16.658  14.895   1.864 -0.1742 -0.2704 -0.3051
 2718W        W22252  17.025   2.349  10.014  0.1569  0.2895 -0.1334
 2719W        W22253  12.072  11.006   0.164 -0.0715  0.3616  0.3789
 2720W        W22254  17.529   9.461  14.241  0.0522  0.2041 -0.0007
 2721W        W22255  11.145   6.215   4.279  0.1048  0.2917 -0.2042
 2722W        W22256  13.959  14.246  10.758 -0.0378 -0.1818  0.0054
 2723W        W22257   0.186  17.510   3.218  0.2662  0.1977  0.1268
 2724W        W22258   0.693   6.501  12.985 -0.0738 -0.1672  0.1440
 2725W        W22259  17.975   5.709   4.305 -0.0076  0.0144  0.0009
 2726W        W22260  10.541  17.691  11.603 -0.0985 -0.0856 -0.1608
 2727W        W22261   0.294  16.725  13.355 -0.1006 -0.2689 -0.2046
 2728W        W22262  12.714  18.118   0.618  0.0727 -0.1160 -0.0442
 2729W        W22263  11.767   6.217   1.148  0.2322 -0.0259  0.2508
 2730W        W22264   8.272   8.998   3.643  0.0033 -0.1256 -0.1123
 2731W        W22265   7.755   0.345   1.546 -0.1673  0.1860  0.1256
 2732W        W22266   1.727  13.552  12.456 -0.4620  0.0139 -0.1061
 2733W        W22267  16.909  12.893  10.778 -0.0517 -0.2944 -0.0441
 2734W        W22268   8.262  14.711  11.709  0.0993 -0.1142 -0.1961
 2735W        W22269   0.677   4.329   0.347 -0.1104 -0.2419  0.1689
 2736W        W22270  13.931   6.741  12.073  0.2570 -0.3977 -0.3536
 2737W        W22271  15.857   8.349   1.125 -0.4182  0.1732  0.0300
 2738W        W22272   4.513  13.446   1.829 -0.0025 -0.0566  0.4216
 2739W        W22273  17.629   1.608  12.242  0.0471 -0.2529  0.1083
 2740W        W22274   8.932  14.783   1.074  0.0709  0.1139  0.1336
 2741W        W22275   7.366   1.523  10.221 -0.1527 -0.5520 -0.0566
 2742W        W22276   9.766   0.860   2.378  0.0253  0.0593  0.0947
 2743W        W22277  15.544   3.560   1.757 -0.0196 -0.1734 -0.6034
 2744W        W22278   7.936  16.485  11.826  0.0253 -0.1444  0.0190
 2745W        W22279  18.126   0.597   2.009 -0.1576 -0.0786  0.0143
 2746W        W22280  12.460  15.410  10.251  0.0535  0.0498  0.3494
 2747W        W22281  14.112   6.775  12.602 -0.1022 -0.0164 -0.2707
 2748W        W22282  14.507   3.981   2.613 -0.1282  0.2210 -0.2737
 2749W        W22283   5.189  10.089  13.270  0.0204  0.2829  0.2489
 2750W        W22284  14.585  11.619   1.732  0.2581 -0.0279  0.3504
 2751W        W22285   4.994  12.380   1.895  0.0243  0.0222  0.3664
 2752W        W22286  19.238  18.114   2.820 -0.1120 -0.0855  0.1345
 2753W        W22287   7.754   2.066  13.399 -0.3232 -0.0164 -0.2697
 2754W        W22288  13.962   1.428  11.268  0.0224  0.0345 -0.0199
 2755W        W22289  16.294   8.959   2.742 -0.1292  0.1871 -0.2362
 2756W        W22290  14.147   0.390   1.009  0.3477 -0.0048 -0.1044
 2757W        W22291   3.879   1.396  11.121  0.2456 -0.0849 -0.0725
 2758W        W22292   4.038  16.326   1.245  0.1317 -0.1519  0.3672
 2759W        W22293  17.218   3.623  13.979 -0.1460  0.2580 -0.0088
 2760W        W22294   7.914   9.817  13.441  0.0082  0.0439 -0.1775
 2761W        W22295   3.865   2.337  11.039  0.1237 -0.0692  0.1429
 2762W        W22296  15.904   5.481   0.177 -0.0724  0.2045  0.0370
 2763W        W22297  10.157  16.105  11.269  0.1071  0.2139 -0.3697
 2764W        W22298   3.284  11.679   0.379 -0.0546  0.3337  0.0491
 2765W        W22299   9.726   7.243  13.956  0.2827 -0.1642 -0.3140
 2766W        W22300  12.744   4.789  12.377  0.1908 -0.2611 -0.1550
 2767W        W22301   7.913  10.324   4.168 -0.2306  0.1840  0.0450
 2768W        W22302  10.458  17.243  12.739 -0.0002 -0.1889 -0.1049
 2769W        W22303  15.417   7.363  11.440  0.0097  0.3198  0.0731
 2770W        W22304  17.271   3.770   2.192 -0.2547  0.0157 -0.0194
 2771W        W22305  18.398  12.408   0.762 -0.2440  0.0361 -0.3091
 2772W        W22306  11.108  16.922  12.592  0.0901  0.1819  0.0690
 2773W        W22307  13.876   9.259  11.497 -0.1528 -0.0815 -0.0074
 2774W        W22308   6.469   2.202  10.728 -0.0279  0.3819  0.0665
 2775W        W22309  13.699   1.492  12.169  0.0432  0.0793  0.2845
 2776W        W22310  11.749   7.818  11.830  0.0234 -0.0117  0.5792
 2777W        W22311   7.207  10.452   0.058 -0.2265  0.1647  0.0711
 2778W        W22312   7.083  14.047   1.436 -0.1645  0.1315 -0.0862
 2779W        W22313  11.360  15.580   4.954  0.0218  0.0369  0.0479
 2780W        W22314  11.596  17.312  11.943 -0.0295 -0.0113 -0.2164
 2781W        W22315   5.134  17.128   2.229 -0.0644  0.1385 -0.0917
 2782W        W22316  13.087   7.976   0.381 -0.0545  0.0436  0.0048
 2783W        W22317  15.445  15.015  10.436 -0.0427  0.0915 -0.0671
 2784W        W22318   2.189  19.205  11.368  0.0482 -0.0830 -0.2687
 2785W        W22319   0.427   9.614   4.643 -0.1371 -0.1533 -0.2284
 2786W        W22320   3.754  11.199  11.869  0.0511 -0.2186 -0.0749
 2787W        W22321  15.852   8.705  10.214  0.0251  0.1173 -0.0409
 2788W        W22322  14.431   6.281  13.257 -0.2993 -0.1178  0.0618
 2789W        W22323   1.365   4.432  11.076 -0.2238 -0.2109  0.2730
 2790W        W22324   4.772  14.270   1.853  0.1590 -0.2342 -0.0752
 2791W        W22325   5.815   0.052   3.706 -0.2799 -0.1594 -0.2233
 2792W        W22326   2.029  19.173   3.476 -0.2148 -0.0961  0.1524
 2793W        W22327   2.997   2.679   2.888  0.1701  0.2341  0.1525
 2794W        W22328  12.198  12.654   2.253 -0.0174 -0.0842  0.4346
 2795W        W22329   2.511  12.359   1.077 -0.0247  0.2036  0.1533
 2796W        W22330  17.534   2.728   1.870 -0.0703  0.3573 -0.2447
 2797W        W22331   1.200  13.751  10.287 -0.0302  0.0351  0.1375
 2798W        W22332   5.786   7.491   1.088  0.2158  0.2088  0.0993
 2799W        W22333   0.870  17.214   4.042 -0.1243 -0.1826  0.0766
 2800W        W22334  11.412   1.885  12.512 -0.0174  0.1578  0.4148
 2801W        W22335   7.565   7.836   2.300 -0.2185 -0.1105 -0.1720
 2802W        W22336  12.642  15.898  14.019  0.3881 -0.0617 -0.1825
 2803W        W22337   7.403  14.383  11.406 -0.1539 -0.1352 -0.0954
 2804W        W22338  14.636  15.944  14.173 -0.0338  0.1616  0.2505
 2805W        W22339   0.315  13.444   0.733 -0.2600 -0.0807 -0.0037
 2806W        W22340   1.061  10.138   0.113  0.0505 -0.2638  0.0826
 2807W        W22341  19.249  16.740  11.578 -0.2672  0.2247  0.1479
 2808W        W22342  11.711   8.090  12.903  0.1562  0.0297 -0.3781
 2809W        W22343   0.597   3.869  12.523 -0.2115  0.1106 -0.1415
 2810W        W22344  12.864   5.884   0.254 -0.3283 -0.1270 -0.2360
 2811W        W22345   3.956   4.452  11.924 -0.1250  0.2130 -0.0279
 2812W        W22346   9.360  10.709   0.789  0.2108 -0.1578 -0.4445
 2813W        W22347   3.649   0.548   3.529 -0.1732  0.1606 -0.1160
 2814W        W22348   4.090   1.405   3.762 -0.2435  0.1048 -0.1209
 2815W        W22349  15.772   9.214   0.330  0.3414  0.3812  0.2973
 2816W        W22350  15.801   3.014   2.467 -0.1920 -0.1423  0.3219
 2817W        W22351  16.017  16.043   1.310  0.3638 -0.1445 -0.0568
 2818W        W22352   9.780  18.882   0.885  0.3748 -0.0454  0.3719
 2819W        W22353   3.284  13.488  12.303  0.1231 -0.0594 -0.0260
 2820W        W22354  16.062   5.177   0.935  0.1093 -0.0374  0.2029
 2821W        W22355  18.469   1.097   3.432 -0.1341 -0.0367  0.2191
 2822W        W22356  16.043  16.652  11.808 -0.0043  0.0679  0.0698
 2823W        W22357   0.976   2.250   3.892 -0.2722 -0.2297  0.2123
 2824W        W22358  15.432  10.981   3.178  0.1450  0.0552 -0.1534
 2825W        W22359   0.031   2.224  10.789 -0.2043 -0.0990 -0.0829
 2826W        W22360   2.454  11.431   9.613 -0.4647  0.1370 -0.3860
 2827W        W22361   0.815   3.623  13.514 -0.2147 -0.0474 -0.4626
 2828W        W22362  13.884   6.888  13.883  0.2193 -0.3308  0.0014
 2829W        W22363   4.438   4.975  11.281  0.0240  0.0671 -0.0652
 2830W        W22364  10.660   6.866   1.708 -0.0216 -0.1166  0.2331
 2831W        W22365  17.748   0.337   1.887  0.0522 -0.1711  0.1942
 2832W        W22366   2.915  16.710   2.728  0.0788 -0.3818  0.0205
 2833W        W22367   9.980   7.664  11.096 -0.0292 -0.0250 -0.2892
 2834W        W22368   1.850  16.137  11.066 -0.4193  0.1676 -0.1341
 2835W        W22369   8.026   8.511  12.522  0.1254  0.2235 -0.1397
 2836W        W22370  18.358   5.087  12.018  0.2943 -0.0558  0.2811
 2837W        W22371  15.915  18.448  11.572 -0.0442 -0.1736  0.1407
 2838W        W22372   1.604  18.130   1.669 -0.2340 -0.0164  0.0390
 2839W        W22373  19.444  17.439   3.671  0.2946 -0.0999  0.0050
 2840W        W22374  13.484  15.686   1.202  0.0935  0.0604 -0.0385
 2841W        W22375   2.757   2.797   4.248 -0.1164 -0.0969  0.1079
 2842W        W22376  16.964   0.147   2.729 -0.0392 -0.1912  0.0157
 2843W        W22377  13.865  14.155   3.012  0.1047  0.1227 -0.0359
 2844W        W22378   5.243   8.684  12.804 -0.0607 -0.1163 -0.5270
 2845W        W22379  12.458  17.788   4.261 -0.0271  0.2745  0.3310
 2846W        W22380   2.391   7.541   2.638 -0.1190  0.1212  0.1540
 2847W        W22381   4.994   5.411  13.626  0.0191 -0.0614 -0.1301
 2848W        W22382   0.616   1.987   2.621  0.1554 -0.0188 -0.2578
 2849W        W22383  16.750  16.375  11.038  0.0772 -0.1283 -0.0357
 2850W        W22384   3.033  14.259  11.365  0.1534 -0.0163 -0.0479
 2851W        W22385   9.727   1.275  13.549  0.0858  0.2502  0.1862
 2852W        W22386  15.059   1.975   1.634 -0.0622  0.3556 -0.2749
 2853W        W22387   5.767  10.376  12.784 -0.1247  0.2835  0.0845
 2854W        W22388  10.722  14.325  10.481  0.0832  0.3601  0.1016
 2855W        W22389   1.855  11.574  10.362 -0.1187  0.0529 -0.1192
 2856W        W22390   6.684   1.228   1.604 -0.4387 -0.0659 -0.1223
 2857W        W22391  16.868  17.772  13.954 -0.1064  0.3067  0.0320
 2858W        W22392   0.645   7.366  12.718  0.0806 -0.0369 -0.1083
 2859W        W22393  18.520  17.582  12.398  0.2934  0.1726 -0.0573
 2860W        W22394   2.942   9.426  13.550  0.1270 -0.0742  0.1073
 2861W        W22395  16.673   8.822  13.530  0.1297 -0.0444 -0.2653
 2862W        W22396  10.232  18.836   4.028  0.0609 -0.1458 -0.0305
 2863W        W22397  18.026   4.177  11.621  0.1580  0.1315  0.2728
 2864W        W22398   3.916   3.665   2.066  0.1409  0.0243 -0.2942
 2865W        W22399  12.728  14.472   8.756  0.1159 -0.1900 -0.0854
 2866W        W22400  11.055  13.997  11.492 -0.3234 -0.1221  0.1463
 2867W        W22401  14.085  17.095   1.378 -0.0368 -0.0347 -0.1870
 2868W        W22402  15.214  18.921   3.623 -0.2247  0.0799  0.2363
 2869W        W22403   1.552  14.056   3.861 -0.0099 -0.1689 -0.0015
 2870W        W22404  18.799  12.173   1.081  0.0323  0.1631 -0.1285
 2871W        W22405  11.474   7.398  10.160  0.4502 -0.1975 -0.1766
 2872W        W22406  14.887   0.128   0.469 -0.0333 -0.0413 -0.1573
 2873W        W22407  12.064  17.449  13.443  0.3858  0.0593 -0.1657
 2874W        W22408  17.932   8.018  11.613  0.0968  0.1266 -0.0782
 2875W        W22409  13.504   0.814   0.257  0.2988 -0.0421  0.1124
 2876W        W22410   6.416  17.208  11.296  0.0460 -0.1146 -0.0812
 2877W        W22411  12.216   3.996   3.030 -0.1399 -0.4349  0.2927
 2878W        W22412   6.343   2.707   2.218  0.0256  0.0872  0.3645
 2879W        W22413  15.501  14.692   2.888 -0.0937  0.2143  0.2961
 2880W        W22414  14.626  16.505   2.999 -0.1587  0.0270 -0.1754
 2881W        W22415  14.049  18.665  11.988 -0.2549  0.3143 -0.1351
 2882W        W22416  14.838  10.627  11.438  0.1667  0.0951  0.0176
 2883W        W22417   0.547  16.541  14.195 -0.0525 -0.1875  0.1933
 2884W        W22418   8.220   7.612   0.510 -0.0086  0.0171 -0.3208
 2885W        W22419  14.656  15.732   0.698  0.0875 -0.1467  0.1387
 2886W        W22420  13.246  10.778   0.083  0.0474  0.3776 -0.4120
 2887W        W22421   0.398  17.498   0.621  0.2778 -0.4171  0.3378
 2888W        W22422  17.139   1.509   1.462 -0.2052 -0.0169 -0.0746
 2889W        W22423  18.495  18.440   0.904 -0.3534 -0.2869 -0.1547
 2890W        W22424   9.653  12.445   2.359  0.0780 -0.0464 -0.0621
 2891W        W22425   2.852  12.307  12.959 -0.0295  0.1001 -0.0943
 2892W        W22426   3.506   7.949   3.866  0.0980 -0.0095  0.1609
 2893W        W22427  11.181  17.648   9.629  0.3911  0.0355 -0.0562
 2894W        W22428  17.176  18.464  13.125  0.0732  0.1749  0.3653
 2895W        W22429  16.556  16.018   9.787  0.1459 -0.2059  0.0854
 2896W        W22430  14.557   6.497  11.471 -0.0837  0.0764  0.1539
 2897W        W22431  12.405  15.690  13.377 -0.2697 -0.1298 -0.0746
 2898W        W22432   1.109   6.765  11.481 -0.4239 -0.0315  0.1757
 2899W        W22433  13.346  15.298   2.081  0.3576  0.2097  0.2288
 2900W        W22434  15.138  11.041  13.003 -0.3253  0.3131 -0.1431
 2901W        W22435   6.268   1.314  11.045  0.0635 -0.2056 -0.4179
 2902W        W22436   2.895  16.034  11.942 -0.0042 -0.2053  0.1111
 2903W        W22437   4.786   2.276   1.473  0.3048 -0.3357 -0.0462
 2904W        W22438  16.827  14.270   2.998 -0.2243 -0.0115 -0.0312
 2905W        W22439   9.688   0.695   3.578  0.0204  0.0404 -0.2575
 2906W        W22440  17.433   6.164   2.344 -0.1357  0.2535 -0.1556
 2907W        W22441   0.476  12.848   2.536 -0.1671  0.1605  0.0638
 2908W        W22442  15.885   8.675   3.849  0.2386  0.0500 -0.0448
 2909W        W22443   2.023   3.350   2.297 -0.2861 -0.0224  0.3725
 2910W        W22444  16.947  17.121  12.896  0.0154 -0.0208  0.1530
 2911W        W22445  15.164   3.138  12.294  0.3037 -0.0790 -0.0862
 2912W        W22446  13.896  13.792  12.249  0.0478 -0.0709 -0.1770
 2913W        W22447   5.350   6.446  11.095  0.1216 -0.0758 -0.0021
 2914W        W22448  10.939  13.537   4.014 -0.1127 -0.0372  0.0381
 2915W        W22449  17.837  18.090   0.692 -0.2464 -0.2010  0.0904
 2916W        W22450   2.869   0.527   1.365 -0.1024  0.4417  0.2654
 2917W        W22451   9.820   0.598   1.012 -0.0533  0.5350  0.1040
 2918W        W22452   0.551  15.508  12.819  0.1130  0.3026 -0.2346
 2919W        W22453  13.977  17.279  12.259 -0.1577 -0.1827  0.2189
 2920W        W22454   8.710  18.627   4.909  0.1387  0.1537  0.0071
 2921W        W22455   2.168  17.831  13.759  0.1950  0.0718  0.0318
 2922W        W22456   4.520   1.474  11.952  0.0083  0.0760 -0.0105
 2923W        W22457   8.064  14.390   1.604  0.2851 -0.1186 -0.0632
 2924W        W22458   4.808  18.835  12.782 -0.0013 -0.1676 -0.2726
 2925W        W22459   1.776  18.474   4.856  0.1792 -0.3686 -0.0763
 2926W        W22460   6.633   0.050   2.673 -0.0966 -0.2230 -0.3678
 2927W        W22461   9.993   0.218  13.895  0.0964  0.1075 -0.0590
 2928W        W22462  17.486  11.045  11.915 -0.3591 -0.3966  0.2418
 2929W        W22463   9.108   6.043  14.320  0.0267 -0.2015  0.0857
 2930W        W22464   3.177  16.934  11.645  0.4089 -0.2932 -0.1032
 2931W        W22465   2.086  17.136   0.106 -0.0188 -0.0919 -0.0872
 2932W        W22466   1.929  14.116   1.672  0.0326  0.2014  0.0598
 2933W        W22467  19.108  17.731  10.628 -0.2203 -0.0809  0.2720
 2934W        W22468   3.156  17.102   0.884  0.4640  0.0531 -0.2157
 2935W        W22469  10.135  11.311   1.156  0.0061  0.0998 -0.0989
 2936W        W22470   1.179  19.127   2.645  0.1127 -0.2207 -0.0363
 2937W        W22471   5.029  13.785  10.162 -0.2397  0.0097 -0.1635
 2938W        W22472   6.921   9.065  12.462 -0.0340  0.0827 -0.0861
 2939W        W22473   3.159   2.627   9.259  0.1389 -0.0049 -0.1425
 2940W        W22474  19.085   1.631   0.123  0.2898  0.0896 -0.1886
 2941W        W22475   4.831  15.976   1.289  0.0376 -0.0320 -0.0489
 2942W        W22476  15.437  10.049  12.983  0.1654 -0.0444 -0.2640
 2943W        W22477  19.375  16.447   1.924 -0.1035  0.1410 -0.3147
 2944W        W22478  14.326  15.709   1.592 -0.2215  0.0951 -0.0061
 2945W        W22479  18.713  15.411  12.988  0.1896  0.1414 -0.3389
 2946W        W22480  15.912   4.178   4.219  0.1477 -0.1231  0.3656
 2947W        W22481  16.274  19.125  11.413  0.2072 -0.1367  0.0526
 2948W        W22482   6.471  10.367   2.884 -0.3091 -0.0552 -0.2042
 2949W        W22483   4.915  17.890   1.472 -0.1664  0.2588 -0.1541
 2950W        W22484  13.879  13.633   0.312 -0.0826 -0.0215 -0.0910
 2951W        W22485   0.141  18.131  14.010  0.2401 -0.2377  0.0790
 2952W        W22486   4.986   5.693   0.319 -0.0176 -0.0169  0.0658
 2953W        W22487   2.373  15.340  11.074  0.4754 -0.3868  0.0957
 2954W        W22488  13.471   6.519   9.786  0.0649 -0.2297 -0.1386
 2955W        W22489  11.104   7.789   1.999  0.1751  0.3892  0.3775
 2956W        W22490   6.791  11.068   1.092  0.2113 -0.0703  0.0891
 2957W        W22491  17.938   9.489  10.721  0.1034 -0.0934  0.0584
 2958W        W22492   9.937   2.158   1.087  0.1573  0.0845  0.2420
 2959W        W22493   8.058   2.206   1.952 -0.0521  0.0217  0.1401
 2960W        W22494  18.148  10.480   2.656 -0.4070  0.2325 -0.0877
 2961W        W22495  17.919   9.648   3.672  0.2536  0.1382 -0.0226
 2962W        W22496  10.857   5.804  13.797  0.0053 -0.0795  0.2294
 2963W        W22497   6.371  16.032   2.025  0.2914 -0.2999  0.0448
 2964W        W22498   1.706  16.354   2.118 -0.2241 -0.0609  0.0732
 2965W        W22499   1.308   4.647  10.020 -0.0205 -0.2428 -0.1633
 2966W        W22500  10.067   0.717  10.924  0.1053 -0.2498 -0.3529
 2967W        W22501  11.472  17.216  10.607  0.0522  0.2009 -0.2032
 2968W        W22502  13.575  12.576  13.923 -0.2897  0.1651 -0.1545
 2969W        W22503  12.884  18.641   1.725  0.2621  0.2201  0.0284
 2970W        W22504   6.828   1.049   3.842 -0.0349  0.0056 -0.1492
 2971W        W22505  18.430   1.775   1.378 -0.1220 -0.0366 -0.1984
 2972W        W22506   1.144  18.675  10.916  0.0663 -0.0638 -0.0228
 2973W        W22507   6.816  16.030   2.358  0.2515 -0.0402  0.1907
 2974W        W22508  16.094  12.667  11.214  0.4112  0.2281  0.1234
 2975W        W22509  16.553   9.401   0.526  0.2454 -0.1888 -0.3287
 2976W        W22510   9.251   8.935   3.059 -0.2770 -0.1207  0.0444
 2977W        W22511  15.660   7.003   1.725  0.3120 -0.4437  0.0281
 2978W        W22512   3.360   1.258  14.148  0.2713  0.3011 -0.2368
 2979W        W22513  16.543  14.832  13.532 -0.4574 -0.2381  0.0480
 2980W        W22514  10.919  16.065   0.957  0.2545  0.1025  0.0963
 2981W        W22515   6.763  13.864   0.004  0.0304  0.1524  0.0168
 2982W        W22516   7.594   8.412  13.910 -0.0335 -0.1380 -0.0807
 2983W        W22517   6.442   1.658  14.062  0.0160  0.0105  0.1055
 2984W        W22518  13.134  16.861   2.061  0.3443 -0.2324  0.0336
 2985W        W22519  13.954  16.929  12.627  0.1302  0.0090  0.4619
 2986W        W22520   7.907  10.120  13.822 -0.1235  0.1532 -0.0887
 2987W        W22521  17.505   3.514  10.406  0.0108  0.0567  0.0290
 2988W        W22522  16.268  14.866  10.779  0.0690 -0.0451 -0.0724
 2989W        W22523  14.048   3.758  10.500  0.2194 -0.0619 -0.2453
 2990W        W22524   0.267   7.045   0.764  0.3704  0.4448 -0.3123
 2991W        W22525  13.591   5.692   2.245  0.0603  0.2145 -0.1663
 2992W        W22526   9.587   1.816   2.766 -0.0480  0.3437  0.0058
 2993W        W22527   7.053   5.634   2.867 -0.0091  0.0352  0.0059
 2994W        W22528   6.443   7.530  12.780 -0.2667  0.3574  0.2884
 2995W        W22529   1.109   2.505  13.141 -0.5550 -0.3105  0.0584
 2996W        W22530  14.793  16.954   1.327  0.0731 -0.0526 -0.1493
 2997W        W22531  13.087   8.622   1.090  0.1773  0.1272 -0.2796
 2998W        W22532   4.015   3.870   3.267 -0.1401  0.1266  0.1339
 2999W        W22533   1.227   7.911  13.261  0.0577 -0.2428 -0.1141
 3000W        W22534  11.751  19.345  14.201  0.0739  0.0174  0.2586
 3001W        W22535   6.290  15.460   3.073 -0.0031  0.1652 -0.0917
 3002W        W22536  18.834  18.787   2.944  0.2986 -0.2067 -0.0140
 3003W        W22537  11.062  17.747  11.912  0.0770 -0.2122  0.0855
 3004W        W22538  15.871  16.410   1.043 -0.0298 -0.2891  0.0781
 3005W        W22539   2.884  19.227   0.261 -0.0685 -0.1827 -0.2361
 3006W        W22540  16.840   9.999  14.139 -0.2342 -0.4083  0.1404
 3007W        W22541  10.470  13.838   2.606  0.2980  0.0588  0.0033
 3008W        W22542   7.928   6.889  11.353 -0.0509  0.0829  0.0563
 3009W        W22543  11.213  12.991  12.892 -0.4016  0.2536 -0.1909
 3010W        W22544  12.195  16.905  11.657 -0.2269 -0.5386 -0.0080
 3011W        W22545   5.012   6.574   0.294  0.1354  0.2347  0.0428
 3012W        W22546   9.372   4.397   9.288  0.0903  0.0382 -0.3899
 3013W        W22547  10.932   7.322   2.807  0.0600  0.1442  0.0201
 3014W        W22548   6.246   8.159  14.203 -0.1757 -0.0692 -0.1165
 3015W        W22549  16.823  16.553   2.434 -0.1656 -0.2360  0.3232
 3016W        W22550   6.099   3.709  11.069  0.1129 -0.2248 -0.0945
 3017W        W22551  16.449   3.872   9.692  0.1686 -0.2534  0.0241
 3018W        W22552  12.011  18.003   2.287 -0.0593  0.1047  0.1490
 3019W        W22553  10.049   4.675   2.811  0.2514  0.3756  0.3163
 3020W        W22554  10.016   5.754  12.760 -0.1677  0.2740 -0.0036
 3021W        W22555   0.396   1.902   1.635  0.1040  0.0207 -0.4658
 3022W        W22556   3.335   1.772  14.136 -0.1249  0.0401 -0.4703
 3023W        W22557  17.826  10.107   1.388 -0.0222  0.0065 -0.0168
 3024W        W22558   9.845   9.765  13.744  0.2264  0.0056 -0.2203
 3025W        W22559   5.862  11.943   2.264  0.0987 -0.0035 -0.0602
 3026W        W22560  11.802   5.001  12.931 -0.2451  0.1453  0.2301
 3027W        W22561  16.726  11.312  11.436 -0.3560 -0.3025  0.2201
 3028W        W22562   0.991   0.913   3.397 -0.0462  0.1385  0.0088
 3029W        W22563  10.787   2.818  13.876  0.0686  0.0721  0.2104
 3030W        W22564   3.815  17.352  14.268 -0.0384 -0.5069  0.0762
 3031W        W22565   2.448  13.726   0.190  0.1158 -0.0089 -0.3195
 3032W        W22566   7.303   4.567   5.361 -0.0054 -0.2817 -0.0526
 3033W        W22567   2.516   4.715   2.362  0.1025  0.0332  0.3192
 3034W        W22568   3.884  19.444  11.607 -0.0390  0.2860 -0.0902
 3035W        W22569  18.441   1.485  12.768  0.3379  0.3018  0.1775
 3036W        W22570   4.060   2.353   2.438 -0.1515 -0.0132 -0.2605
 3037W        W22571  14.992  17.231  11.098  0.0271 -0.1564  0.0423
 3038W        W22572  16.170   7.133  11.611  0.1512  0.1881 -0.2346
 3039W        W22573   7.785  15.356   3.172  0.1720  0.0479  0.0688
 3040W        W22574  11.655  16.606  12.672 -0.1159  0.5491  0.0611
 3041W        W22575   8.884  17.897  11.943  0.4186  0.0020 -0.1762
 3042W        W22576  13.117   5.415   3.553 -0.0253  0.1120  0.1686
 3043W        W22577  12.167  19.098  13.225  0.0440 -0.2719 -0.0546
 3044W        W22578   0.430  17.687  10.379  0.0671  0.0013 -0.0383
 3045W        W22579   1.456  11.155   2.312 -0.0073  0.0138 -0.1400
 3046W        W22580   2.594  13.151   1.756 -0.1765 -0.0575  0.1168
 3047W        W22581   2.063  12.829  13.292  0.2795 -0.0573 -0.1097
 3048W        W22582  17.590   0.500   2.310 -0.0918 -0.4605  0.0111
 3049W        W22583   7.839   6.669   2.932  0.0432 -0.0352 -0.0199
 3050W        W22584   4.602  11.359   3.344 -0.3204 -0.2515 -0.4775
 3051W        W22585   1.577  15.420  12.829  0.2023  0.1159 -0.0367
 3052W        W22586   5.431   6.764  11.864  0.0160 -0.1002 -0.2065
 3053W        W22587   6.766   0.808  11.811  0.1820 -0.0879 -0.1590
 3054W        W22588  19.513   6.639  13.767 -0.0212  0.0227  0.0513
 3055W        W22589   0.344   8.054   4.027  0.3163  0.1145 -0.2989
 3056W        W22590   1.064   8.336   3.364 -0.0006 -0.1831  0.0765
 3057W        W22591   0.855  11.468  11.874  0.1265  0.0567 -0.1019
 3058W        W22592   6.935  18.855  10.594 -0.1331 -0.2293 -0.2740
 3059W        W22593  10.071   9.751   2.975 -0.2446 -0.1134 -0.1385
 3060W        W22594  18.061   2.271  14.257  0.1839  0.1883 -0.2195
 3061W        W22595   4.420   3.277   1.256 -0.2672 -0.0058  0.1785
 3062W        W22596  15.404   7.672   2.264  0.2656 -0.1781  0.1880
 3063W        W22597   8.381  16.898   1.326  0.1024 -0.0755  0.0487
 3064W        W22598  19.534  14.740   1.990  0.0511 -0.4252 -0.1046
 3065W        W22599   7.133  19.411   3.015  0.0225  0.2330  0.2601
 3066W        W22600  16.825  19.356  13.351 -0.0436 -0.2699 -0.0415
 3067W        W22601  12.089   8.197  11.952  0.0357 -0.0559  0.2184
 3068W        W22602   8.576  15.600   0.791  0.2500  0.3602  0.1081
 3069W        W22603   5.740  12.162   0.831  0.3115  0.1351  0.1276
 3070W        W22604  10.040  11.377   2.017 -0.1260  0.2252  0.1582
 3071W        W22605   9.490  19.269   0.911 -0.0823  0.3813 -0.1577
 3072W        W22606  18.625   1.342  10.927 -0.2037 -0.1456 -0.0428
 3073W        W22607   0.078   6.582  11.703  0.1541 -0.2791 -0.2369
 3074W        W22608   8.780   1.998  13.125 -0.0222  0.1606  0.1747
 3075W        W22609  11.944   4.220   2.613 -0.0358 -0.0104  0.0027
 3076W        W22610  10.411  10.846   2.804  0.1058  0.0387 -0.0295
 3077W        W22611  11.905   6.323   0.115 -0.2470  0.0751  0.0176
 3078W        W22612   6.952  10.321  11.832 -0.1226  0.1114  0.0254
 3079W        W22613   6.260  14.869   9.535  0.2342 -0.3178 -0.0215
 3080W        W22614  14.638   9.799   1.983  0.1893  0.1953  0.0651
 3081W        W22615  10.329   2.153  10.609  0.0075  0.0989  0.0216
 3082W        W22616  14.798   5.164   0.425 -0.0698 -0.0714 -0.1032
 3083W        W22617   8.920   8.224  13.411 -0.1892 -0.3020  0.3816
 3084W        W22618   2.985   1.447   0.714  0.2656  0.1849  0.3901
 3085W        W22619   4.688   7.970   0.599 -0.2861 -0.1770 -0.3922
 3086W        W22620  19.421  16.795   3.703  0.0145 -0.1908 -0.1579
 3087W        W22621  11.952   8.680   3.028  0.2916 -0.0802 -0.0803
 3088W        W22622   2.630   5.952  11.255  0.1139 -0.2702 -0.0356
 3089W        W22623  13.426  10.175  11.719  0.1483  0.3594  0.0281
 3090W        W22624  12.666   9.010   3.547 -0.0671  0.1018 -0.1753
 3091W        W22625  18.519  15.109   2.807 -0.1087  0.0817  0.1764
 3092W        W22626  16.962  17.440   1.832  0.2757  0.0640  0.1274
 3093W        W22627  15.150   7.884  12.947  0.0587  0.0563 -0.2276
 3094W        W22628   6.132   5.772  13.434  0.1777  0.2220 -0.4005
 3095W        W22629   4.319  14.109  12.682  0.0624 -0.1784 -0.0231
 3096W        W22630   1.792  19.330  11.674  0.3236  0.0537 -0.1141
 3097W        W22631  19.468   3.123  12.470  0.0935  0.0551  0.3102
 3098W        W22632  11.577   3.390   3.827 -0.0351 -0.1631  0.2790
 3099W        W22633   5.580  17.193   1.565  0.3445 -0.0088  0.0278
 3100W        W22634  18.700  11.247   3.411  0.0215 -0.0957 -0.3890
 3101W        W22635  18.710   3.695   2.238  0.2013  0.1402  0.1227
 3102W        W22636   5.386   6.762   0.726 -0.0482 -0.1198 -0.1710
 3103W        W22637  12.174   1.475  13.515 -0.0282  0.1554 -0.1500
 3104W        W22638  12.277  14.621  14.070 -0.0320  0.0044 -0.0222
 3105W        W22639   2.684   7.224  12.507  0.3928 -0.2687 -0.2730
 3106W        W22640   7.238   6.431   0.680  0.0744  0.1702 -0.3949
 3107W        W22641  16.121   3.244   1.882  0.0157 -0.0196 -0.1424
 3108W        W22642  11.984   0.792  13.450 -0.3613 -0.3587 -0.2092
 3109W        W22643   4.522   7.820   4.023  0.0319  0.1274  0.0730
 3110W        W22644   0.147  17.930   3.570 -0.0181  0.1510  0.0839
 3111W        W22645  10.985   2.159  12.725 -0.0032  0.0778 -0.0213
 3112W        W22646   6.437  10.265  12.021 -0.2275 -0.1592 -0.1209
 3113W        W22647   9.675  19.159  10.814  0.0677 -0.2367  0.0375
 3114W        W22648   8.487   3.286  12.328  0.1580  0.3736 -0.0820
 3115W        W22649   9.206  13.936   9.042  0.0640 -0.0349  0.1896
 3116W        W22650   5.627  15.769  11.189 -0.0427 -0.1850  0.1478
 3117W        W22651  13.473  14.260   2.031 -0.1119  0.0110 -0.1144
 3118W        W22652  14.778   8.461  13.426  0.0046 -0.1707  0.0697
 3119W        W22653  10.258  18.246   3.836 -0.1826 -0.0914 -0.0737
 3120W        W22654   1.316   3.379   3.456 -0.1997  0.4384  0.0581
 3121W        W22655   5.698  15.507   0.911  0.0795 -0.2937  0.0497
 3122W        W22656  15.642   9.690   1.818  0.0683 -0.0960 -0.0043
 3123W        W22657  18.813   4.296  10.994  0.1539 -0.2936 -0.0942
 3124W        W22658  11.449   4.983  13.902 -0.2034 -0.1513 -0.1751
 3125W        W22659  19.258   9.787   3.370  0.0959  0.2928  0.0959
 3126W        W22660  10.201  17.125   2.231  0.2377  0.0162  0.3203
 3127W        W22661  19.009  11.306   2.443  0.3296  0.0038  0.2480
 3128W        W22662  12.079   5.519   2.779  0.1415  0.2577 -0.1344
 3129W        W22663   1.432  16.764  11.837 -0.6118 -0.1398  0.0508
 3130W        W22664   2.090   7.817   2.222 -0.1144 -0.1606 -0.4349
 3131W        W22665  11.415   0.174  11.013  0.0489 -0.2527 -0.2126
 3132W        W22666  12.641  10.143  13.696  0.3127 -0.3127 -0.0970
 3133W        W22667  16.634  19.327  12.909 -0.2884 -0.0379 -0.2277
 3134W        W22668   0.464   4.526   2.060 -0.2220  0.3884  0.0715
 3135W        W22669  12.801  17.313   2.976 -0.2588  0.2077  0.0686
 3136W        W22670   5.675   5.316   3.849 -0.1336  0.0929 -0.0598
 3137W        W22671   5.178   0.740  13.072  0.1629  0.3147  0.1565
 3138W        W22672   1.551   2.792   0.267 -0.2531  0.2424  0.0756
 3139W        W22673   6.906   9.649   3.221 -0.0845 -0.1085 -0.0951
 3140W        W22674   3.277   3.790   3.692  0.1109 -0.0953  0.3834
 3141W        W22675   7.535   8.295   0.084 -0.0221 -0.0189 -0.1473
 3142W        W22676   7.851  10.147  11.453  0.1768 -0.0595  0.1578
 3143W        W22677  11.288  12.204   1.854 -0.2324 -0.1423  0.3165
 3144W        W22678   8.646   0.529   4.612  0.0822  0.0014  0.2286
 3145W        W22679  18.846   2.781  13.669  0.1587 -0.3401 -0.0669
 3146W        W22680   1.133   6.210  11.102  0.1918  0.0010  0.0943
 3147W        W22681   1.171   5.604   3.834  0.0979  0.1832 -0.2624
 3148W        W22682  11.900   9.808  14.131 -0.0222  0.0701  0.0655
 3149W        W22683   1.253  16.210   2.962 -0.0716 -0.0887 -0.1918
 3150W        W22684  13.402  17.097  13.034 -0.0905  0.1118 -0.3033
 3151W        W22685  14.072  12.911   2.417 -0.2277 -0.1221 -0.1949
 3152W        W22686   5.750  13.174   0.479  0.3201 -0.0829 -0.1295
 3153W        W22687  16.775  13.623   1.623 -0.1883 -0.2126  0.1915
 3154W        W22688   9.219  15.733  12.236 -0.3970  0.0486  0.0525
 3155W        W22689   7.693   6.010   1.007  0.3315  0.2136 -0.0467
 3156W        W22690   8.834  12.637   3.607 -0.0854  0.1302  0.1518
 3157W        W22691  17.816   1.808   0.762  0.1017 -0.0106 -0.2644
 3158W        W22692   9.809   9.049   1.353  0.1762  0.1481  0.2639
 3159W        W22693   3.203   2.163   4.783  0.1409  0.1114  0.0004
 3160W        W22694   3.447  17.322  12.653 -0.0613 -0.3183 -0.3371
 3161W        W22695  12.450   9.338   0.133  0.2211  0.2330 -0.1274
 3162W        W22696  13.968   4.840   3.484  0.2875 -0.0120  0.2412
 3163W        W22697   0.538   2.392   0.007  0.0560  0.0973 -0.0808
 3164W        W22698   0.583   1.854   2.125 -0.0332  0.1278 -0.1084
 3165W        W22699   7.471  17.371  12.894 -0.3916  0.4841  0.0507
 3166W        W22700   4.199   5.844  12.281 -0.1348 -0.4045  0.1022
 3167W        W22701  10.336  10.875  11.311  0.0989  0.0799 -0.0730
 3168W        W22702  10.915   1.320   0.403  0.1763  0.1074 -0.3399
 3169W        W22703  14.290   0.755   0.184 -0.1358 -0.2222 -0.0251
 3170W        W22704   1.810   6.590   3.408 -0.0477 -0.1492 -0.0260
 3171W        W22705   0.673  12.165   1.462  0.1329 -0.0272  0.2965
 3172W        W22706  14.861  16.766   0.858  0.1237 -0.2499 -0.1841
 3173W        W22707  14.511   0.099  12.778 -0.3161 -0.1348  0.3376
 3174W        W22708  10.380   3.085   1.305  0.0814 -0.2592  0.0317
 3175W        W22709   8.843   6.423  10.654  0.0651  0.3360 -0.2770
 3176W        W22710   5.137   3.815   1.657 -0.1920  0.1034  0.1982
 3177W        W22711  17.276  14.165  10.287 -0.0470  0.0137 -0.3027
 3178W        W22712  17.082   9.667  11.837 -0.1568 -0.3965 -0.0201
 3179W        W22713   2.179  15.048   4.842  0.3107 -0.0738  0.1393
 3180W        W22714   7.784   5.770   3.514 -0.0084 -0.0145  0.0692
 3181W        W22715  17.683  15.451  13.948  0.0634 -0.1400 -0.2396
 3182W        W22716   4.631   1.116  10.489 -0.2890 -0.3312 -0.0852
 3183W        W22717  12.824  16.880  12.472  0.2221  0.1769  0.0462
 3184W        W22718   4.631   6.568  14.256  0.0861  0.2017 -0.2811
 3185W        W22719  15.656   2.090   1.483  0.4395 -0.1154 -0.0473
 3186W        W22720  17.688  14.915   3.368  0.1416 -0.2300 -0.0223
 3187W        W22721   6.659   4.012   4.363 -0.0393 -0.2720 -0.0288
 3188W        W22722  13.009  12.415   1.094 -0.1121 -0.1035 -0.4019
 3189W        W22723  16.675   9.412  12.156  0.0986  0.0930 -0.1818
 3190W        W22724   1.386   3.808  13.546  0.1726  0.0832 -0.2889
 3191W        W22725   6.981   2.760  13.261 -0.2485  0.1518 -0.2374
 3192W        W22726   7.714  17.837  10.350 -0.0926  0.0972  0.1251
 3193W        W22727   0.632  12.036   2.911 -0.0724  0.1948  0.3207
 3194W        W22728  16.054  10.516  11.567  0.3061 -0.0432 -0.0010
 3195W        W22729  18.353  13.508   0.881 -0.1827 -0.2691  0.0704
 3196W        W22730  10.439  15.535   9.852  0.1020  0.0336 -0.2762
 3197W        W22731  14.016   0.286   1.865  0.0718 -0.0829  0.1990
 3198W        W22732   6.112  15.059   0.928  0.1675 -0.3935  0.1344
 3199W        W22733  19.150   5.561  13.021  0.1522 -0.2110  0.0084
 3200W        W22734   7.014   0.712  13.274 -0.0534  0.0229  0.1657
 3201W        W22735   5.886  16.064   1.666 -0.0167  0.1464 -0.1079
 3202W        W22736   3.097   6.552   0.691  0.0883 -0.0027 -0.1833
 3203W        W22737   3.951  11.422   1.441 -0.0635 -0.1829  0.1365
 3204W        W22738  11.401   4.219   4.350 -0.1984  0.2030  0.1213
 3205W        W22739  12.720  14.682   3.288 -0.2787 -0.1272  0.0066
 3206W        W22740   3.959   4.197   0.122 -0.0126 -0.1797  0.4248
 3207W        W22741   9.629   6.191   2.103 -0.0274 -0.0390 -0.1790
 3208W        W22742   4.080  18.802   3.436  0.0000 -0.0256  0.0482
 3209W        W22743  13.919  15.534   9.692  0.0007 -0.1699 -0.2966
 3210W        W22744  11.171   6.587  12.204  0.2703  0.1182  0.3709
 3211W        W22745   9.289   2.137   3.483  0.0925 -0.0150  0.0423
 3212W        W22746   0.451  16.043   0.712  0.0150 -0.0700  0.0367
 3213W        W22747   1.641   6.727   4.502  0.4168 -0.0486 -0.1747
 3214W        W22748   1.859   8.695   3.069  0.2004 -0.2675  0.1792
 3215W        W22749   9.693   9.748   3.249 -0.2125  0.0612 -0.0318
 3216W        W22750   7.675  11.825   3.008 -0.2908  0.1702  0.1490
 3217W        W22751   5.891   8.489  13.874 -0.1251 -0.0688  0.3185
 3218W        W22752   1.775  15.649  13.291  0.0348  0.3349 -0.0545
 3219W        W22753  16.771  10.880   3.481 -0.2147  0.0599  0.1333
 3220W        W22754   5.362  14.620  10.261 -0.0415  0.0007  0.2209
 3221W        W22755  16.318  18.228   0.116  0.0884 -0.1645 -0.0767
 3222W        W22756  15.740  12.147   0.316  0.1411  0.0380 -0.4205
 3223W        W22757   6.521  10.623  13.129 -0.4272  0.1631 -0.1093
 3224W        W22758  18.245   8.720  12.649 -0.0443  0.4755  0.2447
 3225W        W22759   4.951  16.132  13.628 -0.1609  0.2491  0.2014
 3226W        W22760  14.546  13.255   3.797 -0.1420 -0.0631  0.1635
 3227W        W22761  13.481   1.211   2.068  0.0461  0.3917  0.1527
 3228W        W22762  14.924  18.707  10.696  0.0690 -0.4866  0.2396
 3229W        W22763  14.920   3.970  10.560  0.0835  0.2643  0.3303
 3230W        W22764   1.481   7.243   1.627  0.4968  0.0033 -0.1075
 3231W        W22765  11.858  14.726  13.888 -0.3217 -0.0585 -0.2149
 3232W        W22766   3.323  15.143   3.449  0.0905  0.1608  0.2269
 3233W        W22767   9.885   3.715  12.824  0.0767 -0.2576  0.0169
 3234W        W22768   8.122  15.090   2.323  0.1472  0.1209 -0.1954
 3235W        W22769  18.524   9.907  11.296 -0.0287  0.3871 -0.0056
 3236W        W22770  11.112   4.572   2.850  0.1804  0.2113 -0.0938
 3237W        W22771   6.905   5.078   0.919  0.1139  0.1765  0.1549
 3238W        W22772   4.192   1.962   3.624  0.0370 -0.0198 -0.3058
 3239W        W22773   8.136   8.238   4.832  0.3676  0.0819  0.1643
 3240W        W22774  14.772  12.719  10.111 -0.3249  0.0525 -0.2284
 3241W        W22775  18.523  12.480  10.497  0.2097 -0.1757 -0.0682
 3242W        W22776  14.050   5.758  14.147 -0.1302 -0.5942  0.0032
 3243W        W22777  12.252   4.145   0.023  0.0747 -0.1595 -0.0155
 3244W        W22778   8.966   5.395  12.954  0.1050 -0.1373 -0.1741
 3245W        W22779   6.846  19.434  13.319  0.1746  0.1052  0.1922
 3246W        W22780   9.088  17.671  13.927 -0.2585  0.1943 -0.2103
 3247W        W22781   5.334   7.561  12.167 -0.2386 -0.2170  0.2565
 3248W        W22782   5.107   1.313   0.665  0.0773  0.0425  0.2118
 3249W        W22783  13.090  18.705   1.292  0.0794  0.2517  0.0149
 3250W        W22784   2.229  17.998  12.579  0.1500  0.3828 -0.2332
 3251W        W22785   5.636   0.223  11.543 -0.2629  0.0385 -0.1557
 3252W        W22786  15.833  10.350  12.807  0.0567 -0.0905 -0.3426
 3253W        W22787  12.068  18.220   3.481 -0.0319 -0.0467  0.1389
 3254W        W22788  14.999  17.092  12.136 -0.2430 -0.1440  0.0400
 3255W        W22789   9.290  13.077  10.879 -0.1507 -0.4026  0.2043
 3256W        W22790  11.724  15.660   0.717 -0.1803  0.2700 -0.2713
 3257W        W22791   1.308   5.013  13.557  0.0889 -0.6453 -0.1784
 3258W        W22792  10.228   0.831   0.877  0.0122  0.1233  0.3225
 3259W        W22793  11.836   2.220  10.550 -0.3376  0.1154  0.2110
 3260W        W22794  13.217  19.039   2.833 -0.1312  0.0351  0.0027
 3261W        W22795   3.667   8.897  13.667  0.3114  0.3025 -0.1560
 3262W        W22796   0.753   8.048   1.100  0.1180 -0.1752 -0.2010
 3263W        W22797   4.897   1.847  11.994 -0.2330 -0.0494 -0.0090
 3264W        W22798  13.155  17.287   1.619  0.0795 -0.3035 -0.2738
 3265W        W22799   4.251   8.076   3.396 -0.1186  0.0422  0.0602
 3266W        W22800  13.144  18.285  10.697 -0.1813 -0.3144  0.0501
 3267W        W22801  17.815   3.396  10.784 -0.2259 -0.1015 -0.0645
 3268W        W22802  11.368   8.435   0.870  0.2771  0.2202 -0.1097
 3269W        W22803  18.612   5.993  11.826 -0.1563 -0.2290  0.0270
 3270W        W22804  18.739   5.183  12.985 -0.2896 -0.0087 -0.2300
 3271W        W22805  17.403  14.793   1.131  0.7587 -0.0548  0.1749
 3272W        W22806  19.522   1.858   1.994 -0.1390  0.1739 -0.0828
 3273W        W22807   5.281  10.011  12.138 -0.1409 -0.0326 -0.1870
 3274W        W22808   7.366  14.096   3.774  0.1810  0.1840  0.1406
 3275W        W22809  12.792   4.755  11.842  0.1704  0.0705  0.2290
 3276W        W22810  14.373  18.649  14.037 -0.0808  0.1217  0.5847
 3277W        W22811   8.931   9.761   3.409  0.2425  0.1203  0.3183
 3278W        W22812  17.717   5.006   1.578  0.2567 -0.0026  0.1015
 3279W        W22813  16.034   7.569  12.227 -0.1284 -0.1658  0.0660
 3280W        W22814  11.053  10.920  13.356  0.0454 -0.0771 -0.2069
 3281W        W22815  11.373  10.735  10.757 -0.0393 -0.2047 -0.1410
 3282W        W22816   5.122  12.102  12.971  0.1387  0.0008  0.2548
 3283W        W22817  17.003  13.562   0.833  0.0655 -0.0432  0.0678
 3284W        W22818  16.003  11.312   9.353 -0.0762  0.1635 -0.0919
 3285W        W22819   7.889   1.455  14.182  0.1083  0.0436 -0.2057
 3286W        W22820   0.772  11.321   4.066  0.1021 -0.1988  0.0611
 3287W        W22821   0.446  11.738   1.576 -0.0289  0.1113  0.1024
 3288W        W22822   4.224   9.768  11.987  0.0769  0.0783 -0.5695
 3289W        W22823  12.665  11.828  14.221  0.0354  0.0427 -0.3753
 3290W        W22824  13.006   7.036   5.537  0.0958  0.1304  0.1192
 3291W        W22825  15.431   5.964  13.586  0.3840 -0.1833 -0.1772
 3292W        W22826   2.834  11.869   0.252  0.1694  0.0398  0.1416
 3293W        W22827   3.510  11.845  10.540  0.1029 -0.2449 -0.1959
 3294W        W22828   1.300   5.247   1.299 -0.0301  0.3874  0.1147
 3295W        W22829   2.219   0.066   3.972 -0.1088 -0.0088  0.3873
 3296W        W22830  13.219  18.919  13.414 -0.1555 -0.1168  0.0200
 3297W        W22831  17.703   9.668  11.165  0.0800  0.3359  0.0522
 3298W        W22832  16.743  15.056   0.118  0.1587  0.3287 -0.0203
 3299W        W22833  12.580  14.493   0.699  0.0695  0.2225  0.1399
 3300W        W22834   0.437  13.538   3.391  0.1809 -0.0914  0.0057
 3301W        W22835  18.529   6.061  14.231  0.1104  0.1493 -0.1776
 3302W        W22836   5.354  11.691  12.916  0.0962  0.1125  0.0909
 3303W        W22837   3.761  10.217  14.316 -0.0941  0.0988 -0.3484
 3304W        W22838   9.145  15.934  10.226  0.3330  0.0651  0.2522
 3305W        W22839  15.122  16.441  13.835  0.2246  0.1024  0.1250
 3306W        W22840   7.704   4.800  11.458  0.0068 -0.3025  0.4757
 3307W        W22841   6.962  17.941   3.743 -0.0571  0.1895 -0.1758
 3308W        W22842  18.815  18.188   3.572  0.0224 -0.1095  0.2848
 3309W        W22843   9.820  18.098   9.465  0.0199 -0.0174  0.0665
 3310W        W22844   8.670  18.371  13.976  0.1756  0.5048 -0.1328
 3311W        W22845  18.185  11.270  11.356  0.0188  0.0721 -0.0410
 3312W        W22846  14.861   2.232   4.906 -0.1289 -0.2514 -0.1612
 3313W        W22847  14.710  19.282   0.781  0.1489  0.2827  0.1807
 3314W        W22848  11.894  16.187  12.748  0.2035 -0.2334  0.2466
 3315W        W22849  10.882  10.853   4.014 -0.0035  0.2502 -0.2185
 3316W        W22850  18.009   0.000   3.353 -0.2144 -0.0621  0.3637
 3317W        W22851   2.208  16.249  10.641 -0.0329 -0.1050 -0.3378
 3318W        W22852   5.941  15.759   5.092 -0.1685 -0.0614 -0.0101
 3319W        W22853  12.050  18.315  11.180  0.1637  0.1137 -0.1637
 3320W        W22854  10.195   1.516  13.421 -0.0593  0.0608  0.0116
 3321W        W22855  13.882   1.676   2.167 -0.1417 -0.0937  0.2273
 3322W        W22856  11.607  10.861   3.225  0.1328  0.4200 -0.0685
 3323W        W22857   1.201   3.225  10.426  0.1332  0.2243 -0.0142
 3324W        W22858  13.058   6.411   0.845 -0.2409 -0.0029  0.0583
 3325W        W22859   6.669   3.575  13.708  0.3360  0.1735  0.2649
 3326W        W22860   4.614  12.067   1.569 -0.2039 -0.0422  0.3259
 3327W        W22861  18.377  15.064  11.229  0.0818 -0.0324  0.0486
 3328W        W22862  18.002  19.221   2.476 -0.0963  0.0612  0.0649
 3329W        W22863   2.062  14.212  11.355 -0.1754  0.2475 -0.2025
 3330W        W22864  11.827  10.392  13.808  0.0827 -0.1896 -0.1573
 3331W        W22865   0.810  13.105  12.790  0.2478 -0.2595 -0.4189
 3332W        W22866   4.397  11.708   2.492  0.0836  0.0023 -0.2744
 3333W        W22867  13.778   3.910  13.454  0.1584  0.2006 -0.0545
 3334W        W22868  17.724   1.051   4.214 -0.0113 -0.2056  0.1195
 3335W        W22869  10.051   6.346   3.637 -0.0017  0.2132  0.1615
 3336W        W22870   8.880  17.245  13.725 -0.0806  0.1683 -0.1974
 3337W        W22871   0.589   8.936   1.635 -0.2280 -0.2249 -0.1067
 3338W        W22872  18.150   5.959  12.202  0.0670 -0.1290 -0.1677
 3339W        W22873  16.152  14.934  13.875 -0.0335 -0.2493 -0.3099
 3340W        W22874   1.872  15.632   1.052  0.1855  0.4357 -0.1342
 3341W        W22875  19.514  13.007   2.877 -0.1161 -0.1112 -0.1307
 3342W        W22876  15.411   0.682  11.486 -0.1030 -0.0267 -0.2400
 3343W        W22877   8.998  16.457  12.024 -0.3077 -0.0697 -0.0735
 3344W        W22878  19.008  15.003   1.594 -0.0739  0.3345  0.2385
 3345W        W22879  13.508   1.362   5.348 -0.2182 -0.2902  0.1472
 3346W        W22880  12.134   5.479   1.037  0.3267  0.2158  0.1725
 3347W        W22881   1.273  19.124  11.011  0.0882  0.0506 -0.2008
 3348W        W22882   8.680   8.818   0.369 -0.3448 -0.0708  0.0678
 3349W        W22883  10.366   6.102   1.290  0.0538  0.2047  0.0813
 3350W        W22884   6.574  15.627   1.104  0.1077 -0.0906 -0.1581
 3351W        W22885  13.731   9.401   0.444  0.1308  0.0302  0.0009
 3352W        W22886   1.200  17.303  12.729  0.2051  0.2525 -0.0463
 3353W        W22887  11.911  17.736   1.074 -0.1572 -0.4120 -0.2014
 3354W        W22888   1.229  14.160   1.482 -0.2134  0.2048 -0.2783
 3355W        W22889   0.351   1.057   1.615  0.0760 -0.0736 -0.1810
 3356W        W22890   0.383   1.198   2.358  0.1100 -0.0659 -0.3019
 3357W        W22891  14.104   4.564   1.649  0.0149 -0.2486 -0.0444
 3358W        W22892   0.672   9.832   3.622  0.2155  0.2072 -0.1260
 3359W        W22893  18.620   6.426   1.645  0.5302  0.0411 -0.0256
 3360W        W22894   2.904  12.477   3.268  0.0627 -0.0822  0.0638
 3361W        W22895   2.648  14.025  13.556 -0.1899 -0.0617  0.4185
 3362W        W22896  13.488  10.006  10.971 -0.1761 -0.0489 -0.3006
 3363W        W22897  11.478   4.890   2.113 -0.1615 -0.0639  0.0977
 3364W        W22898  17.375  17.451   2.729  0.0777 -0.1074 -0.2047
 3365W        W22899   5.875  10.699  10.571  0.3571  0.3641  0.0280
 3366W        W22900   7.460   7.110   3.674  0.0054  0.4289 -0.0943
 3367W        W22901  12.611  12.335  14.076  0.0806 -0.0863  0.0062
 3368W        W22902  11.020   0.231   1.488 -0.4272 -0.1188 -0.0340
 3369W        W22903  17.605  16.823   4.111  0.0708 -0.1083  0.2842
 3370W        W22904  11.719   8.952  10.264 -0.0769 -0.0939 -0.2347
 3371W        W22905  14.980   2.012   3.136  0.0787  0.0403  0.0056
 3372W        W22906   7.547  14.198  13.087  0.0657  0.1669 -0.2225
 3373W        W22907  16.281   3.859  13.132 -0.2677  0.3756 -0.0731
 3374W        W22908  18.649   0.971   2.711  0.2423  0.2488  0.1963
 3375W        W22909   0.972  13.625  11.537  0.3440  0.0515  0.1990
 3376W        W22910  18.701  16.657  12.460 -0.1083  0.0529  0.2618
 3377W        W22911   1.327   4.309   3.992  0.1742  0.0062 -0.0950
 3378W        W22912  13.568   5.173   3.603 -0.2366  0.1535 -0.1111
 3379W        W22913   3.287   4.887   2.816  0.3749  0.0398  0.0080
 3380W        W22914  15.070   4.287  14.320 -0.1179  0.0898 -0.3187
 3381W        W22915   5.028   9.655  12.964 -0.2345 -0.0554  0.0397
 3382W        W22916   9.647  10.655  13.436 -0.0651 -0.1332  0.3088
 3383W        W22917  18.906   1.252   2.404  0.2360 -0.0021 -0.4728
 3384W        W22918   1.771   2.430  11.334 -0.0034 -0.0166  0.1313
 3385W        W22919   9.209  10.184   1.446  0.1293  0.0112  0.0072
 3386W        W22920  11.549  10.369  12.123 -0.1091 -0.0709  0.1377
 3387W        W22921   6.245   9.996  10.767  0.0055  0.2714  0.2133
 3388W        W22922  10.850  16.510   1.271 -0.0049 -0.2916  0.0208
 3389W        W22923  15.640  18.443   2.831  0.0680 -0.0119 -0.3648
 3390W        W22924   0.621   3.737   1.895  0.1184 -0.0372 -0.1506
 3391W        W22925  10.620   0.461  11.762  0.0529  0.0420  0.0628
 3392W        W22926  12.234   9.457  13.935  0.3628  0.2032 -0.1193
 3393W        W22927   8.449  14.474  13.162 -0.6524  0.2505  0.0582
 3394W        W22928  10.572  16.110  12.370  0.0348 -0.2683 -0.3597
 3395W        W22929  15.514  13.728  13.778  0.2506  0.1867 -0.0197
 3396W        W22930  15.028  17.593  11.408  0.1720 -0.1327  0.2699
 3397W        W22931  10.765  17.722  13.742  0.1604  0.0635 -0.2282
 3398W        W22932   2.700   8.107  12.394  0.0800 -0.1251  0.1481
 3399W        W22933   9.733   9.333   2.731  0.2450 -0.3569 -0.0816
 3400W        W22934   9.216  14.754  13.707  0.1686 -0.2533  0.0166
 3401W        W22935   9.219   3.857   9.139 -0.2232 -0.2259  0.3544
 3402W        W22936   7.679   7.855  13.681  0.0097  0.1464  0.2796
 3403W        W22937  15.094   0.102   2.583  0.2792 -0.2214 -0.1298
 3404W        W22938   7.949  16.985   3.747  0.1167 -0.2317  0.0144
 3405W        W22939  11.990  12.895   0.163 -0.0006  0.1721 -0.1529
 3406W        W22940  13.153   2.930  14.284 -0.1076  0.1824  0.0106
 3407W        W22941   5.748   9.591   3.544  0.0365  0.4902 -0.1675
 3408W        W22942   9.110   7.277  11.543 -0.2042  0.0956 -0.2224
 3409W        W22943   1.756   9.847  11.159 -0.3068 -0.1425 -0.1644
 3410W        W22944   3.205   1.316   1.152 -0.1443  0.1557  0.1361
 3411W        W22945   1.115  17.555   3.721  0.1506 -0.0262 -0.0235
 3412W        W22946   6.004   4.137   1.649 -0.1354 -0.0387 -0.1909
 3413W        W22947   9.244  16.954  13.382 -0.0982  0.1798  0.0221
 3414W        W22948   0.481   3.872  12.054 -0.1904  0.0489  0.1824
 3415W        W22949   3.906  12.228   3.586 -0.4336  0.1119  0.1172
 3416W        W22950   9.490  17.732   1.509 -0.1031 -0.4444 -0.0197
 3417W        W22951  10.435  15.836   0.755  0.0140 -0.1946  0.2110
 3418W        W22952  15.972  17.622   3.642 -0.0171 -0.0302 -0.0001
 3419W        W22953   2.153   2.986  11.752  0.0328 -0.0343  0.0538
 3420W        W22954  12.706  11.778  12.672  0.0479  0.0022  0.1044
 3421W        W22955   5.780  14.074   4.518 -0.1159 -0.0101  0.3459
 3422W        W22956   0.269   6.120  12.573 -0.0418 -0.0614  0.0758
 3423W        W22957  11.873  18.930  12.843  0.0916  0.0416  0.1839
 3424W        W22958   7.969   2.830  11.653  0.0117  0.3050  0.0512
 3425W        W22959   6.983   4.532  13.037  0.0566 -0.0067 -0.2834
 3426W        W22960  11.919   7.612   2.640 -0.2017 -0.0106 -0.1775
 3427W        W22961   8.268   5.815   1.058  0.0403 -0.0466 -0.2142
 3428W        W22962   8.473  19.239   1.757 -0.1188  0.0487  0.0448
 3429W        W22963  13.503  15.508  13.883 -0.0498  0.1904  0.3021
 3430W        W22964  14.915  12.159   9.763  0.0562 -0.1414  0.0017
 3431W        W22965  12.028  16.360   1.212 -0.0207 -0.0992 -0.2313
 3432W        W22966  19.302   8.737  10.876  0.0040 -0.0425  0.0534
 3433W        W22967   2.725   5.318   0.410  0.0732  0.0626  0.1295
 3434W        W22968   0.859   9.153  13.234  0.1911 -0.4258 -0.1922
 3435W        W22969   6.463   0.326  12.601 -0.1600 -0.0106  0.1108
 3436W        W22970   7.764  12.921  13.123  0.0648 -0.2200 -0.1863
 3437W        W22971  16.634  13.948   2.092  0.2192 -0.1840  0.1516
 3438W        W22972  17.810  14.179   2.866  0.0248 -0.2444 -0.2101
 3439W        W22973   7.532   2.487  13.564 -0.2605  0.1861  0.1114
 3440W        W22974   3.446  19.056  10.757 -0.0314 -0.0097  0.2525
 3441W        W22975  17.244  14.626  10.039  0.1214 -0.1257 -0.3768
 3442W        W22976   0.786  19.125   2.360 -0.0065  0.2792  0.2587
 3443W        W22977  19.084  13.031   3.221 -0.1141 -0.2821 -0.1545
 3444W        W22978  18.193  17.313  12.111 -0.2212 -0.0814  0.0918
 3445W        W22979  15.247  12.009   1.826 -0.0890 -0.0529 -0.0204
 3446W        W22980  12.224  17.878   1.876  0.0136 -0.0681 -0.2681
 3447W        W22981   3.606   9.444  10.387 -0.0415  0.3904  0.2655
 3448W        W22982   3.270   2.584   1.669  0.1454 -0.0971  0.1803
 3449W        W22983   1.699   3.796  11.579  0.4554  0.1115 -0.1396
 3450W        W22984  18.539  13.773   1.969 -0.1974  0.0329  0.2995
 3451W        W22985  12.160   3.150  12.915 -0.3404  0.4119  0.1733
 3452W        W22986   2.461  14.899  11.831  0.3035 -0.0506 -0.0095
 3453W        W22987  10.053  15.351  13.591  0.3237  0.0566 -0.2830
 3454W        W22988  14.293   5.342   3.870  0.2545 -0.0231 -0.0136
 3455W        W22989   3.779  10.432   3.336 -0.1198 -0.1246 -0.1049
 3456W        W22990  12.172  15.424   4.653 -0.2492  0.0370  0.2136
 3457W        W22991  13.000  10.182  13.159 -0.0970  0.2535  0.1049
 3458W        W22992   3.609   1.921  11.119  0.0640  0.1910 -0.0581
 3459W        W22993   5.647  15.689   0.277  0.1438 -0.0026  0.1653
 3460W        W22994   4.270   1.001   4.112  0.3743  0.0553  0.1554
 3461W        W22995   6.240  15.581   3.940 -0.1755 -0.0378 -0.0146
 3462W        W22996   5.505   0.458   0.053 -0.0036  0.0846 -0.0780
 3463W        W22997  13.524  14.667  11.943  0.1505  0.1109 -0.0539
 3464W        W22998  11.275  16.489   2.388 -0.0164 -0.0558  0.2705
 3465W        W22999  18.365   3.233   2.722 -0.2000 -0.0319  0.2126
 3466W        W23000   1.508  14.890   3.587 -0.1771  0.2202  0.1383
 3467W        W23001   4.765   1.345  11.465  0.5360 -0.3218  0.2360
 3468W        W23002   3.326   2.381   1.147  0.4200 -0.0129 -0.2497
 3469W        W23003   1.695  16.330  11.855  0.0348  0.2003 -0.0431
 3470W        W23004   1.663  13.172  11.780  0.0192  0.1968 -0.1611
 3471W        W23005   6.809  15.218   2.922  0.2253  0.4330 -0.2799
 3472W        W23006   4.504   5.476  10.339  0.2978 -0.2623 -0.0932
 3473W        W23007  19.500  15.244  12.505 -0.1348 -0.0967  0.0021
 3474W        W23008  17.935  18.990  10.706 -0.0169 -0.1877 -0.0871
 3475W        W23009  18.511  15.281  10.044 -0.1098  0.0630  0.2112
 3476W        W23010   9.195  11.589   0.793  0.3001  0.0912 -0.0166
 3477W        W23011  10.535   2.204   2.860  0.1877  0.0523 -0.0271
 3478W        W23012  15.616   6.696  11.845 -0.0008 -0.0258 -0.0896
 3479W        W23013  18.041   9.056   2.204  0.2513  0.1775 -0.1509
 3480W        W23014  15.327  16.084  13.546  0.3957 -0.0431 -0.2722
 3481W        W23015  10.146   5.471  13.227 -0.2909  0.2809 -0.1689
 3482W        W23016  12.044   8.127  14.137 -0.1761  0.2840  0.0554
 3483W        W23017   7.675   4.226  12.212 -0.2953  0.0372 -0.0312
 3484W        W23018   8.496   2.491   2.315  0.2649 -0.2167  0.1562
 3485W        W23019   0.427  14.390   2.815 -0.0701  0.2719 -0.0083
 3486W        W23020   0.980  17.759  10.608  0.1984 -0.1766 -0.1346
 3487W        W23021  15.400  13.481   0.437  0.0524  0.1788  0.1284
 3488W        W23022   0.121  17.986   3.076  0.0600 -0.3031  0.0779
 3489W        W23023   9.290   9.484   2.963 -0.1347 -0.0850  0.0947
 3490W        W23024   9.791  15.530  13.950  0.3327 -0.0815 -0.0310
 3491W        W23025   8.299  11.457   1.544 -0.0561  0.1067 -0.1136
 3492W        W23026  15.552   5.639   2.459 -0.0505 -0.0120  0.2914
 3493W        W23027  18.760   2.533   2.069 -0.1335  0.0365 -0.2412
 3494W        W23028  10.991  13.426  13.787 -0.1036  0.0138 -0.2619
 3495W        W23029  18.863  10.016  13.237 -0.1308 -0.2428  0.1682
 3496W        W23030  14.646  10.183  14.013  0.0327  0.2221  0.1598
 3497W        W23031  16.717   0.315  11.306 -0.1018  0.0039  0.0202
 3498W        W23032   6.271   5.404   2.608 -0.2227 -0.0316 -0.1903
 3499W        W23033  11.545   7.776   1.738 -0.4056 -0.4373  0.1232
 3500W        W23034   2.753  14.234   9.973  0.0888 -0.3151 -0.1403
 3501W        W23035   0.799   9.066  14.205 -0.3282  0.0113 -0.0440
 3502W        W23036  15.273  14.440  13.047  0.2407  0.0951 -0.0150
 3503W        W23037  18.958   8.182   1.630  0.2684  0.1093  0.0316
 3504W        W23038   2.610   3.947   0.396  0.1866 -0.2453 -0.2358
 3505W        W23039   0.107   7.454  13.927  0.0050 -0.5311  0.2333
 3506W        W23040   9.793  17.512   1.932 -0.3235  0.4936 -0.2401
 3507W        W23041   0.860  15.025   1.783  0.1550  0.1121 -0.4127
 3508W        W23042  16.846   4.587   2.447  0.2368  0.2381  0.2181
 3509W        W23043  14.203  12.663  12.902  0.0751 -0.0618  0.3439
 3510W        W23044   9.665   0.792   2.860  0.4573  0.0920 -0.0933
 3511W        W23045  13.265   4.779  12.078 -0.3157 -0.0834 -0.1775
 3512W        W23046   1.977  15.106   1.785 -0.1293 -0.2116 -0.2553
 3513W        W23047   5.822   7.294  10.796 -0.1456 -0.1321 -0.2982
 3514W        W23048   7.840   0.716  11.987 -0.0319 -0.2473  0.0350
 3515W        W23049  11.883   2.154   0.387 -0.0619  0.3391 -0.3070
 3516W        W23050  18.038   1.143  12.876 -0.1452  0.0689 -0.2195
 3517W        W23051   1.163  16.331  10.611 -0.1238  0.2847  0.2458
 3518W        W23052  12.710   5.294  11.776  0.0775  0.0640 -0.1907
 3519W        W23053   9.945  15.599   0.114 -0.0329  0.2897 -0.0585
 3520W        W23054  11.842   0.178  11.288  0.1184  0.1274  0.3566
 3521W        W23055  14.248  11.303  10.438 -0.1278 -0.2367  0.2988
 3522W        W23056   6.188   3.673  13.163 -0.2524 -0.1891  0.1131
 3523W        W23057  17.103  19.371   1.711 -0.0098 -0.2379  0.1189
 3524W        W23058   7.537   6.713  11.876  0.2053  0.0371  0.2583
 3525W        W23059  13.936  18.673  10.443  0.0153 -0.0065 -0.2597
 3526W        W23060  16.820   7.603  14.141  0.2295 -0.2448 -0.1083
 3527W        W23061   4.167  15.366  12.170  0.1957  0.1666  0.0766
 3528W        W23062   3.121   3.647   1.618 -0.3144 -0.1633  0.0313
 3529W        W23063   9.537   8.388   4.327 -0.0368  0.0846  0.2459
 3530W        W23064  17.559   5.012  11.447 -0.1694  0.5758  0.0770
 3531W        W23065   9.261  16.103   2.414 -0.0923 -0.1174  0.1456
 3532W        W23066  18.920  10.644   0.468  0.0347  0.1912 -0.2637
 3533W        W23067  18.986  11.601  10.479  0.0801 -0.0454  0.0146
 3534W        W23068  16.408   0.461  10.177 -0.0705 -0.1616  0.1306
 3535W        W23069   6.367   5.052   1.817 -0.0440 -0.0989 -0.0168
 3536W        W23070   4.885   2.692  12.314  0.0445  0.2268  0.0247
 3537W        W23071   7.542  15.922   2.270 -0.1190  0.0237 -0.2422
 3538W        W23072   9.728  13.098   1.556  0.1630  0.0806 -0.2613
 3539W        W23073   7.749   9.819  11.043  0.1431 -0.1991  0.3437
 3540W        W23074   5.858   2.365   0.439  0.1036  0.2739 -0.3586
 3541W        W23075  17.330   5.950   0.594 -0.0363  0.0161 -0.5461
 3542W        W23076   5.274   0.024  11.219  0.1953  0.0849 -0.1197
 3543W        W23077   4.692   9.327  12.767  0.0273  0.0711  0.1800
 3544W        W23078   5.268  11.931   1.566  0.0308 -0.2245 -0.1317
 3545W        W23079   6.477  16.447   0.371 -0.1947  0.0298  0.1753
 3546W        W23080   9.183   9.389  10.322 -0.3456  0.2214 -0.0546
 3547W        W23081  12.995  10.149  11.236  0.0319 -0.0807 -0.0752
 3548W        W23082   7.893  11.827  12.910  0.0580 -0.1573  0.0622
 3549W        W23083   6.044   2.230  13.495  0.3076 -0.2507 -0.1927
 3550W        W23084  10.448   4.272   1.901  0.0845  0.3246 -0.0157
 3551W        W23085   4.790  11.607  12.068 -0.0078  0.0335 -0.0707
 3552W        W23086  11.428   4.524  14.215 -0.2280  0.0683  0.1206
 3553W        W23087  12.399  10.531  12.599 -0.0311 -0.2175  0.2145
 3554W        W23088   2.858   4.064   3.738 -0.2784 -0.1595 -0.0713
 3555W        W23089  14.048   5.299   2.530 -0.3576 -0.0639  0.0740
 3556W        W23090  11.896   8.617   2.513 -0.0409  0.3316  0.3030
 3557W        W23091   1.974  10.219  12.482  0.3682 -0.0625 -0.0064
 3558W        W23092  12.270   0.931   1.262  0.0321 -0.0467  0.0177
 3559W        W23093   7.309   9.035   1.198  0.0184 -0.2204 -0.1035
 3560W        W23094  16.164   5.493   1.388  0.0215  0.1380  0.0227
 3561W        W23095   1.858   7.000  12.085  0.1973 -0.0063  0.0992
 3562W        W23096   2.485   6.742  13.663  0.2588 -0.2061  0.0571
 3563W        W23097   8.833  18.109  10.556 -0.0737 -0.0624  0.2954
 3564W        W23098   2.340   4.637   3.453  0.0222  0.3243 -0.2201
 3565W        W23099  13.089   8.930   0.168 -0.1671  0.0096 -0.0263
 3566W        W23100   5.482  14.897   2.553 -0.0167  0.1561  0.0496
 3567W        W23101   9.916  13.637  13.440  0.1134 -0.1882 -0.3977
 3568W        W23102   5.022  15.758  12.906 -0.1471  0.0283  0.0741
 3569W        W23103  15.422  11.825  11.064  0.1668  0.2713  0.3443
 3570W        W23104  12.748  11.465  11.748  0.0304 -0.1306  0.0893
 3571W        W23105   6.505  15.279  10.817 -0.1983 -0.0016  0.0597
 3572W        W23106  12.857   5.587  10.886  0.1126 -0.1705  0.1785
 3573W        W23107  14.274   2.320   3.431  0.4747  0.1066  0.1163
 3574W        W23108   0.971   4.164  10.977 -0.1967  0.0547  0.0696
 3575W        W23109  15.608   3.903   2.122 -0.1866  0.1866  0.0733
 3576W        W23110  11.660  15.800  12.970  0.0168  0.1001  0.3828
 3577W        W23111   8.983   6.818   4.367 -0.1029  0.0070  0.0348
 3578W        W23112   8.031   9.207  12.107  0.0467 -0.1283  0.2256
 3579W        W23113  12.951   1.196  12.900 -0.4267 -0.2369  0.0409
 3580W        W23114   5.254   3.208  14.123  0.0050 -0.0443  0.2825
 3581W        W23115   9.508   0.917  14.336 -0.2630  0.1813 -0.1840
 3582W        W23116   3.535   3.793   0.810 -0.0833 -0.0681 -0.2477
 3583W        W23117   3.933  15.298  11.613  0.0846 -0.0628 -0.0316
 3584W        W23118  12.469   4.746  14.130  0.0354  0.1188 -0.1415
 3585W        W23119   6.975   6.323   1.764 -0.0207  0.1892 -0.2429
 3586W        W23120  11.046   0.084  10.523 -0.0320 -0.0993 -0.0020
 3587W        W23121   4.786  10.849   3.976  0.2601  0.0416  0.0036
 3588W        W23122   6.977  13.315  10.249 -0.2097 -0.0399  0.0945
 3589W        W23123  18.504  14.784   3.878 -0.1659 -0.6152 -0.2129
 3590W        W23124  16.735  12.155  10.541  0.3328  0.0548  0.0173
 3591W        W23125  18.182  12.589  10.042  0.1777 -0.0645 -0.0030
 3592W        W23126  16.927  13.198  14.230  0.0221  0.1655 -0.0832
 3593W        W23127  19.219  15.510   4.254 -0.0863  0.1528  0.0173
 3594W        W23128   6.339  17.307   3.379  0.3069 -0.0236  0.1334
 3595W        W23129  10.873   4.246  11.260 -0.3084  0.2006  0.2305
 3596W        W23130  10.488   6.645  12.547 -0.0655 -0.0100 -0.1744
 3597W        W23131  16.425  17.748  14.182 -0.3170 -0.1693  0.0490
 3598W        W23132  10.482   6.491   3.742  0.0982 -0.0652 -0.2459
 3599W        W23133   9.909  11.526  10.170 -0.1492  0.1743  0.2119
 3600W        W23134  10.990   0.389  12.682 -0.2972  0.5348 -0.2224
 3601W        W23135  15.756  10.882   0.526 -0.0351 -0.1887 -0.0789
 3602W        W23136   5.080  11.413   3.225  0.2818 -0.0312  0.4548
 3603W        W23137   8.185  10.518   2.948 -0.0294 -0.1964  0.0602
 3604W        W23138   1.267  14.451   2.262  0.5315  0.0174  0.2481
 3605W        W23139  14.919  19.355   4.442  0.5703 -0.1002 -0.0743
 3606W        W23140   2.918   9.200  13.995  0.0842 -0.2927  0.0551
 3607W        W23141  17.421   5.436  12.977 -0.0573  0.2539 -0.1777
 3608W        W23142   3.332  13.978   1.255  0.1321 -0.0214  0.0185
 3609W        W23143   0.560  19.213   3.739 -0.1943 -0.0726 -0.0112
 3610W        W23144   1.735  16.207   5.130  0.2137 -0.0449  0.1572
 3611W        W23145   7.260   8.155  11.691  0.1481  0.1506 -0.0465
 3612W        W23146   8.068   3.416  11.571 -0.1273 -0.0328  0.0931
 3613W        W23147   8.297  15.295   1.054  0.3034  0.1042  0.0318
 3614W        W23148  12.898   1.997  11.662 -0.0163 -0.0050 -0.1651
 3615W        W23149  13.283   6.820   4.174 -0.0906 -0.1256 -0.0215
 3616W        W23150   3.173   6.715   1.614  0.0567 -0.3114  0.1369
 3617W        W23151  17.815  15.242  12.907 -0.0515 -0.1628 -0.1303
 3618W        W23152   6.227  12.407   9.194  0.4499  0.0508  0.0755
 3619W        W23153  14.866   4.284   9.956  0.1868 -0.0707 -0.1514
 3620W        W23154   9.964  14.435  12.243 -0.1262  0.0612 -0.0022
 3621W        W23155  16.649   5.878  11.790 -0.0398  0.0834 -0.1236
 3622W        W23156   5.935   8.886   1.116  0.1163 -0.1642 -0.0199
 3623W        W23157  15.649  17.573   3.255  0.3348  0.2957  0.0654
 3624W        W23158   6.667  17.215  12.341  0.2007 -0.3711  0.0956
 3625W        W23159   3.226  16.378  13.736  0.1057  0.2934  0.0690
 3626W        W23160   9.968  17.499   0.084 -0.0253  0.1653  0.1928
 3627W        W23161   3.261   0.289  12.017  0.1093 -0.0235 -0.0284
 3628W        W23162  15.348  11.942   3.220  0.0783  0.1476  0.0402
 3629W        W23163   3.699  15.380   1.135 -0.3421 -0.2430  0.4240
 3630W        W23164  16.241   7.966  13.327  0.4092  0.0645  0.0428
 3631W        W23165  13.383  19.060   1.653  0.2843  0.0033 -0.1354
 3632W        W23166  14.302   2.267  10.994  0.1845  0.0499 -0.1218
 3633W        W23167   0.670   8.218   2.254 -0.0788 -0.3770 -0.3231
 3634W        W23168  13.319  18.657   3.089  0.0358 -0.2179 -0.0989
 3635W        W23169  13.863   1.923   1.086  0.2980  0.2279  0.2863
 3636W        W23170  16.318   6.973   1.448  0.0676 -0.1361  0.2319
 3637W        W23171  14.043   2.362  11.413  0.0091  0.2616  0.1245
 3638W        W23172   9.141   1.156   0.504  0.0201  0.0202  0.1141
 3639W        W23173  15.952  15.479  10.421  0.1531  0.0274  0.2391
 3640W        W23174   9.586   2.062  12.335  0.2744 -0.0635  0.1015
 3641W        W23175   8.487  19.299  13.946 -0.1105 -0.0958 -0.2012
 3642W        W23176   1.530   9.729   2.812 -0.3218 -0.0046  0.2363
 3643W        W23177   5.247  13.583   0.450 -0.1425  0.1105  0.1551
 3644W        W23178   8.605  15.334   4.146 -0.1313 -0.3799 -0.3594
 3645W        W23179   7.774   0.503   2.029 -0.5177 -0.0402 -0.1072
 3646W        W23180   8.960   7.647  11.138  0.0638 -0.0480 -0.1692
 3647W        W23181  12.278  19.067   2.304  0.3247 -0.0184  0.2672
 3648W        W23182   4.932  14.415   0.772 -0.2404  0.1568 -0.1107
 3649W        W23183   2.772   9.432   3.481 -0.1032  0.4665 -0.0650
 3650W        W23184  18.833  16.634  10.048  0.5266  0.3759  0.1297
 3651W        W23185  12.704   4.263  12.570 -0.0608 -0.0838 -0.3808
 3652W        W23186  12.984  16.245  14.124  0.1789 -0.3584 -0.0473
 3653W        W23187   0.504  16.601  12.207 -0.1910 -0.1993  0.4106
 3654W        W23188  11.920   6.692   3.285  0.0320  0.1498  0.1428
 3655W        W23189  16.108  16.100  11.704 -0.2433 -0.0908  0.4537
 3656W        W23190   2.799   7.307  12.988  0.2449 -0.1485 -0.1496
 3657W        W23191  12.925  12.231  12.751  0.2410  0.3167 -0.3000
 3658W        W23192  13.340  14.972  10.666 -0.0115  0.1865  0.0088
 3659W        W23193  11.691  13.236   3.344  0.0970 -0.4456 -0.2007
 3660W        W23194   9.836   0.505  11.331  0.0941 -0.0118  0.0959
 3661W        W23195  17.692   6.781   5.437 -0.0986 -0.0387  0.5152
 3662W        W23196   1.238  13.406  11.994  0.1876 -0.1288 -0.1218
 3663W        W23197  19.150   0.885   2.756 -0.0516  0.1450  0.3318
 3664W        W23198  17.937  12.183   9.931 -0.2156  0.0535  0.1627
 3665W        W23199  10.240   1.303   1.605  0.0617 -0.0465  0.0173
 3666W        W23200   7.905  15.323  13.791 -0.1478  0.2438 -0.1368
 3667W        W23201   5.594  12.468  14.143  0.0536 -0.0258  0.0515
 3668W        W23202  12.724  14.326  13.751  0.5040 -0.3270  0.0373
 3669W        W23203   0.742   6.048   2.928  0.2200 -0.1766  0.0344
 3670W        W23204  10.427   2.542   2.461 -0.2161  0.2954 -0.2670
 3671W        W23205  16.923  16.552  11.892 -0.1249  0.2526 -0.1691
 3672W        W23206   0.208  18.435   3.220  0.0640  0.0098 -0.0386
 3673W        W23207  16.441  17.878  10.068  0.0693 -0.0867  0.2251
 3674W        W23208  18.303  19.213  13.199 -0.1732  0.0028 -0.1416
 3675W        W23209   9.300   9.299  11.778  0.0959 -0.0522  0.0867
 3676W        W23210  11.149   0.579   4.159 -0.3844 -0.0086 -0.0251
 3677W        W23211  18.274  16.744  12.210 -0.1028 -0.0432  0.1328
 3678W        W23212  16.708   7.326  10.313 -0.0333  0.0737 -0.1645
 3679W        W23213  14.250  17.352  12.677 -0.3142 -0.0963  0.0565
 3680W        W23214   7.350   4.960   0.280 -0.3537  0.1640  0.2258
 3681W        W23215   3.840   0.605  13.548  0.1985 -0.0911 -0.0067
 3682W        W23216  17.566   9.069  12.440 -0.1037 -0.1647 -0.0106
 3683W        W23217  10.551   0.546  13.286  0.0409  0.3744 -0.2954
 3684W        W23218  15.982   0.383  14.301 -0.0563 -0.0494 -0.4031
 3685W        W23219   4.053  10.206  13.913  0.2947  0.0577 -0.0781
 3686W        W23220   5.924   3.335   2.732 -0.2503 -0.0327 -0.3006
 3687W        W23221   2.124  12.789  11.802 -0.0596 -0.1164  0.1241
 3688W        W23222  11.072  13.210   0.387  0.0189 -0.3001  0.1058
 3689W        W23223  11.723   1.390   0.931 -0.2119 -0.0757  0.0216
 3690W        W23224   5.549  12.676   2.418  0.0079  0.0458 -0.3840
 3691W        W23225   8.917   8.454  10.423  0.1449  0.0905 -0.0343
 3692W        W23226  15.534   0.874  10.737 -0.1697 -0.1532  0.1059
 3693W        W23227   3.097   4.791  13.652  0.0839 -0.3061 -0.1967
 3694W        W23228  17.189   1.242   3.818 -0.0545 -0.3555 -0.0173
 3695W        W23229  16.969  11.172   1.053  0.0255 -0.1213  0.1147
 3696W        W23230  17.304   0.479  13.068  0.1087  0.0742 -0.0156
 3697W        W23231  13.710  17.612   3.344  0.1340  0.1497  0.2938
 3698W        W23232  13.552  14.299   3.423 -0.0126  0.0629  0.0842
 3699W        W23233   7.477  14.221  12.025 -0.2029  0.0425 -0.0013
 3700W        W23234  16.498  10.986   2.509  0.1398 -0.2449  0.0787
 3701W        W23235   1.753   4.723  11.237 -0.0155  0.0264  0.1814
 3702W        W23236   1.033   0.064  12.326  0.0124 -0.0847  0.0624
 3703W        W23237  18.730  10.091  14.221  0.4072  0.1076  0.0163
 3704W        W23238  10.039  17.172  10.620 -0.0033 -0.0268 -0.0000
 3705W        W23239   9.685   6.803  12.677 -0.1069  0.0475 -0.0064
 3706W        W23240   5.759   9.061   2.573 -0.2000 -0.1567 -0.4075
 3707W        W23241  19.151  11.427   1.439 -0.2716 -0.0884 -0.2818
 3708W        W23242  12.086   3.761   0.458 -0.1101 -0.1653  0.0356
 3709W        W23243  13.590  16.177   3.923 -0.1023  0.0223 -0.0121
 3710W        W23244   5.634  18.877  10.749 -0.1396 -0.1724 -0.2750
 3711W        W23245   5.589  17.517   3.269  0.1485 -0.2338  0.2982
 3712W        W23246   4.022  19.299   2.491 -0.2215  0.0684 -0.0911
 3713W        W23247   1.838   4.020   3.964 -0.1109 -0.3916 -0.3628
 3714W        W23248   8.911   2.386   2.111  0.3618 -0.1739  0.2387
 3715W        W23249  14.021   9.790   2.589 -0.0975 -0.0825 -0.0841
 3716W        W23250  15.742  18.012  12.968 -0.0269  0.2309  0.4174
 3717W        W23251   2.650  15.601   2.737 -0.2926  0.0363 -0.1532
 3718W        W23252   4.691   0.764  12.397 -0.3749 -0.0040  0.0285
 3719W        W23253   0.952  16.935  12.062  0.2939 -0.0629 -0.0788
 3720W        W23254  14.759   2.636  13.544 -0.2810 -0.1086 -0.1620
 3721W        W23255  14.281   2.048  12.352 -0.1660  0.1512  0.0785
 3722W        W23256  13.074   7.941   2.106 -0.2666  0.2517 -0.4640
 3723W        W23257   3.809   0.067   1.743 -0.0298  0.0615  0.2465
 3724W        W23258   8.316   6.497   1.590  0.0806  0.1745  0.0920
 3725W        W23259  15.624  15.295  12.050  0.0399  0.1594  0.0698
 3726W        W23260  16.456   3.619   2.156 -0.1711  0.0745  0.0519
 3727W        W23261   3.712  14.895  10.625 -0.2399 -0.1692  0.1169
 3728W        W23262  10.107  16.569  11.542 -0.0175 -0.1412 -0.0228
 3729W        W23263   0.857  17.136   2.643  0.2588 -0.0407  0.1546
 3730W        W23264  10.960  14.759  12.486 -0.1049  0.2188  0.0620
 3731W        W23265   6.300  13.632   2.647 -0.0177  0.1905  0.0041
 3732W        W23266  10.559  18.157  12.647 -0.2111 -0.0460  0.2288
 3733W        W23267  13.172   5.146  12.614  0.2814 -0.0513  0.1893
 3734W        W23268  12.581  15.033   0.719  0.1167 -0.3316 -0.0271
 3735W        W23269  19.443  17.842   9.461  0.0195 -0.3145  0.1620
 3736W        W23270   7.968  15.678  11.238  0.1271 -0.0505 -0.0408
 3737W        W23271  17.412   5.496   1.695 -0.0949 -0.2230 -0.3160
 3738W        W23272  13.628   3.761  12.797 -0.2792 -0.0856  0.0504
 3739W        W23273   8.020   3.568   1.040 -0.2594  0.1123 -0.2062
 3740W        W23274  18.683   3.033  11.495 -0.1835  0.0299 -0.1753
 3741W        W23275  13.718  19.370  12.175 -0.0414  0.1502 -0.1371
 3742W        W23276   2.706   5.572   2.666 -0.0557  0.1384 -0.3097
 3743W        W23277   6.542   1.563  11.551  0.1933 -0.0087  0.0064
 3744W        W23278  16.038   8.538  11.665  0.0177  0.0138  0.1773
 3745W        W23279   9.350   6.652   1.154  0.0809 -0.2114 -0.2700
 3746W        W23280  11.100   1.443  13.548  0.2089  0.3075 -0.2956
 3747W        W23281   1.112  18.974   3.131 -0.0459 -0.1624  0.1126
 3748W        W23282  12.277  10.750  10.538 -0.0289  0.3495  0.1219
 3749W        W23283   0.721   1.944   1.089  0.1321 -0.2202  0.0881
 3750W        W23284  14.742  19.003   4.119  0.2159 -0.1913 -0.0071
 3751W        W23285   6.368  13.724  11.083 -0.1178 -0.0990 -0.2091
 3752W        W23286  15.809  14.372  12.032  0.0847  0.2216 -0.0367
 3753W        W23287  15.990   6.668  11.531  0.1475 -0.0735 -0.0162
 3754W        W23288  18.702  12.577  13.055 -0.2065 -0.2201 -0.2260
 3755W        W23289  16.802  18.852  12.998  0.2667  0.1055 -0.1411
 3756W        W23290  11.686   0.695  10.314 -0.0772 -0.1229 -0.3526
 3757W        W23291   1.651  13.676  11.072 -0.1747 -0.1583  0.1464
 3758W        W23292  11.203  12.758  12.351  0.1075  0.2227  0.0613
 3759W        W23293   6.063   3.403   3.624  0.0570  0.1627 -0.1627
 3760W        W23294  10.132  17.905  11.741  0.0611  0.0920  0.0750
 3761W        W23295   2.784  12.610   0.730  0.3891  0.0575  0.0362
 3762W        W23296   5.485   8.798   0.479  0.2407 -0.3936 -0.2790
 3763W        W23297   5.525   8.630  13.228 -0.1305  0.1958  0.0665
 3764W        W23298  14.355   7.107  11.418 -0.1341 -0.0285 -0.0814
 3765W        W23299   2.537  16.400   2.789 -0.0808 -0.0390  0.0610
 3766W        W23300   5.428   0.849  13.567  0.1168  0.2609 -0.0934
 3767W        W23301   8.152   0.275   5.565 -0.0554  0.2790 -0.0459
 3768W        W23302   1.966   3.264  10.859 -0.0406  0.1843  0.1879
 3769W        W23303   4.385  16.299   2.694 -0.0458  0.0052 -0.0896
 3770W        W23304   2.669   4.116   2.634  0.1476  0.3621 -0.0152
 3771W        W23305   0.641  13.910  14.229  0.1355 -0.1693 -0.1910
 3772W        W23306   4.286  13.858   0.403 -0.3625  0.0935  0.0139
 3773W        W23307  11.896  13.712  11.485  0.2434 -0.0480 -0.0228
 3774W        W23308   0.579  11.163  14.101  0.2190 -0.2023 -0.0607
 3775W        W23309   1.539   9.868   3.319 -0.0000 -0.2146  0.0763
 3776W        W23310   9.070  15.903  13.905 -0.1538  0.0670 -0.3755
 3777W        W23311  10.910   6.153   2.595 -0.0506 -0.1235 -0.0668
 3778W        W23312  12.021  17.705  12.032 -0.2502 -0.0198  0.1240
 3779W        W23313   7.818   5.222   2.424  0.1580 -0.0732  0.1599
 3780W        W23314  11.370  11.584  14.153  0.0820  0.0844 -0.2648
 3781W        W23315   1.576   3.752   3.283  0.2513  0.0324  0.1667
 3782W        W23316  10.413   0.443   3.720  0.0552  0.2892 -0.2846
 3783W        W23317  18.739   6.448   1.136 -0.1822  0.2136  0.2300
 3784W        W23318   8.236  11.082  12.342  0.2734  0.0359 -0.4370
 3785W        W23319  13.985  16.904   2.662 -0.3801  0.3396 -0.0384
 3786W        W23320   7.873  18.555   1.591 -0.1198  0.0058 -0.2302
 3787W        W23321  17.067   5.694   0.253 -0.1071 -0.0141  0.2006
 3788W        W23322  18.006  16.176  11.475  0.0003  0.0641 -0.2261
 3789W        W23323   2.493   0.169  12.829 -0.2060 -0.1347 -0.0312
 3790W        W23324   1.887  12.546   2.297 -0.2064 -0.0330  0.0055
 3791W        W23325   0.302   9.158   3.139 -0.1893 -0.0101 -0.0221
 3792W        W23326  19.022   6.579  13.168 -0.0412 -0.2746 -0.0045
 3793W        W23327  18.385  11.909   0.997  0.0894 -0.0674 -0.4909
 3794W        W23328   6.880   6.476   0.394  0.3331  0.0391  0.2105
 3795W        W23329  16.754   3.713  11.467 -0.2211  0.2283  0.0729
 3796W        W23330   4.757   6.367   2.138 -0.0932 -0.0555 -0.0099
 3797W        W23331  14.995  17.487   1.316  0.0926  0.1536 -0.2154
 3798W        W23332  18.766   6.408  11.550 -0.0772  0.1243 -0.0720
 3799W        W23333  13.225   2.331   0.461  0.0070 -0.1615 -0.0348
 3800W        W23334   2.384   2.389   0.030 -0.1080  0.0663 -0.1785
 3801W        W23335  10.649  11.953   1.344  0.2349 -0.1599  0.1128
 3802W        W23336  14.156   5.792   3.507  0.3630 -0.1274  0.4611
 3803W        W23337  12.438  18.613   3.516 -0.2425 -0.2492 -0.2575
 3804W        W23338  12.389  17.144   3.302  0.1584 -0.0114 -0.1069
 3805W        W23339   9.262   7.874   1.647  0.0018 -0.2038 -0.0689
 3806W        W23340   2.632  16.504  13.085  0.0630 -0.1375  0.0639
 3807W        W23341  15.635   3.695  11.008  0.2987  0.2591 -0.0109
 3808W        W23342  11.769   0.878   3.110  0.1217 -0.0032 -0.1868
 3809W        W23343  18.646  16.053   0.526  0.0379  0.0588  0.0526
 3810W        W23344  19.076   3.312   2.051  0.1378 -0.1921  0.0614
 3811W        W23345   6.942   3.875  13.962  0.2076 -0.2115  0.1605
 3812W        W23346  15.865   4.055  13.366  0.3557  0.0993  0.0285
 3813W        W23347  15.117   9.978  12.139  0.0119 -0.1498  0.2262
 3814W        W23348  11.570  10.358   1.166  0.3951 -0.0157  0.0791
 3815W        W23349   8.438   8.296  11.294 -0.0930 -0.2081  0.1428
 3816W        W23350  18.370   2.782   2.473 -0.1581  0.2613  0.0755
 3817W        W23351   5.480   7.433   1.596  0.0373 -0.0259  0.0238
 3818W        W23352   4.389   0.451  12.777  0.1505  0.2238 -0.0518
 3819W        W23353  13.372  10.615   3.160  0.2324  0.2258 -0.0276
 3820W        W23354   4.677   0.874  12.915  0.2298  0.0899  0.0311
 3821W        W23355   7.254  16.520  10.719  0.1323 -0.2660  0.2824
 3822W        W23356  12.478   2.193  11.151  0.1708 -0.3200  0.0462
 3823W        W23357   5.285  13.953   0.021 -0.2693  0.4082 -0.1354
 3824W        W23358  13.264  17.823  11.061  0.1673  0.1410  0.2634
 3825W        W23359  11.982  10.171  11.407  0.0348 -0.0992  0.2282
 3826W        W23360  14.434  11.084  12.651 -0.0186 -0.2103  0.0980
 3827W        W23361  16.138   7.161  13.355  0.2468 -0.0519  0.0052
 3828W        W23362   8.307   5.217   0.863  0.2363 -0.2139 -0.1293
 3829W        W23363  18.716  13.472  14.249  0.4058  0.0017  0.0623
 3830W        W23364   4.776  17.147  13.308  0.2914 -0.0800  0.2088
 3831W        W23365   2.074   8.640  11.206  0.0682 -0.2015 -0.0841
 3832W        W23366  12.345   6.121  13.703  0.0065  0.0391 -0.0023
 3833W        W23367  17.704  16.316   1.432 -0.3636 -0.0073  0.1666
 3834W        W23368   5.597   4.673   3.386 -0.4971 -0.2261  0.1690
 3835W        W23369   5.843  18.072  14.243  0.2006  0.3068 -0.2694
 3836W        W23370  11.001   7.049  11.034 -0.0851  0.1721 -0.0596
 3837W        W23371   1.650   8.512   2.158  0.1897 -0.1190 -0.1301
 3838W        W23372  11.299  16.681   3.603  0.0129 -0.0275  0.1007
 3839W        W23373   7.275   4.797   3.442  0.0445  0.1174 -0.2412
 3840W        W23374   6.439  13.211  10.271  0.0717  0.2028  0.0049
 3841W        W23375   9.586  18.899  13.686  0.0244 -0.1896  0.1673
 3842W        W23376  14.236  12.271  14.349 -0.0597  0.1758  0.1469
 3843W        W23377  19.041  14.437  10.090  0.0061  0.0626 -0.0746
 3844W        W23378   0.759  11.900  11.603 -0.2011  0.1429  0.2106
 3845W        W23379  15.569   8.563  11.485  0.2613 -0.1679  0.2267
 3846W        W23380  16.069  12.664  11.815 -0.0013 -0.0823 -0.0959
 3847W        W23381  12.845  18.128   4.130 -0.0399 -0.1363  0.0984
 3848W        W23382  14.544  13.726   2.240  0.2036 -0.2078 -0.0084
 3849W        W23383  10.985   0.873  11.885 -0.0963  0.1766  0.2921
 3850W        W23384   2.428   7.267  13.393 -0.1934  0.0424  0.2088
 3851W        W23385  13.015  11.035  11.721  0.0376 -0.0500  0.1072
 3852W        W23386   4.548   8.225  14.056 -0.1391  0.2839  0.2031
 3853W        W23387   5.410   7.394  12.982 -0.0419  0.1309 -0.1591
 3854W        W23388  12.516  17.152  13.511 -0.2840  0.0554  0.2446
 3855W        W23389   0.255  11.927  12.441  0.1781  0.0236 -0.1878
 3856W        W23390   3.208  13.797   2.063  0.1718 -0.1056  0.2436
 3857W        W23391  15.701   2.476  13.213 -0.0699 -0.2233 -0.4186
 3858W        W23392   2.429   1.769   3.017 -0.0841  0.1673 -0.2752
 3859W        W23393   1.927   9.573   3.958 -0.1229  0.2302  0.0253
 3860W        W23394  18.204   7.761  11.990  0.4174  0.1809 -0.2788
 3861W        W23395  16.876   5.014   3.286 -0.0660  0.1522 -0.1184
 3862W        W23396   7.308   9.076  12.092 -0.3470 -0.1672 -0.1567
 3863W        W23397   7.886   0.233  12.481 -0.1143  0.0303 -0.2004
 3864W        W23398  16.525  17.148   1.131  0.0652 -0.0064 -0.1236
 3865W        W23399  18.763  15.762   3.849  0.2092  0.1550 -0.2788
 3866W        W23400   8.480  16.170  12.579  0.0979  0.1207  0.0208
 3867W        W23401   8.166  14.902  12.256 -0.2502  0.1399  0.1540
 3868W        W23402   1.583  11.151   1.815 -0.0245  0.2105  0.2282
 3869W        W23403   9.188  14.129  11.761  0.3759  0.0045  0.0176
 3870W        W23404  14.964   7.360  10.603 -0.2433 -0.1139 -0.1648
 3871W        W23405  10.975  16.311   1.748 -0.1872  0.0930 -0.2428
 3872W        W23406  16.917   5.082   4.150 -0.2609 -0.1279 -0.0777
 3873W        W23407  14.670   4.416   2.767 -0.1295 -0.2548 -0.1341
 3874W        W23408   2.687   8.567   0.667  0.3364  0.0097 -0.1101
 3875W        W23409   9.256  10.306   4.099 -0.3972  0.0210  0.1400
 3876W        W23410  18.152  11.166  11.905  0.2691  0.3004 -0.3056
 3877W        W23411  15.305   5.919  12.257  0.1579  0.0996  0.1493
 3878W        W23412  12.185   7.886  13.723  0.0545  0.0804  0.2983
 3879W        W23413  13.431  16.962  12.464  0.0574  0.0153 -0.0852
 3880W        W23414   9.882   0.208   3.640 -0.1309  0.0343  0.0071
 3881W        W23415  16.389  17.336   3.983  0.0288 -0.0888 -0.3041
 3882W        W23416  11.398  16.342   3.219 -0.1519 -0.5471  0.0463
 3883W        W23417  19.263  15.671   2.162  0.0330  0.0428 -0.0385
 3884W        W23418   9.607   4.278   1.401  0.1914 -0.0070  0.4280
 3885W        W23419   4.888  10.934   3.146  0.2137 -0.2757  0.0454
 3886W        W23420   7.175  17.819  10.184  0.3175  0.0861  0.1651
 3887W        W23421  10.400  15.449   0.339 -0.0806  0.1315 -0.2848
 3888W        W23422   2.581   6.107   0.990  0.0853 -0.2742 -0.3677
 3889W        W23423  16.182  13.290   2.217 -0.1827  0.0174 -0.3056
 3890W        W23424  15.317  17.907  12.349  0.0805  0.1659  0.0067
 3891W        W23425  16.258  14.165  14.348  0.3349  0.2788  0.1082
 3892W        W23426   7.939   7.841   1.174 -0.0228 -0.1176 -0.0511
 3893W        W23427   2.693   1.863  12.839  0.2106  0.3204 -0.7396
 3894W        W23428  10.997  10.921  12.868  0.2370 -0.1400 -0.4745
 3895W        W23429  19.322  16.031   2.483 -0.0475  0.1668  0.0441
 3896W        W23430  15.268  15.499   3.202 -0.0512 -0.0280  0.0090
 3897W        W23431   4.858   5.580   1.447  0.1128  0.2093  0.1088
 3898W        W23432  17.869   3.876   0.756  0.2859  0.2261 -0.2319
 3899W        W23433   2.002  17.415  12.555  0.1716  0.1425  0.1419
 3900W        W23434   8.532   5.346   2.221  0.1365 -0.1379  0.2321
 3901W        W23435   1.462  16.357   9.748 -0.1790  0.1870 -0.1250
 3902W        W23436  14.291  15.052  13.612  0.2135  0.0220 -0.0422
 3903W        W23437  16.410  13.321  12.118  0.1853  0.0311 -0.1545
 3904W        W23438   3.741   7.024   3.148 -0.1240 -0.1008  0.2142
 3905W        W23439  12.618   6.161  10.765 -0.4078  0.0049 -0.1459
 3906W        W23440   5.966   0.010  12.833 -0.0162  0.1451 -0.3226
 3907W        W23441   5.548  10.100  11.380 -0.0415 -0.0019  0.1963
 3908W        W23442  11.378  10.429   3.399  0.2963 -0.1667  0.1112
 3909W        W23443  13.760   7.003  12.977 -0.1632  0.3559 -0.5445
 3910W        W23444   9.847   8.134  11.224 -0.0567  0.1331  0.1653
 3911W        W23445  14.250   0.285   3.354  0.1214  0.2881 -0.1995
 3912W        W23446  11.320   9.949   3.512 -0.0174  0.2967  0.0729
 3913W        W23447   5.116   4.650   3.614 -0.1474  0.1308  0.0841
 3914W        W23448   4.471  14.624   0.978  0.5491 -0.2820 -0.0767
 3915W        W23449   2.798   9.097   1.980 -0.1432  0.2869 -0.0288
 3916W        W23450   7.065  11.748  14.266  0.0359  0.0972 -0.3313
 3917W        W23451  10.218   0.937   2.918 -0.0610  0.0538  0.1542
 3918W        W23452   9.205   6.518   3.323  0.1155 -0.1187 -0.2488
 3919W        W23453   6.793   5.487   2.450  0.0015 -0.0824  0.1672
 3920W        W23454   5.274   9.877   2.324 -0.1626 -0.0074  0.0902
 3921W        W23455   7.980  12.210   2.246  0.0160 -0.2944 -0.3704
 3922W        W23456  12.016  16.544  14.080  0.2863 -0.2811  0.0930
 3923W        W23457   3.177   7.915   3.312  0.1488  0.0715  0.1197
 3924W        W23458   9.433  17.516  14.273  0.0405  0.1305 -0.1690
 3925W        W23459  16.890  10.256   0.316  0.0707  0.2077 -0.0244
 3926W        W23460  14.370   9.974   1.064  0.0358  0.1833 -0.1150
 3927W        W23461  18.869  13.414   9.700  0.1535  0.0762 -0.4584
 3928W        W23462   9.986   2.634  11.731  0.1271 -0.1527 -0.0970
 3929W        W23463  12.134  18.516  12.719 -0.0678  0.3566  0.0400
 3930W        W23464  18.654   7.106  10.465  0.0951 -0.2423  0.2640
 3931W        W23465   5.601   4.442   0.889 -0.1549  0.1306  0.3939
 3932W        W23466   7.158   0.581  13.807  0.0229 -0.0275 -0.2613
 3933W        W23467  19.018  17.236  10.613 -0.0304  0.0091 -0.1519
 3934W        W23468   3.593   3.800  12.620 -0.2186 -0.1927  0.0585
 3935W        W23469  11.446  12.679  11.561 -0.4934  0.1750  0.0922
 3936W        W23470   4.825   6.516  11.906 -0.4299  0.1938 -0.1500
 3937W        W23471   9.341   4.975  13.327 -0.1822 -0.1606 -0.2441
 3938W        W23472  18.574   8.296  12.510 -0.0112 -0.1072 -0.1475
 3939W        W23473   9.759  16.777  11.984  0.0427 -0.2933 -0.0983
 3940W        W23474  10.517  10.043  11.160  0.0605  0.3829 -0.1379
 3941W        W23475  12.478   7.465  11.518 -0.0265  0.2067 -0.0095
 3942W        W23476  11.901   9.874  10.711 -0.1759 -0.0543 -0.0466
 3943W        W23477   8.853   7.813   1.198 -0.1287  0.3375 -0.3110
 3944W        W23478  13.357   0.509   1.669  0.0816 -0.1797  0.1792
 3945W        W23479   0.100  11.233  10.932 -0.1640 -0.0192 -0.3447
 3946W        W23480  17.212   9.357  13.300  0.1355  0.1486 -0.1199
 3947W        W23481   8.871   0.367   3.249  0.2022 -0.1150 -0.0002
 3948W        W23482   9.589  17.083   0.121  0.2129  0.2368 -0.0286
 3949W        W23483   2.182   2.198  12.258  0.1333  0.1176 -0.2500
 3950W        W23484  18.343   2.873  13.803  0.0022  0.1266 -0.0604
 3951W        W23485   2.736   5.953  12.149  0.1416 -0.1896 -0.0882
 3952W        W23486  10.702  10.841  12.062  0.2430  0.0107 -0.1628
 3953W        W23487  18.442  18.486   2.735  0.0607 -0.0403 -0.0605
 3954W        W23488   6.358  13.479  12.131 -0.0670  0.1148  0.3224
 3955W        W23489   7.744  12.333   3.036  0.1392 -0.0006 -0.0089
 3956W        W23490  13.525  11.016   2.835 -0.1762  0.1830  0.3952
 3957W        W23491  12.912  14.989   3.733  0.0928 -0.2130 -0.2826
 3958W        W23492  18.212  16.278  10.957 -0.0624 -0.1687 -0.0273
 3959W        W23493  11.009   4.748   0.990 -0.2601  0.3235  0.2446
 3960W        W23494  18.892   4.171   1.544 -0.0577  0.0086  0.1177
 3961W        W23495   4.419   7.081   0.179 -0.0546  0.3104 -0.0085
 3962W        W23496   6.119  16.814   3.438 -0.0077 -0.1755 -0.3050
 3963W        W23497  14.550  12.834   0.014  0.1056  0.0357 -0.1693
 3964W        W23498  15.950  12.735   0.082 -0.1114  0.2714 -0.2609
 3965W        W23499  19.002  13.490   0.314  0.1919  0.1162 -0.0274
 3966W        W23500  13.807   5.569   3.850  0.1674 -0.2824  0.0000
 3967W        W23501   8.523  14.983   3.685 -0.1514 -0.3023  0.0503
 3968W        W23502   8.927  15.134  13.960 -0.0581  0.0478 -0.5708
 3969W        W23503  14.669  10.019  11.322  0.1221  0.1087  0.0103
 3970W        W23504  15.910  19.330   2.205 -0.0125  0.0916 -0.3082
 3971W        W23505  12.360   0.972   3.576 -0.0406  0.1984 -0.0099
 3972W        W23506   2.636   6.794  10.770  0.0679 -0.0408  0.1108
 3973W        W23507   7.567   3.727   3.212 -0.1467  0.0156  0.0949
 3974W        W23508  16.257   4.995   1.393 -0.2734 -0.1006 -0.2173
 3975W        W23509   8.516  13.821   1.230 -0.5970  0.0787 -0.2026
 3976W        W23510  11.797  17.294  11.112  0.3270 -0.2491 -0.0028
 3977W        W23511   8.360  18.268  13.532 -0.1725 -0.2996  0.0498
 3978W        W23512   6.314   1.057   3.934  0.0041 -0.0108 -0.0974
 3979W        W23513   1.665  12.987  10.100 -0.1921  0.1360 -0.0976
 3980W        W23514  15.475   6.635   1.060 -0.2908  0.3076  0.0048
 3981W        W23515   6.826  14.513   2.638 -0.1366  0.1781  0.0030
 3982W        W23516   4.001  13.236   1.003 -0.5214 -0.0529  0.1061
 3983W        W23517   5.089  16.648   2.141  0.1992 -0.0353 -0.1331
 3984W        W23518  14.492   5.707  12.910  0.0038 -0.0385 -0.0603
 3985W        W23519   0.095   4.865  12.445  0.2200 -0.1866 -0.3734
 3986W        W23520  18.293  15.225  13.127  0.1065 -0.4760 -0.1574
 3987W        W23521   6.602   2.729   3.888  0.1131 -0.0644 -0.0647
 3988W        W23522  19.182  10.753   1.743  0.3243  0.0897 -0.2376
 3989W        W23523   3.317   6.519  12.521 -0.1064 -0.1701  0.1636
 3990W        W23524  10.506  13.013   1.087 -0.0412  0.0022 -0.2259
 3991W        W23525   4.542   2.637  10.850 -0.0028  0.0866  0.1600
 3992W        W23526   0.387   5.287   0.976 -0.4435  0.1475  0.3656
 3993W        W23527  16.102  13.981   1.888 -0.0830 -0.0670 -0.0576
 3994W        W23528  15.393  18.178   1.391  0.3107  0.1112  0.1406
 3995W        W23529  13.960   1.754  12.642 -0.2276  0.2474  0.0431
 3996W        W23530  12.566   0.456   4.228 -0.3212  0.2480 -0.0541
 3997W        W23531   2.454   0.422   1.838  0.2360  0.3201  0.1533
 3998W        W23532  11.657   3.266  12.141  0.1827  0.2232  0.1147
 3999W        W23533   5.694  13.134  11.307  0.1503  0.1806  0.1263
 4000W        W23534   7.038  15.329   1.913  0.0250  0.3048  0.2302
 4001W        W23535   3.454   4.719   2.354  0.0310  0.1657 -0.3626
 4002W        W23536  18.702   6.778   2.743 -0.2531 -0.2022 -0.3588
 4003W        W23537   7.346  15.946  14.276 -0.0407  0.1926  0.1508
 4004W        W23538   6.827  13.535   3.993 -0.0532 -0.2415 -0.1805
 4005W        W23539   7.940  13.005   2.881 -0.0954 -0.0380 -0.1101
 4006W        W23540  12.193   1.337   0.948  0.1897 -0.0686 -0.1639
 4007W        W23541  16.080   0.281  13.100 -0.2105  0.0180  0.0023
 4008W        W23542   7.888   0.251   4.354  0.1426 -0.1618 -0.0305
 4009W        W23543  17.190   1.044   2.677  0.0435  0.1058  0.3153
 4010W        W23544   3.541  13.981   1.731  0.0690  0.1255 -0.0516
 4011W        W23545  10.249  13.794  11.683  0.0906 -0.0295  0.0448
 4012W        W23546  16.589   4.295   3.553  0.1993  0.1748  0.2620
 4013W        W23547  17.045  14.340  12.574  0.1629  0.2158 -0.0779
 4014W        W23548  15.680  13.573  12.733 -0.1217  0.0678 -0.0860
 4015W        W23549   2.129  19.288  14.276  0.0312  0.0499 -0.1399
 4016W        W23550   2.925  10.583  13.451  0.0504 -0.0942 -0.0192
 4017W        W23551   1.053   5.389  11.755  0.2416  0.0772  0.2102
 4018W        W23552  19.480  14.306  11.545  0.2055  0.0627 -0.0846
 4019W        W23553  12.945  13.111   3.320 -0.2245  0.0130 -0.0291
 4020W        W23554  14.331   4.081   1.216 -0.0700  0.1888  0.5547
 4021W        W23555  13.688   4.156   3.317  0.2393 -0.0421 -0.2892
 4022W        W23556  19.283  17.272   1.195  0.2274 -0.0700 -0.0105
 4023W        W23557  17.150   9.740  13.022 -0.1080  0.2822  0.1977
 4024W        W23558   7.055   9.542  14.152 -0.0468 -0.0058  0.2131
 4025W        W23559   1.866   3.800  14.262 -0.0818 -0.0045 -0.2641
 4026W        W23560  14.883   4.361   9.477 -0.2812  0.3603 -0.0574
 4027W        W23561   6.878   9.452  12.062 -0.1964 -0.1820  0.3582
 4028W        W23562   3.051   8.392  11.990  0.1643  0.2205 -0.0316
 4029W        W23563  14.548   4.666   1.947 -0.0213  0.0043  0.2463
 4030W        W23564   3.377   4.294   3.654 -0.3080  0.2214 -0.2295
 4031W        W23565   4.364   5.270  12.891 -0.1014 -0.5879  0.0774
 4032W        W23566  10.351  18.611   3.057  0.1008  0.0294  0.0016
 4033W        W23567   9.224   2.099  11.033  0.1436 -0.1604  0.2101
 4034W        W23568   3.088   6.419   2.056 -0.5009  0.0643  0.0098
 4035W        W23569  13.782  13.166   9.383  0.0542 -0.0638 -0.3169
 4036W        W23570   1.229  11.962  11.122  0.1239  0.1681 -0.1735
 4037W        W23571   2.178  18.680   2.103  0.0141  0.1172  0.0598
 4038W        W23572   5.030   2.569   2.140 -0.0360  0.0645 -0.0377
 4039W        W23573   2.079  12.416   1.862 -0.0714  0.0278  0.1432
 4040W        W23574   3.650   2.788  10.658  0.0960 -0.0593 -0.0528
 4041W        W23575  11.212   0.954  12.707  0.0083  0.2371  0.1167
 4042W        W23576  17.802  15.713   0.499  0.2406  0.4334  0.1586
 4043W        W23577   8.857  14.718   1.668  0.1158  0.5333  0.2691
 4044W        W23578  15.742  15.029   1.589  0.2682  0.0130 -0.0815
 4045W        W23579  11.050  16.813   2.108  0.0637 -0.3253  0.2568
 4046W        W23580   0.636   0.899  14.072 -0.1212 -0.2783  0.0998
 4047W        W23581   4.672  13.626   1.004 -0.1728  0.0345 -0.0290
 4048W        W23582  18.173   0.773   4.261  0.0778 -0.3206 -0.2351
 4049W        W23583  14.019  15.140   2.773 -0.2542  0.2029  0.1769
 4050W        W23584   1.815   9.885  13.314 -0.1810  0.0868 -0.1745
 4051W        W23585   8.802   2.618  10.628 -0.0188 -0.2821  0.4477
 4052W        W23586  12.924  16.420   1.571 -0.0339 -0.2760 -0.2363
 4053W        W23587   7.735  10.947  10.844 -0.0277 -0.1003 -0.2117
 4054W        W23588  11.065  18.556   3.657  0.0465  0.0148  0.0150
 4055W        W23589   4.669  17.477   1.376 -0.3114 -0.1288  0.3473
 4056W        W23590  13.796   2.103   3.161  0.2230  0.1470  0.1823
 4057W        W23591   6.645  18.092  11.538  0.1217  0.1572  0.1125
 4058W        W23592   6.390   5.296  14.131 -0.1029 -0.0072 -0.0671
 4059W        W23593  10.794   8.555   3.928  0.0234 -0.1109  0.0108
 4060W        W23594   2.561   1.195   2.849 -0.1913  0.4211 -0.2124
 4061W        W23595  13.961   3.139   2.314  0.1087 -0.4433 -0.0095
 4062W        W23596  16.271  16.502  13.053 -0.0394  0.0028  0.3094
 4063W        W23597  18.038   8.547  14.117 -0.0849 -0.0608 -0.3335
 4064W        W23598   7.203  16.349  13.913 -0.2485 -0.2507  0.0482
 4065W        W23599   1.168   8.312  11.948  0.0288 -0.2282  0.0165
 4066W        W23600   4.882   8.645   2.444  0.2046  0.4145 -0.1447
 4067W        W23601   2.907  17.143   3.612 -0.0038 -0.1891 -0.0063
 4068W        W23602  13.211  18.070   2.441 -0.0682  0.1929 -0.0812
 4069W        W23603   6.863   3.156   3.911  0.3005  0.0052  0.2607
 4070W        W23604  18.490  17.512  13.831 -0.2522  0.0817  0.2552
 4071W        W23605  17.344  12.377  11.732 -0.4407 -0.2192  0.1581
 4072W        W23606  12.612  11.612   1.295  0.2260 -0.0582  0.0328
 4073W        W23607  14.205  12.814   1.922  0.1119 -0.1671  0.2182
 4074W        W23608   2.917  11.144   0.881  0.3476  0.0349 -0.0500
 4075W        W23609   3.375   1.756  10.229 -0.2999  0.2344 -0.2589
 4076W        W23610   2.093  10.946  13.161  0.0162 -0.0056  0.1191
 4077W        W23611   2.205   4.465  11.137  0.2667 -0.4775 -0.1695
 4078W        W23612  10.083   4.448  12.386 -0.1025 -0.3696  0.2513
 4079W        W23613  16.735  15.006   2.360 -0.0213  0.0817 -0.5159
 4080W        W23614   2.000   9.930   3.627 -0.1496 -0.0475 -0.0813
 4081W        W23615   6.212   9.415  14.020 -0.1717 -0.3886  0.1056
 4082W        W23616  13.487   7.028  13.571  0.2335  0.1367 -0.0510
 4083W        W23617  11.841  17.900  11.031  0.4883  0.0288 -0.1212
 4084W        W23618   2.400   1.970  10.965  0.1924 -0.0061 -0.3811
 4085W        W23619   5.561  19.438  12.112 -0.3964  0.0167 -0.0593
 4086W        W23620  13.198  17.822   0.733  0.0001 -0.1536  0.1501
 4087W        W23621  15.820   3.326   3.679  0.0101  0.0093 -0.1002
 4088W        W23622  19.363  17.452   0.527  0.2710 -0.1785  0.0847
 4089W        W23623  17.941  18.717   2.778 -0.0618  0.2901  0.1619
 4090W        W23624   9.967   2.804   1.189 -0.1067  0.1676 -0.2813
 4091W        W23625  10.449  12.867   3.490 -0.2664 -0.2853 -0.1343
 4092W        W23626   3.326  18.341  11.344  0.1115  0.0587  0.1405
 4093W        W23627  12.609   8.738   1.116  0.0204  0.1498 -0.0009
 4094W        W23628   6.198  15.547   0.791  0.1121 -0.0458 -0.0021
 4095W        W23629  12.531   0.240  10.588 -0.5320 -0.0935 -0.0186
 4096W        W23630   8.466   6.054   3.369 -0.1581 -0.3908 -0.1497
 4097W        W23631  18.534  12.044   1.447 -0.0542 -0.0732  0.0120
 4098W        W23632  11.675   9.613   2.100  0.0803 -0.1895 -0.1286
 4099W        W23633   6.940   1.666   0.128  0.0165  0.0812 -0.1242
 4100W        W23634  10.417   1.640  14.157  0.1688 -0.3499  0.1773
 4101W        W23635   9.949   2.094   5.083 -0.0895 -0.3390  0.3080
 4102W        W23636   7.423  11.123   2.708  0.0588 -0.2917 -0.1544
 4103W        W23637  16.349   2.583  11.636 -0.1862 -0.2247 -0.1052
 4104W        W23638  13.416  18.101   1.962  0.0815 -0.1055 -0.0123
 4105W        W23639   6.027  16.426   0.666 -0.0352 -0.1035 -0.0571
 4106W        W23640  13.329  10.685   1.716  0.0727  0.2857  0.3174
 4107W        W23641  14.943  18.734   0.236 -0.2486 -0.2721 -0.2865
 4108W        W23642  12.841   9.792   1.916  0.0404  0.0308 -0.0118
 4109W        W23643  19.358   9.962  12.856 -0.1802 -0.2600  0.6090
 4110W        W23644   1.767  15.311   3.752  0.0694 -0.0407  0.0827
 4111W        W23645  13.655   5.243   0.372  0.0806 -0.0814 -0.2117
 4112W        W23646   0.278   4.505  14.245 -0.0159 -0.5243  0.1499
 4113W        W23647  17.216  14.973   0.368  0.3996 -0.3728 -0.0443
 4114W        W23648   0.104   9.870  12.420 -0.0739 -0.2067 -0.3798
 4115W        W23649   0.769  14.274  13.943  0.3243  0.5032 -0.1634
 4116W        W23650  14.917  13.742   0.557  0.0308 -0.1027 -0.2620
 4117W        W23651   4.330  17.292  13.960 -0.0565  0.1753 -0.1309
 4118W        W23652   9.125  19.081   3.211 -0.2307  0.2583 -0.0365
 4119W        W23653  11.860  11.742  10.478 -0.0056  0.2260 -0.1147
 4120W        W23654  11.801   3.040   4.115  0.0841  0.2265 -0.2505
 4121W        W23655   9.541  16.227   3.349  0.2021  0.2162 -0.0992
 4122W        W23656  10.701  15.063  10.257 -0.3677 -0.0820 -0.0232
 4123W        W23657   7.686   0.722  10.563  0.0858 -0.1142  0.0207
 4124W        W23658   4.415   0.521  14.109  0.2113 -0.0215 -0.0031
 4125W        W23659   2.647  18.167   0.725  0.1576  0.0607 -0.3329
 4126W        W23660   5.689  18.355  10.838  0.1498 -0.1657  0.3437
 4127W        W23661   2.837  10.565   0.253  0.0088  0.0833 -0.1854
 4128W        W23662   2.372  10.133  10.111  0.0905  0.1859  0.4402
 4129W        W23663   0.757  17.830  11.930  0.3655 -0.1915  0.0198
 4130W        W23664   1.774  17.522  10.565  0.1281 -0.2170 -0.0501
 4131W        W23665   5.197  17.629   2.494  0.1586 -0.7230 -0.2109
 4132W        W23666   7.194   7.712   0.851 -0.1939 -0.2912  0.1577
 4133W        W23667   8.491   0.417   0.161 -0.0430 -0.0737  0.2678
 4134W        W23668   4.439   7.222   2.943 -0.0224 -0.2835  0.2298
 4135W        W23669  12.732   1.245  12.336 -0.1488  0.1599 -0.5183
 4136W        W23670   8.200  10.961   3.174  0.1172 -0.0009  0.0861
 4137W        W23671   9.912   1.431   9.879  0.1991  0.4952  0.0185
 4138W        W23672   6.469  11.422  10.451  0.0569 -0.1968  0.0242
 4139W        W23673   6.255   0.894  11.907 -0.0438 -0.0505 -0.0614
 4140W        W23674  10.083  18.141  13.134 -0.1504  0.0841  0.0658
 4141W        W23675  13.253  11.809  10.710 -0.1513  0.0636  0.0411
 4142W        W23676  15.681  13.022  11.525 -0.0450  0.0221  0.2574
 4143W        W23677  15.276  17.931   3.486  0.0201 -0.0606  0.0402
 4144W        W23678  13.004  14.836   2.870 -0.0866  0.0760 -0.1275
 4145W        W23679  12.152   3.574  11.958  0.2323 -0.1802 -0.0334
 4146W        W23680   4.316   8.746   0.924  0.2750  0.0130  0.0633
 4147W        W23681   8.238   1.972   3.401  0.0059  0.0140  0.0608
 4148W        W23682   7.684   4.304   2.409  0.0907  0.0790 -0.2357
 4149W        W23683   0.269  11.256   3.914  0.1171 -0.2281 -0.1914
 4150W        W23684   9.543  10.413   3.643 -0.0263 -0.0443 -0.0378
 4151W        W23685   9.665   9.242  10.468 -0.0742 -0.0591 -0.1137
 4152W        W23686  15.664   7.222   2.164 -0.3651  0.1726 -0.3220
 4153W        W23687  15.603   1.362   2.815  0.2348  0.2158  0.0264
 4154W        W23688  18.276   4.829  12.800  0.1504  0.0995  0.2617
 4155W        W23689  12.820   5.771   3.767 -0.1586  0.2011 -0.1355
 4156W        W23690  13.380  13.551  10.316 -0.0271 -0.1731 -0.0292
 4157W        W23691  11.347  14.768   9.899 -0.3035  0.1792  0.4482
 4158W        W23692  14.223   0.807  10.693 -0.3213  0.2448  0.1270
 4159W        W23693   3.024  19.245  13.002 -0.0361 -0.3236 -0.0260
 4160W        W23694  17.271   7.578   2.521  0.0093 -0.1609  0.0071
 4161W        W23695  12.599  13.825   2.595  0.1982  0.0229  0.0308
 4162W        W23696  14.308   9.308  10.711 -0.2637 -0.3084 -0.0160
 4163W        W23697   2.450   5.143   2.676  0.0678  0.5191  0.3349
 4164W        W23698   6.769   1.681  13.307 -0.1157  0.0350 -0.3000
 4165W        W23699  18.185   3.870  13.511 -0.3263 -0.2515  0.3691
 4166W        W23700  14.165   7.211   0.713 -0.0712 -0.0692  0.0386
 4167W        W23701  17.456  15.456   2.077  0.1783  0.0531  0.2607
 4168W        W23702   8.742  18.071   0.339 -0.0833  0.1283 -0.2474
 4169W        W23703   6.421  18.219   1.716 -0.2599 -0.0765 -0.0713
 4170W        W23704   9.334  13.857  13.024 -0.2724 -0.1305  0.2634
 4171W        W23705  14.624  10.483   0.223 -0.0584 -0.0013 -0.0138
 4172W        W23706   1.813   6.790  12.480  0.0823  0.1965  0.0614
 4173W        W23707  10.485   8.589   3.538  0.0712  0.0210  0.2395
 4174W        W23708  16.280   9.442   1.495  0.0120  0.0339 -0.1146
 4175W        W23709  19.158  12.030  10.895  0.0412  0.3285  0.1869
 4176W        W23710   6.239   0.092   0.481  0.0759 -0.0541 -0.0490
 4177W        W23711   4.863   7.581   2.822  0.0587 -0.1250  0.0433
 4178W        W23712   4.813  17.372  10.496 -0.0957  0.1067 -0.0308
 4179W        W23713   1.839  10.383  10.984 -0.5181  0.0845  0.0704
 4180W        W23714   4.885   6.009  11.653  0.1271  0.2502  0.0155
 4181W        W23715  16.327   6.351   2.714 -0.0777  0.2816 -0.2750
 4182W        W23716   3.203   4.295  13.922  0.1945 -0.1273 -0.2318
 4183W        W23717  14.615  11.083  13.123 -0.0680 -0.3536  0.0227
 4184W        W23718   4.839  14.786  12.099  0.3473  0.0789  0.2435
 4185W        W23719  16.513  16.591  12.175  0.2874  0.1635  0.0748
 4186W        W23720   6.149  17.575   0.485 -0.0786 -0.1694  0.2813
 4187W        W23721   6.159   2.379   0.028  0.1414  0.3941 -0.1035
 4188W        W23722   3.699   0.684   2.346  0.1168  0.0930  0.1413
 4189W        W23723   8.488   0.112  12.330  0.2262  0.0107 -0.1027
 4190W        W23724   8.491  13.663   3.856  0.0727  0.2691 -0.0968
 4191W        W23725   6.758   9.284  13.801  0.1243 -0.1144 -0.1572
 4192W        W23726   3.351   9.597   3.645  0.0383  0.0948  0.1636
 4193W        W23727   8.907  14.259   3.840  0.1165 -0.1907 -0.1356
 4194W        W23728  12.927  16.849   0.664  0.1513  0.2350  0.0303
 4195W        W23729   0.466  17.910   1.496 -0.1340  0.0989 -0.2824
 4196W        W23730   5.791  19.325   2.815  0.2414 -0.0276  0.1156
 4197W        W23731   7.830  19.040   1.434 -0.1150  0.0161 -0.0052
 4198W        W23732   5.300  18.019   3.117 -0.0930 -0.0854 -0.0564
 4199W        W23733  15.345   3.209  10.256  0.3729  0.2215  0.1731
 4200W        W23734   5.533   7.204   2.461 -0.1349  0.1256  0.0287
 4201W        W23735  14.158  13.975   1.478  0.4929  0.2198 -0.2214
 4202W        W23736   7.187   4.430   0.313 -0.0787  0.1508 -0.0089
 4203W        W23737  10.482   6.124   9.448 -0.0678  0.1413 -0.1858
 4204W        W23738  18.877   9.572  12.182 -0.3505  0.3563  0.1087
 4205W        W23739  14.853   0.550   0.729  0.0521 -0.3605 -0.2948
 4206W        W23740  17.017   1.537   2.933 -0.2816 -0.0094 -0.0995
 4207W        W23741  15.780   5.785  11.191 -0.2559 -0.0074 -0.0522
 4208W        W23742  12.018  13.022  10.462  0.5610 -0.1987 -0.0364
 4209W        W23743  14.962   9.993  11.675 -0.0268  0.0196 -0.3836
 4210W        W23744   9.964   5.429   1.089  0.2528 -0.3623 -0.2182
 4211W        W23745  12.622   4.673   3.162 -0.0944 -0.0594  0.1568
 4212W        W23746   3.445  13.110   3.282 -0.0544  0.1153 -0.0520
 4213W        W23747  14.562   4.648   0.521 -0.0982 -0.0182 -0.1780
 4214W        W23748  14.654   4.287  11.501  0.0912  0.1648 -0.0511
 4215W        W23749   2.985  18.730  10.655 -0.1030  0.0845 -0.1375
 4216W        W23750  18.607   1.332   4.105 -0.2308  0.4177 -0.0676
 4217W        W23751   9.439   4.668  11.701  0.1942  0.2394 -0.1149
 4218W        W23752  14.483   8.729   3.491  0.0537  0.3296 -0.1998
 4219W        W23753  17.504  11.959  12.595 -0.0676 -0.0163  0.0797
 4220W        W23754  18.645  11.101  12.055 -0.2468  0.0770 -0.2631
 4221W        W23755  11.231  17.539  10.283 -0.0866  0.4711  0.0654
 4222W        W23756   8.992   8.104   3.573  0.2661  0.1283  0.0609
 4223W        W23757   7.958   4.776  13.988  0.1769  0.1251 -0.2029
 4224W        W23758  13.435  15.913  13.157  0.0203  0.0628 -0.1214
 4225W        W23759  14.539  10.275   2.023  0.0550 -0.0076 -0.0331
 4226W        W23760   9.927   3.260   2.123 -0.0195  0.0555 -0.1975
 4227W        W23761  14.787  17.800  11.025 -0.2480 -0.1577  0.0634
 4228W        W23762  11.012   4.396  13.368  0.0449  0.3326  0.3519
 4229W        W23763   1.205   9.046   1.800 -0.0320 -0.1319  0.2001
 4230W        W23764  13.051   3.143  11.981 -0.0740 -0.1102  0.1865
 4231W        W23765   7.529  12.299   3.501 -0.1344  0.2265  0.0854
 4232W        W23766   7.728  10.594  13.007  0.0976  0.0781 -0.0597
 4233W        W23767  12.058   1.248   4.328  0.0518 -0.2239  0.0431
 4234W        W23768  15.365  18.732  13.043 -0.0919  0.2217  0.0483
 4235W        W23769  14.073   0.614   2.402 -0.1125 -0.2946  0.0297
 4236W        W23770   0.825   7.020  13.584  0.0721  0.2381  0.2890
 4237W        W23771   4.087   0.508   3.820 -0.1633  0.1081 -0.0315
 4238W        W23772  13.452  11.133  12.661 -0.0380 -0.1387 -0.0226
 4239W        W23773  11.998  15.039   2.839 -0.2288  0.1729  0.0356
 4240W        W23774  18.252  19.347   4.199  0.1576  0.0648  0.0454
 4241W        W23775   9.184  18.683   4.059  0.1382  0.2241  0.1202
 4242W        W23776   3.878  13.702   0.688 -0.0462  0.0269 -0.1866
 4243W        W23777  10.476   0.883   1.863 -0.0871 -0.0028  0.1861
 4244W        W23778  13.401   6.856   2.418 -0.0153  0.0806  0.0257
 4245W        W23779   2.480   2.982  14.339  0.3501  0.1022  0.0717
 4246W        W23780   8.635  14.678   4.039  0.0750  0.2280 -0.0147
 4247W        W23781   8.658   0.598   9.296  0.0315 -0.0364 -0.2026
 4248W        W23782   4.365  17.639  11.824  0.2003 -0.1642  0.0364
 4249W        W23783   5.230  18.106   2.455  0.0380 -0.0066 -0.0755
 4250W        W23784   6.416  10.167   2.414 -0.0817  0.0542  0.0595
 4251W        W23785  15.461  13.235   3.618  0.0614 -0.1716  0.1800
 4252W        W23786  11.867  18.507  14.248  0.0043  0.0027 -0.0455
 4253W        W23787  17.618  10.531  13.535  0.2454 -0.2078  0.3548
 4254W        W23788   1.578   2.595  13.434 -0.3962  0.0009 -0.3103
 4255W        W23789  13.867   2.631   2.097 -0.0593 -0.2035 -0.0672
 4256W        W23790   9.009  13.908  14.066  0.0260 -0.0677 -0.0473
 4257W        W23791  14.342  15.169   0.856 -0.0467  0.3251 -0.0755
 4258W        W23792  13.382   8.075  12.189  0.1540  0.1556 -0.1046
 4259W        W23793   3.839  16.109   1.667  0.2404 -0.2350 -0.1204
 4260W        W23794  14.774   9.664   0.831 -0.3664  0.1798 -0.2500
 4261W        W23795   6.638   0.490   0.650 -0.0179 -0.1006 -0.0643
 4262W        W23796  16.105  13.129   3.218 -0.0497  0.0159 -0.1974
 4263W        W23797  12.728   4.779   1.954  0.0624 -0.3689  0.0118
 4264W        W23798   7.440  13.479  13.306 -0.0782  0.2160  0.0949
 4265W        W23799   8.440  17.456   0.270  0.2691  0.0347 -0.0822
 4266W        W23800   7.142  12.818  12.471  0.0514  0.0571  0.1176
 4267W        W23801   5.304   9.498   9.760  0.1776  0.1987  0.1507
 4268W        W23802  14.946  13.115  13.579  0.1643  0.1645 -0.0037
 4269W        W23803  11.275   4.023  12.889 -0.0895 -0.0616 -0.0860
 4270W        W23804  17.553  16.953   4.629  0.1508 -0.2357 -0.2005
 4271W        W23805  12.170  11.749  12.596 -0.0258 -0.4271 -0.0190
 4272W        W23806  10.547   5.093  11.362  0.2285  0.0991 -0.0191
 4273W        W23807  15.881   7.603  11.361 -0.0636  0.1802  0.0935
 4274W        W23808  11.180   8.842   0.103  0.0278 -0.1481  0.3499
 4275W        W23809   3.519  17.892   1.240  0.0700 -0.1806  0.1938
 4276W        W23810  17.399   0.348   9.726  0.0551 -0.0088 -0.0174
 4277W        W23811  11.716  11.327   2.960 -0.1840 -0.0522 -0.0175
 4278W        W23812   9.612  16.564   4.636  0.0277  0.4310 -0.0422
 4279W        W23813  11.458  14.562  14.269  0.5099  0.0251 -0.0486
 4280W        W23814   2.034   2.083   1.352  0.1417  0.0473  0.0220
 4281W        W23815  12.459   7.681  10.257  0.0193 -0.0005  0.0379
 4282W        W23816   9.642  13.323  11.546  0.1339 -0.0154  0.0721
 4283W        W23817  13.625   9.825   3.432 -0.2086  0.1727  0.2836
 4284W        W23818   7.464  15.759   3.174  0.0833  0.2441  0.1680
 4285W        W23819   4.899  11.813   4.056  0.7573 -0.1656 -0.1965
 4286W        W23820   0.226   9.640  12.010  0.1762  0.3530  0.0043
 4287W        W23821  14.143   9.486   4.073  0.0390 -0.0032 -0.0835
 4288W        W23822  14.769   7.617  12.811 -0.0739 -0.0410 -0.0663
 4289W        W23823   6.822   6.529   4.080 -0.0565 -0.0711  0.1807
 4290W        W23824   8.164  17.836   2.241 -0.2282  0.1000 -0.0070
 4291W        W23825  17.714  16.971  14.288 -0.2083 -0.1468 -0.1422
 4292W        W23826   3.484   2.534   3.054  0.0864  0.2552 -0.1394
 4293W        W23827  11.145   0.394  11.675  0.1154 -0.1501  0.0271
 4294W        W23828   8.085  10.703   3.914 -0.2685 -0.2253  0.0641
 4295W        W23829   3.342  10.181   0.611 -0.0905  0.1878  0.2254
 4296W        W23830   8.383   2.028  12.745  0.2080 -0.0686 -0.1596
 4297W        W23831   9.055  19.277   1.349 -0.0471 -0.4358  0.2427
 4298W        W23832  11.003  16.350  13.910  0.2881 -0.3398  0.0339
 4299W        W23833  12.368   9.967  11.883 -0.1419  0.1759 -0.2965
 4300W        W23834  12.110   9.482   1.226  0.0506 -0.1009  0.4108
 4301W        W23835  15.223   9.343   0.126 -0.0087  0.0362 -0.0201
 4302W        W23836   1.532  19.536   2.901 -0.2234 -0.0674  0.2430
 4303W        W23837  10.071  13.213  10.749 -0.1507  0.2829 -0.0444
 4304W        W23838   6.052  17.132   2.977 -0.0402 -0.0604  0.1449
 4305W        W23839  14.033   5.984   1.119  0.0203  0.1648  0.1183
 4306W        W23840   0.930   4.457  11.405  0.0984 -0.0223  0.4762
 4307W        W23841   8.851  10.555  13.960 -0.0869 -0.0276  0.0539
 4308W        W23842  14.460  18.871   3.276 -0.1402 -0.0472 -0.0169
 4309W        W23843   5.703  17.725   9.768  0.1831  0.2218  0.1861
 4310W        W23844  13.186  15.013   1.580  0.0512 -0.2123  0.1696
 4311W        W23845  13.500   6.938  12.172  0.1243  0.4162  0.0845
 4312W        W23846  17.612  13.027   0.563 -0.1302  0.1051 -0.1002
 4313W        W23847   5.582   4.189  13.415 -0.0223 -0.1261  0.4690
 4314W        W23848   4.097   3.923  11.985 -0.0886 -0.0231  0.1210
 4315W        W23849  19.203   0.911   3.586  0.0431  0.0013  0.1754
 4316W        W23850  13.204  18.282   0.452  0.0727 -0.3435  0.0459
 4317W        W23851   0.736  13.556   1.994  0.0186  0.0433  0.0131
 4318W        W23852  11.854  15.383  12.700 -0.0456 -0.2251 -0.2705
 4319W        W23853  10.551   7.248   2.493  0.1151  0.2857 -0.0879
 4320W        W23854  14.902  17.370   4.872 -0.1745  0.1326 -0.0456
 4321W        W23855  14.289  16.036  12.798  0.3653 -0.1741  0.3670
 4322W        W23856   8.274   0.642  12.266 -0.0868 -0.2629  0.1537
 4323W        W23857   9.634   5.559   1.932  0.4497 -0.2700 -0.2798
 4324W        W23858  13.873  17.757  11.373  0.1152 -0.2553 -0.0603
 4325W        W23859   7.975  10.962  12.772  0.2164 -0.0027 -0.2513
 4326W        W23860   6.857  10.627  14.028 -0.0255 -0.2439  0.2309
 4327W        W23861  12.215  16.609   2.240  0.0816  0.0987 -0.0971
 4328W        W23862  18.793   8.171  10.746  0.1218 -0.1852 -0.1475
 4329W        W23863  12.095  11.032  10.143 -0.0065 -0.0608  0.0578
 4330W        W23864  14.780   2.443  12.976  0.0551 -0.0246  0.1175
 4331W        W23865  17.428   3.565  11.920  0.0851 -0.0227 -0.0643
 4332W        W23866  15.335   2.711   1.491 -0.2422  0.0433 -0.2081
 4333W        W23867  13.884  14.746  10.744 -0.0766  0.0673 -0.1204
 4334W        W23868  11.228  13.520  11.636 -0.1025 -0.0499 -0.1268
 4335W        W23869  10.915   4.941   2.438  0.1521 -0.0174 -0.1908
 4336W        W23870   5.876   3.799   3.869 -0.2063 -0.1410  0.0399
 4337W        W23871  16.982  13.139  12.786  0.0158 -0.0501  0.2507
 4338W        W23872   9.564   9.200   2.099 -0.1158  0.0089 -0.0684
 4339W        W23873   6.548   7.579   0.559 -0.1461  0.2684 -0.1176
 4340W        W23874   6.650   5.674  13.044  0.1274 -0.0158 -0.0689
 4341W        W23875  14.485   1.650   3.149  0.1218  0.0637  0.1326
 4342W        W23876  15.913  18.151  10.685  0.4278  0.0198 -0.2648
 4343W        W23877   0.851   1.236  11.014 -0.2172 -0.0800 -0.0509
 4344W        W23878  11.965   5.247  10.253 -0.3946  0.1463 -0.0700
 4345W        W23879  14.524   2.521  10.477 -0.0629  0.3117  0.0003
 4346W        W23880   1.551   8.973   3.337  0.1743 -0.1266  0.1543
 4347W        W23881   1.618   9.155   2.740  0.0251 -0.1798  0.1232
 4348W        W23882  18.867  11.126  10.547  0.3253  0.2640 -0.0391
 4349W        W23883   6.137  18.096  10.946 -0.0059  0.0034 -0.3711
 4350W        W23884   9.504   5.330  11.106  0.0352 -0.1718  0.2321
 4351W        W23885   4.991  14.793  13.121  0.0490  0.1359 -0.3392
 4352W        W23886   0.897   5.862  11.957  0.0314 -0.2385 -0.3328
 4353W        W23887  13.434  18.350   3.473  0.3745 -0.1550 -0.2013
 4354W        W23888   4.860  14.204  13.695  0.0704 -0.1459  0.0972
 4355W        W23889   9.758  19.211  12.235 -0.1252  0.1866 -0.0353
 4356W        W23890   1.595   2.980   2.032 -0.0494  0.1671 -0.3233
 4357W        W23891  18.881   9.579  10.583 -0.1041 -0.0911 -0.0885
 4358W        W23892  18.811  17.048  12.818  0.2319  0.0196  0.0074
 4359W        W23893   4.980   7.227   1.032  0.1708 -0.1536 -0.0583
 4360W        W23894  13.637   8.579   1.138  0.0707  0.1193 -0.0401
 4361W        W23895   2.208   8.634   0.994 -0.0803 -0.1956 -0.1872
 4362W        W23896  14.733   2.465   1.105 -0.4141  0.0467 -0.1997
 4363W        W23897   3.182   3.128   1.616  0.0493  0.0464  0.2338
 4364W        W23898   0.604   6.144  10.979 -0.0198  0.2443  0.2331
 4365W        W23899   3.354  19.502   1.808  0.1416  0.2643  0.1127
 4366W        W23900  12.391  12.875   9.075  0.2207  0.2478  0.0794
 4367W        W23901  14.464   3.162  10.462  0.1289  0.0240 -0.2807
 4368W        W23902  14.128  16.532   3.788  0.1486  0.0544  0.2829
 4369W        W23903   6.208   9.371  13.044  0.0716  0.0184 -0.0017
 4370W        W23904  17.007  10.744  12.836  0.0121 -0.1723 -0.0642
 4371W        W23905   8.431  10.273  13.926 -0.3567 -0.2642  0.1672
 4372W        W23906  11.263  11.694   3.032 -0.1225 -0.1109  0.1153
 4373W        W23907  16.444  12.107  11.140  0.0914 -0.2240  0.0389
 4374W        W23908   5.375  16.976   3.787  0.0992 -0.0692  0.0309
 4375W        W23909  19.223  10.669  11.503  0.3424  0.3748 -0.1222
 4376W        W23910  15.223  14.106   1.270 -0.2002  0.1865 -0.1014
 4377W        W23911  15.866   6.642   4.523 -0.1697  0.0801  0.1332
 4378W        W23912  17.726  14.686   2.801 -0.3412  0.0366 -0.2414
 4379W        W23913  12.502   9.557   1.645  0.2701 -0.2205  0.0121
 4380W        W23914  15.741  17.377  14.204 -0.0689 -0.0325 -0.2336
 4381W        W23915   5.642  16.195  13.048  0.1472  0.0213  0.0079
 4382W        W23916   4.796  19.027   1.834 -0.1578 -0.1213  0.0396
 4383W        W23917  10.483   9.073   3.980  0.3572 -0.0249  0.0467
 4384W        W23918   5.845  14.826   2.839 -0.3091  0.0905  0.1301
 4385W        W23919  12.062   8.181  10.969 -0.0471 -0.0785  0.0806
 4386W        W23920   8.337   8.450   0.344  0.0134 -0.2408  0.0431
 4387W        W23921  13.988  13.586  11.836  0.0410  0.3921 -0.4456
 4388W        W23922   5.111   6.602   3.151  0.1242 -0.2417  0.3211
 4389W        W23923  19.035   5.746   2.811 -0.0020 -0.1433  0.1490
 4390W        W23924  11.261   8.228   3.215 -0.0086  0.0333 -0.1764
 4391W        W23925   6.126  14.953   4.630  0.1156 -0.2185  0.1929
 4392W        W23926  11.274  11.309  12.473 -0.2651  0.3521  0.0610
 4393W        W23927   5.021  10.052  11.490  0.1468 -0.0832  0.0315
 4394W        W23928  18.093   6.209  14.088  0.1545  0.1269  0.0024
 4395W        W23929   9.045   7.400   2.613 -0.3736 -0.1516 -0.0405
 4396W        W23930   5.126  11.298  12.287 -0.0158 -0.0296 -0.0430
 4397W        W23931  16.123   5.666   2.118 -0.0089  0.1518  0.0950
 4398W        W23932  15.309  16.474   0.345  0.3900 -0.0126 -0.0573
 4399W        W23933   8.632  15.913  10.432  0.0313  0.0864  0.3666
 4400W        W23934   3.667  16.930   2.204 -0.1464 -0.0412  0.1301
 4401W        W23935  13.251   1.053   2.531 -0.0460 -0.0196 -0.3168
 4402W        W23936   7.823   6.243   4.278 -0.0148  0.4977 -0.0295
 4403W        W23937  16.278  10.295  13.353  0.4092  0.0818 -0.1519
 4404W        W23938   1.432  10.178  10.714 -0.1057 -0.1041 -0.0002
 4405W        W23939  16.413  11.737  13.750 -0.2549 -0.3743 -0.2487
 4406W        W23940  19.364   6.805   0.640 -0.1473  0.0948  0.0123
 4407W        W23941  16.297  14.032   2.838  0.1084 -0.1007  0.0608
 4408W        W23942   0.472  18.825   3.414 -0.2867  0.0225  0.0231
 4409W        W23943   2.003   8.133   1.265  0.2351  0.1807 -0.0067
 4410W        W23944  15.066  17.336   9.751 -0.1246  0.0601 -0.0406
 4411W        W23945  13.806   8.960   1.453 -0.0442 -0.0228  0.0928
 4412W        W23946  16.412   0.689  12.881  0.1933  0.0340  0.1645
 4413W        W23947  10.181  12.540   2.968  0.1939  0.0219 -0.2441
 4414W        W23948   9.184   9.786  13.018  0.1257 -0.0464  0.0342
 4415W        W23949   9.187  10.877   2.532 -0.0308 -0.2080 -0.0431
 4416W        W23950  17.768   9.887  12.197  0.2426 -0.1026 -0.2173
 4417W        W23951  10.597  15.625   3.743  0.0148 -0.1033  0.0868
 4418W        W23952   0.793  16.318   2.102  0.4578  0.2049 -0.1291
 4419W        W23953   4.732   0.177   2.200  0.2577 -0.0287 -0.0994
 4420W        W23954   8.210  18.337   3.999 -0.1931 -0.3890 -0.0128
 4421W        W23955   7.348   6.581   3.132 -0.3196 -0.2014  0.3984
 4422W        W23956  10.884  17.422  10.000 -0.1491  0.2440 -0.1432
 4423W        W23957   7.000   2.718   1.026  0.1700 -0.0887 -0.2288
 4424W        W23958   9.271  16.661  11.277 -0.3489  0.1469  0.0421
 4425W        W23959  10.276   6.449  10.723 -0.0985 -0.0816  0.2481
 4426W        W23960  16.846   9.087   0.216 -0.0932  0.0933 -0.0859
 4427W        W23961  16.312   0.794   2.681  0.1944 -0.0323  0.1211
 4428W        W23962  15.516  12.780   2.456 -0.3423 -0.0334  0.3045
 4429W        W23963   1.409   6.494  12.601  0.0289  0.0353  0.1568
 4430W        W23964  12.542   8.089   2.433  0.0398  0.0826 -0.0708
 4431W        W23965  10.244   4.288   3.236 -0.3208 -0.0569  0.2699
 4432W        W23966  16.225   4.766   0.567 -0.0803 -0.1809  0.2981
 4433W        W23967  14.986   9.180   0.622 -0.1117 -0.0532  0.1750
 4434W        W23968  11.376  16.055  12.699 -0.0287  0.2571 -0.1620
 4435W        W23969  18.506   2.448  14.274  0.2061  0.0410  0.0612
 4436W        W23970   4.649   4.922  11.972 -0.0439  0.0902  0.2845
 4437W        W23971  18.751  11.715  10.918  0.0253  0.0191  0.1727
 4438W        W23972   4.445  17.589  12.468  0.3362 -0.1764  0.1744
 4439W        W23973   7.909  17.643  12.823 -0.3219  0.0136 -0.2289
 4440W        W23974  14.548  17.366   1.510  0.0803  0.0390 -0.1381
 4441W        W23975  17.948  13.946   2.431  0.2669 -0.1713 -0.1412
 4442W        W23976   5.576  12.596  10.059 -0.2229  0.1440  0.0746
 4443W        W23977  18.422   8.483   3.934  0.2064 -0.0265 -0.1091
 4444W        W23978  13.505   1.686   3.042  0.2009 -0.1819 -0.2090
 4445W        W23979   8.100   2.974   3.535 -0.2265  0.2590 -0.0216
 4446W        W23980  13.810  13.263   1.808  0.0356  0.0112  0.0548
 4447W        W23981  14.996  12.264  14.092  0.0162  0.1062 -0.0820
 4448W        W23982   9.807  15.694  12.512  0.0367 -0.0501 -0.2744
 4449W        W23983   7.298   4.404   3.792  0.0892 -0.0871  0.2032
 4450W        W23984  11.142   2.055  11.739 -0.1785  0.2188 -0.1784
 4451W        W23985   9.965   8.305   2.017 -0.3391 -0.2127  0.2110
 4452W        W23986  12.324   1.970  13.614  0.1345 -0.3027 -0.3521
 4453W        W23987   3.540  18.649  13.122 -0.0084 -0.2887 -0.1264
 4454W        W23988   4.553  15.583   1.183 -0.1975  0.0181 -0.2205
 4455W        W23989   7.175   1.212  11.771 -0.0321 -0.2605 -0.2352
 4456W        W23990  17.205  14.178  14.033 -0.0300 -0.2046 -0.1824
 4457W        W23991   1.376  14.295  10.593 -0.1391  0.0279  0.2395
 4458W        W23992   0.743  18.433  13.367  0.3494  0.2077 -0.1098
 4459W        W23993   9.251   5.178   3.581  0.1039 -0.1695 -0.0640
 4460W        W23994  16.480  17.403   1.590  0.1243  0.0761  0.1137
 4461W        W23995   5.890   9.753  10.468  0.0027  0.1191 -0.0087
 4462W        W23996  14.807  16.911   4.001  0.1206 -0.0618  0.0105
 4463W        W23997  15.466  13.707   2.389  0.2046 -0.2634  0.1021
 4464W        W23998  17.347   4.484  11.200 -0.0464 -0.0308  0.2730
 4465W        W23999  10.965  10.972   1.708 -0.2641 -0.0624  0.0814
 4466W        W24000   8.805  11.495   2.514  0.0276  0.0278  0.4671
 4467W        W24001  15.283  14.204  12.053 -0.0499  0.2980  0.1188
 4468W        W24002  18.846  15.929   2.670 -0.0163  0.0898 -0.1354
 4469W        W24003  18.020   9.083   3.188  0.1912  0.2473 -0.0588
 4470W        W24004  12.859   8.777  13.188 -0.3787 -0.3846 -0.2183
 4471W        W24005  14.907   9.216   1.754  0.0652 -0.0819  0.0130
 4472W        W24006   1.983   2.312  13.249 -0.1106 -0.0927 -0.0209
 4473W        W24007  17.855   3.268  13.221  0.3274  0.0137  0.0101
 4474W        W24008  16.657   9.477   2.594 -0.1996 -0.2824 -0.0938
 4475W        W24009  19.162   9.632  12.590 -0.3251 -0.3150 -0.0655
 4476W        W24010  13.705   7.756  14.037 -0.0368  0.2425  0.1704
 4477W        W24011   4.091   6.048   3.859  0.2329 -0.0703 -0.2213
 4478W        W24012  16.149   8.647  11.142  0.0434  0.0293 -0.1410
 4479W        W24013  13.173   9.070  10.380  0.3227 -0.1280  0.0970
 4480W        W24014  12.654   9.282  11.368  0.1018 -0.1070 -0.1018
 4481W        W24015  14.965  11.565   3.086 -0.0504  0.1580  0.3760
 4482W        W24016   4.755   7.319  11.170  0.0034  0.0429 -0.0737
 4483W        W24017  10.956   7.336   2.278 -0.1689 -0.0291  0.0438
 4484W        W24018  19.282  16.908  10.168  0.0736 -0.0250  0.1523
 4485W        W24019   6.244  15.947  12.940  0.1754 -0.2270 -0.0934
 4486W        W24020   3.660  16.434   3.735  0.2709  0.1196  0.0830
 4487W        W24021  14.855  18.522  14.158  0.0494  0.3076 -0.0363
 4488W        W24022   8.233  13.533   0.946 -0.0965 -0.0254 -0.0054
 4489W        W24023   4.102   2.601  13.477  0.1598  0.0364  0.2631
 4490W        W24024  16.573   2.289  14.089 -0.2412  0.3246 -0.5206
 4491W        W24025   5.678  10.001   2.984  0.0431  0.0525  0.3677
 4492W        W24026   2.110  13.747   1.130  0.3296  0.0987 -0.1138
 4493W        W24027   1.886  11.495   0.999  0.5543  0.0915 -0.4545
 4494W        W24028   9.906  12.296  12.868  0.2042 -0.0883  0.2597
 4495W        W24029   4.095   4.628   0.384  0.2696 -0.2550  0.1727
 4496W        W24030   4.597   6.680  13.687 -0.0708 -0.1357  0.2053
 4497W        W24031   7.774  10.804   4.349 -0.1558  0.2941  0.2085
 4498W        W24032  10.634  15.540  12.899  0.2390  0.0821  0.0939
 4499W        W24033   7.929   9.101   1.651  0.3038  0.2496  0.1029
 4500W        W24034   5.315  14.885  11.903  0.2494  0.0137 -0.1740
 4501W        W24035   4.223  14.201   2.318 -0.2171  0.1409 -0.0944
 4502W        W24036  12.154  19.288   1.873  0.0582 -0.1799  0.1689
 4503W        W24037  16.423   0.274   2.682 -0.0064 -0.1085 -0.1840
 4504W        W24038   1.279  13.679   0.985  0.1112 -0.2719  0.0081
 4505W        W24039   7.704  17.664   2.427 -0.4590  0.0893  0.0813
 4506W        W24040  15.715  17.187  10.361 -0.1261  0.0032 -0.4026
 4507W        W24041   9.843   6.076  10.868  0.1345  0.3115  0.0092
 4508W        W24042   0.572  15.782   2.811 -0.1454 -0.1910  0.3103
 4509W        W24043   2.150   0.759   4.252 -0.0816 -0.0872 -0.1235
 4510W        W24044   7.014   1.215  13.130 -0.0642  0.4408 -0.2463
 4511W        W24045   9.912   9.409   1.727 -0.2357 -0.2465 -0.3411
 4512W        W24046   2.566  17.794   4.008  0.0046 -0.1355  0.1160
 4513W        W24047  13.925   5.024   3.051 -0.0696  0.0560  0.0398
 4514W        W24048  15.874   0.025  13.643  0.0676 -0.0610  0.1786
 4515W        W24049   5.204   8.266  11.978  0.2449 -0.1232  0.0323
 4516W        W24050   0.982  13.267   1.010 -0.3810  0.0642  0.0930
 4517W        W24051   3.153  13.714  12.721  0.0299  0.0110 -0.1459
 4518W        W24052   4.103  12.747   3.461  0.1848  0.4520 -0.1498
 4519W        W24053  14.809   2.909   3.189  0.0002 -0.1343 -0.0515
 4520W        W24054   3.626  14.184  11.274  0.1141 -0.4044  0.0069
 4521W        W24055   6.036  11.376   0.495  0.1593 -0.0428  0.2036
 4522W        W24056  12.913  17.430   0.766  0.1178 -0.1536  0.0764
 4523W        W24057   5.931  15.268   2.673  0.1217 -0.3293  0.1046
 4524W        W24058   5.407  10.744  14.010 -0.1227  0.0933  0.0048
 4525W        W24059   0.542  11.434   2.472 -0.0873  0.0456  0.0074
 4526W        W24060  16.566   3.498  13.424  0.0979  0.3471  0.3951
 4527W        W24061  14.777   8.849   0.327 -0.0248  0.0216 -0.0351
 4528W        W24062  17.293  11.010   1.891 -0.0195 -0.2006  0.0330
 4529W        W24063   2.346   0.200   3.525  0.0469 -0.2424  0.0213
 4530W        W24064   3.866  14.696  14.022  0.0129 -0.0380  0.2222
 4531W        W24065  15.061  12.141  12.841 -0.2903  0.2371 -0.1670
 4532W        W24066  13.416   6.042   3.009 -0.0412 -0.0397  0.3420
 4533W        W24067  10.515  11.722  14.187 -0.1555  0.1250  0.0183
 4534W        W24068   8.047   8.874   0.318 -0.3163  0.1189  0.1384
 4535W        W24069   4.507  15.526   0.623  0.4365 -0.0876 -0.3739
 4536W        W24070   9.118  18.235   0.644  0.2778  0.0181 -0.0709
 4537W        W24071   4.198  11.137   0.939 -0.1871  0.1153 -0.3169
 4538W        W24072  17.185   3.369  10.819  0.1191 -0.1363  0.2546
 4539W        W24073   6.803   8.839  10.582  0.2017  0.1640  0.1598
 4540W        W24074  16.938   1.483   2.411  0.0576  0.1239  0.1138
 4541W        W24075  13.222  14.695  14.264  0.1163 -0.0351 -0.2004
 4542W        W24076   4.725  13.842  12.802  0.0265  0.0437  0.0457
 4543W        W24077   7.828  10.297   3.562  0.2793  0.1500 -0.0626
 4544W        W24078   3.380   8.546  13.928  0.0439 -0.0567  0.1729
 4545W        W24079  19.394  11.004   2.823 -0.0106 -0.0799  0.0091
 4546W        W24080   6.877  17.894  14.290  0.1335 -0.0414 -0.5689
 4547W        W24081   9.886   5.172   2.689 -0.2931  0.1798 -0.0452
 4548W        W24082   5.187  10.533  11.565 -0.0613 -0.0430  0.0028
 4549W        W24083  16.654  15.483  10.508  0.0735 -0.1234 -0.1690
 4550W        W24084  13.893   0.270  11.978  0.0723 -0.2548  0.0717
 4551W        W24085  18.629  14.147  13.508 -0.3264  0.1747  0.1148
 4552W        W24086   6.558  13.404   3.494  0.0807  0.1036 -0.0132
 4553W        W24087   8.812   1.899  11.789 -0.0045 -0.0508 -0.0655
 4554W        W24088   7.411   8.573   3.034  0.2864 -0.1353 -0.1112
 4555W        W24089  19.007  11.264  13.507  0.0194 -0.2075  0.0474
 4556W        W24090  12.372  18.283   0.241 -0.4747 -0.0570  0.1078
 4557W        W24091  18.588  17.669   0.559 -0.4152  0.0370  0.0566
 4558W        W24092   6.648  16.063  13.219 -0.2986 -0.0460  0.1985
 4559W        W24093   8.393  11.946  12.869 -0.2967 -0.3096  0.0986
 4560W        W24094  14.918  15.675  10.601  0.0811  0.0950 -0.1391
 4561W        W24095   4.652   2.847   1.943 -0.1006 -0.0688 -0.1762
 4562W        W24096   7.857  18.020   1.225  0.0317 -0.1652  0.0358
 4563W        W24097   1.457  19.536   3.398 -0.3784 -0.0026  0.1507
 4564W        W24098  15.406   1.392  10.825 -0.2590 -0.0778 -0.2264
 4565W        W24099   9.327  17.256   1.846 -0.3862 -0.0812 -0.0354
 4566W        W24100  12.590   6.364   2.667 -0.0201 -0.0629  0.4512
 4567W        W24101   4.213  10.002  13.119 -0.0370 -0.0843  0.1059
 4568W        W24102  17.673   5.803   2.114 -0.0545 -0.2235  0.0965
 4569W        W24103  16.858  11.571   3.458  0.1809  0.3547 -0.0448
 4570W        W24104  13.267   2.256  10.983 -0.0669  0.3895  0.0717
 4571W        W24105   9.816  12.626   4.255  0.1826 -0.0180  0.1761
 4572W        W24106   4.374  19.096   3.207 -0.0154 -0.2359 -0.3653
 4573W        W24107   0.440  10.705   0.486 -0.0463  0.0229 -0.3634
 4574W        W24108   8.712  10.124   1.564  0.3216  0.0529 -0.0384
 4575W        W24109   1.566  17.531   4.861  0.1245 -0.2265 -0.0245
 4576W        W24110  12.923   9.640  11.113  0.2774 -0.0552 -0.0971
 4577W        W24111   5.271   6.752  12.861 -0.2127 -0.0097 -0.2737
 4578W        W24112  19.070  10.133  10.502  0.0427 -0.1062  0.0136
 4579W        W24113  10.023   2.132  13.474 -0.0983 -0.3151 -0.0112
 4580W        W24114  13.391   5.168   3.122  0.0317 -0.1482  0.0454
 4581W        W24115  16.314   8.021  12.432 -0.0282 -0.2212 -0.0457
 4582W        W24116   9.687  18.091  13.369  0.5414 -0.0496 -0.3894
 4583W        W24117  19.025  15.901  11.146 -0.2121  0.0633 -0.1186
 4584W        W24118  12.985   9.375  12.495 -0.1995  0.0639  0.0491
 4585W        W24119  16.717  18.391  12.700  0.0199  0.3322  0.1131
 4586W        W24120   3.257   0.341   0.426 -0.0508 -0.1389 -0.4396
 4587W        W24121   8.951  19.492   3.520  0.2249  0.0973  0.0960
 4588W        W24122  19.363   5.402  10.214 -0.3224  0.0683 -0.0926
 4589W        W24123   5.523   0.917   2.196 -0.0731  0.2810  0.1108
 4590W        W24124   2.460   5.361  10.382  0.1587 -0.0511 -0.2459
 4591W        W24125   9.281   1.147   2.986  0.0930  0.3396  0.1440
 4592W        W24126   8.136  13.882   4.832 -0.0262 -0.0102  0.2346
 4593W        W24127   3.275  13.647   0.114  0.1779  0.1708  0.0429
 4594W        W24128  15.768  19.002  14.335 -0.1131  0.1059 -0.0857
 4595W        W24129  10.544   8.390  13.680 -0.4358  0.3508  0.0462
 4596W        W24130  18.228   7.066  10.133  0.1385  0.4212 -0.0873
 4597W        W24131  15.117   5.490   4.083  0.1345 -0.1638 -0.2220
 4598W        W24132   7.818   2.688  10.674 -0.0715 -0.0668 -0.1458
 4599W        W24133   0.848   3.211  10.808 -0.0982  0.1353 -0.0416
 4600W        W24134   0.322   5.992   1.878  0.0962 -0.0557  0.0778
 4601W        W24135   6.754   7.922  11.516 -0.0122 -0.0405  0.2326
 4602W        W24136  19.170   8.348  11.133 -0.0720  0.1805 -0.2139
 4603W        W24137   4.350   5.122  13.405 -0.1006  0.1845  0.0710
 4604W        W24138  16.866  12.598   1.603  0.1617 -0.1315  0.2270
 4605W        W24139  11.078   3.374   3.813 -0.0270  0.3483  0.0713
 4606W        W24140  15.675   5.049   2.743  0.1725 -0.0019 -0.0679
 4607W        W24141  15.229  15.193   0.263  0.2191  0.1080 -0.4862
 4608W        W24142  12.447  14.362  10.440 -0.0889 -0.1089 -0.0296
 4609W        W24143   3.031   7.090   0.518 -0.0697  0.3669  0.1537
 4610W        W24144   5.517  15.893   2.501 -0.0977  0.2041 -0.2060
 4611W        W24145  14.877   1.063   1.799 -0.0966  0.4044 -0.2165
 4612W        W24146   1.096  11.801  13.397 -0.1520 -0.2127  0.1970
 4613W        W24147  12.373  13.658  10.148 -0.1886  0.0562 -0.1637
 4614W        W24148   6.023  17.019   1.260  0.2793 -0.3476  0.0468
 4615W        W24149  14.788   8.842  13.070  0.0918 -0.2479 -0.1409
 4616W        W24150  14.172   9.906  13.979 -0.1786  0.1384 -0.0074
 4617W        W24151  14.035  16.449  11.365 -0.1193 -0.0712  0.2175
 4618W        W24152  14.723  14.055  11.236 -0.4472 -0.1320  0.1476
 4619W        W24153  18.258  15.173   1.771 -0.2523 -0.1031 -0.3285
 4620W        W24154  13.998  16.446   2.422  0.4474  0.0200  0.2877
 4621W        W24155   0.878  12.842   1.287  0.2848  0.1319 -0.2045
 4622W        W24156  14.437   4.938   0.040 -0.0762 -0.3480  0.1059
 4623W        W24157  12.783   3.243   1.381 -0.1269 -0.3786  0.1646
 4624W        W24158  15.453   7.426  12.279  0.2136  0.1346 -0.0149
 4625W        W24159  17.640   3.845  13.821 -0.0883  0.5820  0.0112
 4626W        W24160  15.515   1.765   1.941 -0.1211 -0.0256 -0.0228
 4627W        W24161   1.779   4.330  10.882 -0.4198 -0.1353  0.1984
 4628W        W24162  16.026  11.099   8.832 -0.1262  0.3072 -0.0929
 4629W        W24163  10.018   8.712  10.403  0.1863  0.0603 -0.1286
 4630W        W24164  12.210  17.459   2.148 -0.2414 -0.1419  0.0973
 4631W        W24165   0.978  11.902  10.673  0.0621 -0.5183 -0.2418
 4632W        W24166  15.592  17.652  11.627  0.0877  0.2335 -0.0288
 4633W        W24167   0.783  10.603   1.340  0.4042 -0.0805  0.0557
 4634W        W24168  13.867   2.363  14.136  0.0844  0.2796 -0.0908
 4635W        W24169   2.853   7.123   3.821  0.0205  0.0189 -0.0974
 4636W        W24170  14.505   6.574   1.719 -0.2768  0.0061 -0.3430
 4637W        W24171   7.980   8.281   4.301 -0.0452  0.0156  0.0630
 4638W        W24172  10.585   0.029  10.797 -0.2932  0.0880  0.1831
 4639W        W24173   3.378   2.351  11.424 -0.0074  0.2589  0.2245
 4640W        W24174   6.999  13.621   1.633 -0.1201  0.0617 -0.0878
 4641W        W24175  17.211   3.958   1.727 -0.0048  0.3666  0.0510
 4642W        W24176   0.782   0.498   2.859  0.2040 -0.1595  0.2202
 4643W        W24177   4.313   0.997   3.604  0.3064 -0.3113  0.0052
 4644W        W24178   4.699  11.489   2.062 -0.0570 -0.2929  0.1365
 4645W        W24179   0.165   2.603   3.705  0.1355 -0.1248 -0.0772
 4646W        W24180  14.004   5.314   3.428 -0.1735 -0.3123 -0.0749
 4647W        W24181   4.237   4.531  10.743 -0.4909  0.3180  0.0151
 4648W        W24182   9.740  16.261   0.510  0.2003 -0.2394  0.0152
 4649W        W24183  17.319  15.611   9.806 -0.0473  0.3370  0.1397
 4650W        W24184   8.170  19.479   2.227 -0.0251  0.1278  0.2671
 4651W        W24185  15.578   6.446  10.470 -0.5125 -0.0159 -0.3716
 4652W        W24186  13.287  19.006   0.807 -0.2848  0.0202  0.2747
 4653W        W24187  19.105   0.128   0.328  0.1797 -0.0995  0.0425
 4654W        W24188   1.541   8.673  13.761 -0.0783 -0.0720 -0.1333
 4655W        W24189   3.605   5.785   4.538 -0.1291 -0.0374 -0.0246
 4656W        W24190  11.095   3.815   2.945  0.0872 -0.3223  0.1967
 4657W        W24191  18.105   4.289  12.462 -0.1133  0.2181 -0.2987
 4658W        W24192  14.136   8.968   2.036  0.0069 -0.4685  0.1137
 4659W        W24193  11.405   5.407  12.459  0.0361  0.0240 -0.2849
 4660W        W24194   5.319  11.946   1.107 -0.3197  0.1254  0.3390
 4661W        W24195  16.207   7.888   4.314  0.1310  0.2233  0.0475
 4662W        W24196  18.675   5.335   1.264 -0.3273 -0.1639  0.1147
 4663W        W24197  11.313   8.728   3.882  0.0341  0.0334 -0.0838
 4664W        W24198  13.112   8.453  12.036 -0.1245  0.2371  0.0964
 4665W        W24199   0.424  11.830  10.288  0.0283 -0.3417 -0.2780
 4666W        W24200  16.975  10.549  10.788  0.2153 -0.0352  0.3292
 4667W        W24201   5.546  18.402  12.290 -0.0286 -0.2771  0.1118
 4668W        W24202  18.530   4.297  13.389  0.4664  0.0341  0.3990
 4669W        W24203  13.057  15.452   1.345 -0.0522  0.0147 -0.0343
 4670W        W24204  16.634   7.689  12.666  0.0551 -0.0814  0.0698
 4671W        W24205  11.403  13.574   2.146  0.4215  0.0124 -0.1240
 4672W        W24206   8.780   5.882  13.431  0.1036  0.8121 -0.1175
 4673W        W24207  12.402   6.419   2.226  0.0274  0.3428 -0.0704
 4674W        W24208  13.774   0.154   1.186 -0.1024  0.2332 -0.2071
 4675W        W24209  16.426  12.892   1.299  0.1202 -0.2583  0.1122
 4676W        W24210  18.112   3.670  13.055  0.1468 -0.1466 -0.2467
 4677W        W24211   8.483  10.199  10.610 -0.1266  0.1214 -0.0714
 4678W        W24212  14.269   6.976  10.973 -0.2511 -0.1405 -0.1284
 4679W        W24213   8.741  10.203  13.484  0.0491 -0.1447  0.3254
 4680W        W24214  15.708  17.066   9.890 -0.0677 -0.0097 -0.3530
 4681W        W24215   8.234  12.666   3.110 -0.0488  0.2897 -0.0407
 4682W        W24216  16.916  16.315   3.851  0.0147  0.0873  0.3513
 4683W        W24217   7.263  10.347   2.427 -0.0041 -0.3887  0.1954
 4684W        W24218   0.648   7.803   0.066 -0.0463  0.5349  0.2243
 4685W        W24219   4.711   2.796   2.493  0.0243  0.0225  0.1114
 4686W        W24220   1.815   0.756   0.005 -0.3109 -0.0902  0.3388
 4687W        W24221  13.292  12.130  12.462 -0.2256 -0.1411  0.6181
 4688W        W24222   2.762   2.036  12.355 -0.4129 -0.0463  0.1604
 4689W        W24223  14.420   0.232   2.156 -0.3676  0.0190 -0.0811
 4690W        W24224   7.763  12.310   1.077  0.2689 -0.3004 -0.0744
 4691W        W24225  14.573   2.691   3.558  0.0133  0.0462 -0.0391
 4692W        W24226   6.928   5.674   1.605 -0.0840 -0.2197 -0.0536
 4693W        W24227  12.242   6.791   2.756  0.2361 -0.0523  0.1478
 4694W        W24228  18.244  12.771  13.173  0.2675 -0.2696  0.0129
 4695W        W24229  15.614   0.311   3.307 -0.0241 -0.1007  0.1953
 4696W        W24230  16.430   1.784  12.140 -0.1858 -0.0358  0.0373
 4697W        W24231  11.156  17.290   2.189 -0.0391 -0.0332  0.2256
 4698W        W24232   7.203  12.741  13.684 -0.0249  0.1565  0.0439
 4699W        W24233   8.408  10.282   3.877 -0.0012  0.2192  0.3266
 4700W        W24234  11.315   0.577   1.981 -0.2119 -0.1811 -0.0661
 4701W        W24235  17.123   1.247  11.480  0.0147 -0.5005  0.1326
 4702W        W24236   2.373   1.388   3.414  0.2382  0.0996 -0.2811
 4703W        W24237   0.972  13.586   3.409 -0.0513  0.2936  0.0708
 4704W        W24238  12.350   2.485  14.246  0.2227 -0.3025 -0.1362
 4705W        W24239  14.403  13.902  10.688  0.3115  0.1766 -0.0212
 4706W        W24240  17.213   0.294   3.469 -0.2364 -0.0543  0.1298
 4707W        W24241   7.650   5.128   3.423  0.1963 -0.1164 -0.0339
 4708W        W24242  15.435   5.443  12.414  0.0674 -0.0632 -0.0871
 4709W        W24243   0.008   8.728   3.093 -0.1165 -0.1766 -0.0763
 4710W        W24244   9.684  14.733   4.944 -0.1395 -0.1284  0.0691
 4711W        W24245   0.251   4.118   3.304 -0.2838 -0.1575 -0.0543
 4712W        W24246   3.458  15.324   3.012  0.1520 -0.0106 -0.0811
 4713W        W24247  10.253  19.299   2.434 -0.1158 -0.0803  0.1471
 4714W        W24248  10.068   7.188   1.089 -0.1913 -0.1218  0.1075
 4715W        W24249   1.983   0.061   2.644 -0.0225  0.0350 -0.0500
 4716W        W24250  17.061  13.811  11.682 -0.1210  0.1104 -0.2839
 4717W        W24251  11.724   2.039  13.587  0.2806 -0.1219 -0.0127
 4718W        W24252  18.482  17.199  13.435 -0.0511 -0.1211  0.5612
 4719W        W24253  17.543  12.904  11.883 -0.0149  0.1793 -0.0263
 4720W        W24254   1.518   6.338  11.449 -0.2929  0.2947 -0.1065
 4721W        W24255  19.143   6.280  13.648 -0.1141 -0.0988 -0.1291
 4722W        W24256   5.088   9.912   1.302 -0.3026 -0.1462 -0.1829
 4723W        W24257   8.666  11.987  13.538  0.1219  0.0668 -0.3523
 4724W        W24258   5.228   3.065  10.613 -0.0701  0.3084  0.1325
 4725W        W24259  12.849  13.537   2.274  0.0141  0.0820  0.1854
 4726W        W24260   7.222   7.422   3.408  0.0857 -0.2019 -0.0908
 4727W        W24261   8.329   2.374  10.644  0.1656  0.3063 -0.0709
 4728W        W24262  18.728  18.756  13.325 -0.0065  0.0587  0.4826
 4729W        W24263  18.958  19.140   0.947  0.0027 -0.0615  0.1127
 4730W        W24264  12.218  11.023   5.012 -0.1502 -0.0673  0.0861
 4731W        W24265   0.331  15.895  13.146 -0.1080  0.2462  0.3644
 4732W        W24266   6.315   9.021  10.480 -0.3928 -0.0102  0.1570
 4733W        W24267  13.709  17.688   1.180 -0.2515 -0.1976 -0.2947
 4734W        W24268  17.153   7.782  11.092  0.0037  0.1037  0.1139
 4735W        W24269   8.503  16.031   2.923 -0.1860 -0.1862 -0.5683
 4736W        W24270   5.131  16.956   1.633 -0.1246 -0.4002  0.5143
 4737W        W24271   4.820   0.853  11.326  0.2744  0.1962  0.1507
 4738W        W24272   6.959   2.953  12.379 -0.0962 -0.3984 -0.2547
 4739W        W24273  16.703  13.698  11.323  0.1073 -0.1724  0.0147
 4740W        W24274  17.823  15.595  10.492  0.1273  0.0492  0.3331
 4741W        W24275  15.565  17.934   9.454 -0.1588 -0.0241 -0.0632
 4742W        W24276   5.027  16.510  14.001 -0.1018 -0.2283  0.0433
 4743W        W24277  15.292  18.781  14.159 -0.0589  0.0924 -0.0474
 4744W        W24278  10.905  15.270   4.885 -0.2373 -0.3115 -0.2694
 4745W        W24279   6.059   6.593  10.505 -0.0137 -0.1632 -0.0483
 4746W        W24280  12.614  13.790  12.232 -0.1696  0.0451  0.1044
 4747W        W24281  10.370   9.177   0.006 -0.1037 -0.0093  0.2777
 4748W        W24282  17.200  15.063   9.704  0.0318 -0.0128  0.0654
 4749W        W24283   5.964  19.124   2.424 -0.1458 -0.3614  0.1149
 4750W        W24284   4.979   0.732   3.562  0.1348 -0.1766 -0.5185
 4751W        W24285   2.495   7.458   1.824  0.0102  0.1470 -0.0276
 4752W        W24286   0.133   4.247   1.332 -0.3051 -0.1558 -0.2953
 4753W        W24287  12.202   5.904  12.700 -0.0725  0.1060  0.1963
 4754W        W24288   9.445   1.978   1.181 -0.0368  0.2653 -0.0017
 4755W        W24289  10.877   3.934  12.516 -0.1023  0.0089 -0.1362
 4756W        W24290   8.245  11.944  12.319  0.0817 -0.0504 -0.0605
 4757W        W24291   0.233  18.707  14.210  0.2123 -0.0867  0.0610
 4758W        W24292   2.187  17.149  10.552  0.2278  0.0827 -0.2709
 4759W        W24293   0.704   1.736  12.818  0.2080  0.1497  0.0543
 4760W        W24294  16.334   3.403   3.155  0.1354  0.0027  0.1086
 4761W        W24295  18.423  13.975  12.587  0.0009  0.0656  0.0931
 4762W        W24296  14.287   4.876  13.903 -0.1488  0.2286  0.1610
 4763W        W24297   8.890   0.922   2.789 -0.1699 -0.3661  0.3396
 4764W        W24298  14.459   0.438   5.215  0.0410  0.1241 -0.0824
 4765W        W24299  13.446  14.023  11.132  0.0031  0.5215 -0.0253
 4766W        W24300   8.424   9.602   3.356  0.1551  0.0679  0.1250
 4767W        W24301  13.532   1.669  13.594 -0.1081 -0.0206  0.2110
 4768W        W24302   5.431   1.047   3.543 -0.0295 -0.1970  0.2437
 4769W        W24303   8.105   5.324   3.454 -0.0952 -0.0495 -0.1852
 4770W        W24304  10.156   4.963  14.299  0.0875  0.2074  0.0454
 4771W        W24305  14.651   7.337   0.688 -0.0362 -0.3148 -0.2022
 4772W        W24306   3.443  13.669   2.553  0.0891  0.0394 -0.3098
 4773W        W24307  18.347   3.263  13.225 -0.0507  0.3344 -0.2666
 4774W        W24308  18.162  12.462   3.365 -0.1959  0.0386 -0.1984
 4775W        W24309  16.649   8.345  10.261  0.0768  0.1828 -0.0139
 4776W        W24310   8.040   6.572  11.850  0.0198  0.0047  0.1092
 4777W        W24311   7.237  15.722  12.984 -0.3248  0.0421  0.2613
 4778W        W24312  16.695   6.900   3.440  0.1300 -0.0465 -0.0424
 4779W        W24313  11.975   3.654  12.763 -0.3089  0.1320  0.1137
 4780W        W24314   8.100   6.929  13.032 -0.2213 -0.2529  0.0058
 4781W        W24315  13.540  12.810   1.756 -0.1151  0.1189  0.5203
 4782W        W24316   8.946   3.603  10.155 -0.0208 -0.0392 -0.0090
 4783W        W24317  12.413  10.770   4.092  0.0323 -0.3347  0.0126
 4784W        W24318   0.870   7.097   3.665 -0.0177  0.0799 -0.3408
 4785W        W24319   1.642   4.901   4.124  0.1140  0.1289  0.0460
 4786W        W24320   3.240   8.554  10.678  0.1476  0.0761 -0.1401
 4787W        W24321  10.840  11.376  12.948  0.2230 -0.3043 -0.0424
 4788W        W24322  17.860  11.111   1.807 -0.3597  0.4689  0.1591
 4789W        W24323   5.759   3.156  11.985 -0.2546  0.1261  0.0213
 4790W        W24324   7.251  10.222  13.309 -0.0279 -0.0554  0.1723
 4791W        W24325   1.571  14.149   2.580  0.2787  0.2763  0.1306
 4792W        W24326   6.527  19.519   1.802 -0.1875  0.0019  0.5057
 4793W        W24327   7.259   4.615  11.128  0.1872  0.0452  0.0306
 4794W        W24328  15.582  15.643  13.774  0.2223 -0.0371  0.0032
 4795W        W24329  15.133  11.246  13.734  0.0960 -0.1183 -0.0850
 4796W        W24330   6.823  11.638   5.442  0.1065  0.1308  0.0693
 4797W        W24331  14.043  12.773  10.438  0.2781 -0.0255  0.1125
 4798W        W24332   9.193   0.383  12.605  0.1212  0.0457 -0.3181
 4799W        W24333   0.798   5.812   1.928  0.0779 -0.0508 -0.5241
 4800W        W24334  18.181   3.708  13.989 -0.0698  0.2379 -0.2604
 4801W        W24335   2.366   7.482   0.281 -0.2432  0.1403  0.2327
 4802W        W24336   3.626  13.725  12.108 -0.1148 -0.1909  0.2184
 4803W        W24337  15.528   7.365   0.211  0.3993 -0.3481  0.1367
 4804W        W24338  15.967  16.339  12.679  0.3235 -0.0086  0.0294
 4805W        W24339  12.059   8.461  10.372  0.0424  0.1469  0.1577
 4806W        W24340   5.334  16.651   0.646 -0.1706 -0.0623  0.1901
 4807W        W24341   2.110  18.246  11.224 -0.0137  0.2045 -0.5108
 4808W        W24342   4.886  14.825   2.691  0.2739  0.1333 -0.0780
 4809W        W24343   6.581   8.019  13.068  0.0375 -0.1127 -0.2249
 4810W        W24344   0.037   8.621  14.118  0.0104  0.1339  0.0068
 4811W        W24345   4.446  10.906   0.425  0.0278 -0.2240 -0.0891
 4812W        W24346   6.154  11.107   2.395 -0.0474 -0.1749 -0.1400
 4813W        W24347  10.820   6.474  11.701  0.0158 -0.0716 -0.0443
 4814W        W24348  15.409   9.442   0.931 -0.1005 -0.1581 -0.0017
 4815W        W24349  17.366   7.353  11.322 -0.0122  0.2514 -0.1174
 4816W        W24350   8.474   3.219  10.985  0.1075 -0.4863 -0.3233
 4817W        W24351   4.863  10.398  10.721  0.1351 -0.1297  0.2506
 4818W        W24352   7.536   0.590  12.448  0.1102  0.0414 -0.0894
 4819W        W24353  19.445  14.232   2.677  0.0354  0.2035 -0.3151
 4820W        W24354   0.823  13.713   0.600  0.2121  0.0067  0.2594
 4821W        W24355   4.890   4.125  13.987 -0.0479  0.0083  0.1255
 4822W        W24356   6.012   6.834   0.642 -0.0122  0.2305 -0.0964
 4823W        W24357  14.280  11.203   0.804  0.0200 -0.2068  0.0586
 4824W        W24358   3.400   4.803  11.000 -0.2544  0.0975 -0.2110
 4825W        W24359   5.635   0.408   2.081 -0.0704 -0.2498  0.0719
 4826W        W24360   6.343  12.327   9.831  0.0423 -0.0269  0.1607
 4827W        W24361   0.676   6.865   0.109 -0.2073  0.1329 -0.3346
 4828W        W24362   3.960  12.344   3.114 -0.0708 -0.0265 -0.0834
 4829W        W24363   8.127  15.266  14.296 -0.0129 -0.0849  0.1897
 4830W        W24364   6.387   8.962  10.950  0.1261  0.2295 -0.1681
 4831W        W24365  15.317  17.442  12.573 -0.0648  0.0645 -0.3377
 4832W        W24366   8.128   5.621   2.169  0.0101  0.0782 -0.2473
 4833W        W24367  11.137  12.517   2.658  0.0268  0.1417 -0.1994
 4834W        W24368   9.230  17.775  11.355  0.2695 -0.2518  0.2269
 4835W        W24369   7.425   5.717  13.984  0.2294 -0.0177  0.0171
 4836W        W24370   0.931  17.876  13.350  0.0014 -0.0740  0.0459
 4837W        W24371   6.413  18.425   0.909 -0.0414 -0.0021  0.1508
 4838W        W24372   8.419   1.631  11.536 -0.1480  0.2477 -0.0262
 4839W        W24373   3.986   3.739   0.016 -0.1002  0.3351 -0.0535
 4840W        W24374  18.715  18.754  11.318  0.0991 -0.0444 -0.1104
 4841W        W24375  17.702  14.530  12.664 -0.0800 -0.0322 -0.4118
 4842W        W24376  15.802  14.543  10.640  0.0455  0.0179 -0.1912
 4843W        W24377  16.223  17.819  10.874  0.0961  0.0682  0.1128
 4844W        W24378  11.713  10.756   0.866 -0.0874 -0.1098 -0.0325
 4845W        W24379   9.112   5.352   2.302 -0.1445 -0.1709  0.1203
 4846W        W24380  15.086   3.718  10.999  0.3642  0.0467 -0.4859
 4847W        W24381   9.641   5.179   4.005 -0.2139  0.1069 -0.0564
 4848W        W24382  16.212  11.640   3.509  0.4216  0.0245 -0.0677
 4849W        W24383  10.764   8.941   3.203 -0.4493 -0.1896  0.3207
 4850W        W24384   0.915  16.692  13.858  0.0745 -0.1590 -0.0937
 4851W        W24385   2.460  13.634  10.443  0.0875 -0.1235 -0.3017
 4852W        W24386   1.896   1.168  10.993 -0.0862  0.0909  0.1997
 4853W        W24387   6.033   8.273  10.636  0.2127 -0.4340 -0.2096
 4854W        W24388  17.027   8.307  11.975 -0.2432 -0.2799 -0.3098
 4855W        W24389   8.831  16.686  13.880  0.1600  0.0993  0.1039
 4856W        W24390  12.910   8.289   3.396 -0.0435  0.0540 -0.0617
 4857W        W24391   2.603  16.741   3.112  0.3455 -0.0819  0.1244
 4858W        W24392  10.984   5.341  12.874 -0.0949  0.5086  0.1610
 4859W        W24393   0.691   4.231   1.239 -0.3298 -0.0104  0.0400
 4860W        W24394  18.327   3.834   2.734  0.0862 -0.1180 -0.0164
 4861W        W24395  17.951  15.924   3.126  0.0802  0.0253 -0.2098
 4862W        W24396   9.820  15.496   1.006  0.0818 -0.0339  0.0017
 4863W        W24397  18.152   8.482  10.483  0.2394  0.0718 -0.0795
 4864W        W24398   6.132   3.248   0.441 -0.0427  0.0133  0.0316
 4865W        W24399   0.105  12.423  10.734  0.0979 -0.0869 -0.1207
 4866W        W24400  12.919   6.099  11.646  0.0150 -0.2335 -0.0033
 4867W        W24401  16.857   9.727   0.338 -0.2850  0.1052 -0.3040
 4868W        W24402   3.414  17.670  11.979 -0.0589 -0.1071  0.2784
 4869W        W24403   6.675  14.149  13.452 -0.1421 -0.1605 -0.3820
 4870W        W24404  18.716  18.144   1.903  0.2477  0.1365 -0.1358
 4871W        W24405   2.159  10.202   3.165 -0.0515  0.0719 -0.1832
 4872W        W24406  18.515   1.097  13.264 -0.1848  0.0042 -0.2954
 4873W        W24407  11.963   4.180  13.593 -0.1029 -0.1447 -0.1303
 4874W        W24408  15.132  15.995   0.580 -0.0311 -0.3592  0.1012
 4875W        W24409   8.806   4.945   2.349 -0.4517  0.1212  0.0661
 4876W        W24410  16.546  14.904  12.661  0.1823 -0.0920 -0.1949
 4877W        W24411   6.771  14.036  11.487 -0.0251  0.2971  0.0005
 4878W        W24412   6.330   3.164   0.932 -0.0080  0.4616 -0.3761
 4879W        W24413  16.045  18.246   3.036 -0.1049  0.0267  0.1501
 4880W        W24414  10.536   7.782   2.602  0.1831  0.1080  0.1724
 4881W        W24415  17.023  15.720   2.215  0.1509 -0.1470 -0.0315
 4882W        W24416   9.574  12.597  11.382 -0.0492  0.0024  0.2044
 4883W        W24417   9.955  18.358   9.825  0.0991  0.1471 -0.2879
 4884W        W24418   1.568   9.023  11.766 -0.2179 -0.2409 -0.0387
 4885W        W24419  13.812   4.645  11.187  0.1721  0.1195 -0.2321
 4886W        W24420   3.501   0.033  14.120  0.0012  0.1909  0.1578
 4887W        W24421   8.047   1.044   1.193  0.1791  0.0721 -0.0638
 4888W        W24422  13.879  14.761  12.644  0.1443 -0.1675  0.0963
 4889W        W24423   8.560   5.360   0.083  0.3191  0.2304 -0.0122
 4890W        W24424   6.063  11.446  13.302 -0.0704 -0.1321 -0.0913
 4891W        W24425   0.626  10.566  11.241 -0.2411 -0.0121 -0.1630
 4892W        W24426   8.219  10.352   0.372  0.1716  0.2622 -0.1282
 4893W        W24427  16.159   4.761  10.359  0.1361  0.1081  0.0335
 4894W        W24428  15.591  18.917   1.508  0.2718  0.0092  0.0548
 4895W        W24429   5.724  14.704   0.523 -0.1297  0.0299 -0.2343
 4896W        W24430   9.847   9.763   3.772  0.0881 -0.3195  0.4836
 4897W        W24431   4.555   1.672   0.664 -0.0372  0.3200 -0.2853
 4898W        W24432   0.863   5.469   5.409  0.1474  0.0008  0.0344
 4899W        W24433  17.248   9.358   2.776  0.2062 -0.0313  0.2418
 4900W        W24434   5.474   6.928  11.367 -0.1944 -0.3040 -0.1984
 4901W        W24435  18.808   4.471  10.530 -0.0677 -0.3064 -0.1789
 4902W        W24436  10.137   2.863   2.645  0.0264  0.0164  0.0628
 4903W        W24437   8.726  12.873   3.068  0.1730  0.0252 -0.2136
 4904W        W24438   9.179   6.088  13.768  0.0188 -0.1331  0.1477
 4905W        W24439   9.171   0.401  11.637  0.2730  0.1990  0.0520
 4906W        W24440   7.373   6.931  14.106 -0.1759  0.1690  0.1146
 4907W        W24441   2.377   1.902   0.194 -0.0525 -0.1126 -0.0170
 4908W        W24442   3.507  13.043  12.611 -0.0745 -0.0505 -0.0850
 4909W        W24443   2.964  10.521   2.987  0.0589  0.0381  0.1575
 4910W        W24444   2.974   7.561  14.076 -0.0264 -0.0484  0.0906
 4911W        W24445  13.596   5.587  14.255 -0.2448 -0.0861  0.4281
 4912W        W24446   3.932   4.903  10.750 -0.1654  0.1164 -0.1260
 4913W        W24447   6.005   7.914   1.160  0.0606  0.0724 -0.0702
 4914W        W24448   1.430   3.164   0.650  0.3108 -0.3789 -0.1602
 4915W        W24449  17.142  17.788   3.272 -0.3383 -0.4401 -0.1251
 4916W        W24450  14.871   0.282  10.535  0.2095  0.0237  0.3073
 4917W        W24451   5.874  17.129   9.657 -0.2384 -0.2574 -0.1937
 4918W        W24452  16.286  12.444   9.160 -0.1986 -0.0023 -0.0281
 4919W        W24453   9.427   7.896   1.177 -0.3738 -0.0822 -0.0700
 4920W        W24454   4.559   4.524   4.111 -0.0218 -0.3029 -0.0997
 4921W        W24455  19.514  12.015  12.899 -0.4246 -0.1827  0.1668
 4922W        W24456   3.456   1.774   2.104  0.1346  0.0306 -0.0169
 4923W        W24457   3.514  16.183  11.730  0.2429 -0.1746  0.2614
 4924W        W24458  15.665   8.836  13.505 -0.1980  0.2561 -0.1237
 4925W        W24459  10.700  13.083  12.924  0.2675  0.2412 -0.0146
 4926W        W24460   6.210  16.880   0.439  0.1513 -0.1108 -0.0174
 4927W        W24461   1.858  10.018   1.989  0.1906 -0.0768 -0.0198
 4928W        W24462   1.228   1.880   1.950 -0.0451 -0.1380  0.4124
 4929W        W24463  15.727  15.610   0.475  0.1210 -0.1695 -0.0265
 4930W        W24464  15.861  15.969  14.015  0.1237 -0.2239 -0.1603
 4931W        W24465  13.816  13.191  10.490 -0.3611  0.0503  0.2627
 4932W        W24466   7.123   9.511  11.055 -0.0543 -0.0719 -0.1135
 4933W        W24467   4.055  18.866   4.662  0.0483 -0.0302  0.0397
 4934W        W24468   6.717   2.595  12.742 -0.0550  0.0202 -0.2382
 4935W        W24469   1.797   9.057  10.686  0.0218  0.0879 -0.0954
 4936W        W24470  13.932  10.299  12.593 -0.1829 -0.0197  0.1783
 4937W        W24471  14.552  13.209   8.867  0.0344  0.3295  0.0604
 4938W        W24472  13.285  19.399  13.161 -0.1066  0.6324  0.2752
 4939W        W24473  11.825   7.682  13.164 -0.2660  0.0253 -0.0278
 4940W        W24474   3.344  15.759  11.978 -0.2410 -0.1514  0.2640
 4941W        W24475  10.836   5.610   1.857  0.1542 -0.0096  0.2506
 4942W        W24476  13.591   5.527   4.330  0.0429  0.3521 -0.0767
 4943W        W24477  17.256  17.907  11.943  0.2870 -0.3421 -0.3621
 4944W        W24478   4.716  12.980  10.862  0.1024  0.2096  0.1604
 4945W        W24479   9.372  18.010   0.278 -0.3080  0.1485 -0.2005
 4946W        W24480  15.572   9.199  10.049  0.0199  0.2699 -0.3157
 4947W        W24481   7.387   5.522  12.361 -0.1513 -0.2062  0.0133
 4948W        W24482   1.527  13.736   1.437  0.3464 -0.0669  0.0663
 4949W        W24483   9.689   8.665   2.251  0.0600  0.2564 -0.1529
 4950W        W24484  12.070  13.605   3.429  0.0334 -0.2838  0.1292
 4951W        W24485  13.473   8.760  12.640 -0.0468  0.2983  0.2355
 4952W        W24486  13.410   7.951  10.762 -0.1139 -0.4786 -0.0260
 4953W        W24487  17.800  14.581   0.968 -0.2496  0.0174  0.1775
 4954W        W24488  16.971   7.878  11.739  0.0984  0.0792  0.0439
 4955W        W24489   4.360   4.610   3.613  0.1136  0.1079  0.0277
 4956W        W24490  15.852   4.286   3.686 -0.1233  0.0872  0.2758
 4957W        W24491  17.533  13.653   0.630 -0.1456 -0.0120  0.0948
 4958W        W24492  18.560   2.802   4.340  0.1804  0.1279  0.0008
 4959W        W24493   5.877  12.492  12.536 -0.4649 -0.2356 -0.1325
 4960W        W24494   1.598  17.248   1.924  0.1513  0.3174 -0.4505
 4961W        W24495   9.419   8.625  12.262 -0.3728 -0.2447 -0.2129
 4962W        W24496  14.365   2.808  12.795  0.0284 -0.0235  0.1407
 4963W        W24497   6.395  17.748  11.222 -0.0858  0.1089  0.0212
 4964W        W24498   3.751  10.006  12.037  0.2330  0.0456  0.0585
 4965W        W24499  11.342   7.041   2.416 -0.0822 -0.0559 -0.1398
 4966W        W24500   4.234  10.155   0.089 -0.1678 -0.1331 -0.1889
 4967W        W24501  13.774  12.965  10.948  0.4221 -0.0180 -0.0463
 4968W        W24502   3.193  12.621  10.964  0.0470  0.0428  0.0185
 4969W        W24503   5.299  18.717  12.774  0.0333 -0.4608  0.0738
 4970W        W24504   3.909   6.065   0.242  0.1898 -0.1695 -0.0911
 4971W        W24505   7.095   2.977  11.540 -0.0571 -0.0201  0.0741
 4972W        W24506   8.854   2.629  13.979 -0.0982 -0.2759  0.1950
 4973W        W24507   3.142   7.210  11.074 -0.1902  0.0059 -0.0358
 4974W        W24508  14.893  16.853  12.564  0.0663 -0.3077  0.0972
 4975W        W24509   6.384  14.241   3.452 -0.0676  0.2967  0.1697
 4976W        W24510  16.004   4.298  12.036 -0.2480  0.0624  0.0066
 4977W        W24511  15.192   6.768   3.369  0.0607 -0.0656 -0.0881
 4978W        W24512  10.613  14.213  11.491 -0.0222 -0.0040  0.0946
 4979W        W24513   0.774   3.426   0.080 -0.3217  0.2872 -0.0650
 4980W        W24514  14.012   5.611   0.269  0.0162  0.1731 -0.3570
 4981W        W24515   5.776  16.344   2.167 -0.4535  0.2125  0.3099
 4982W        W24516   2.168  13.437  10.160  0.0223  0.0665  0.1996
 4983W        W24517  10.304   5.997  10.954  0.0139 -0.0829  0.1794
 4984W        W24518   3.067  17.802   3.197  0.1891 -0.0742  0.2363
 4985W        W24519  13.433   4.038  12.189 -0.0983 -0.0406 -0.2067
 4986W        W24520  14.049  12.338   4.020  0.1864 -0.3262  0.0242
 4987W        W24521   5.272  15.387   0.156 -0.0477  0.2854 -0.3876
 4988W        W24522  14.238  12.249   1.157 -0.2436  0.0251  0.0013
 4989W        W24523  18.616   6.910  11.458  0.3745 -0.2203 -0.1123
 4990W        W24524   9.854   9.175   0.185 -0.1168 -0.1438 -0.1826
 4991W        W24525   2.357   4.915  13.012 -0.1891 -0.0307 -0.2374
 4992W        W24526   3.336   1.374   0.324 -0.1731  0.1551  0.3074
 4993W        W24527  12.702   7.928  11.403  0.0066 -0.0524  0.0374
 4994W        W24528   1.488   0.343   1.601  0.1708 -0.3414  0.1673
 4995W        W24529   3.354   2.624   2.512  0.3198 -0.2951  0.4607
 4996W        W24530   6.350   4.380  13.744  0.1658  0.3905 -0.1168
 4997W        W24531   5.909   0.191   0.040  0.1476  0.0640 -0.0124
 4998W        W24532   7.185   7.723   2.967  0.2309 -0.0493  0.1432
 4999W        W24533  18.763   0.264   2.426  0.2299 -0.1339  0.3057
 5000W        W24534  11.561  11.302  13.745 -0.0046  0.0153  0.0408
 5001W        W24535   4.933   1.596   1.035 -0.0101  0.1337  0.2518
 5002W        W24536  10.536   2.571  12.696 -0.2126 -0.1872 -0.0045
 5003W        W24537   7.435   6.038  13.096  0.0233 -0.0565 -0.1080
 5004W        W24538   9.235   3.625  10.569 -0.0479 -0.0023  0.0496
 5005W        W24539   8.610   9.848   3.760 -0.0423 -0.1631  0.1193
 5006W        W24540   8.619  10.101   0.243  0.1040 -0.1172 -0.1823
 5007W        W24541   9.201  14.321  10.934 -0.0505  0.4731  0.0165
 5008W        W24542   5.758   2.140  10.010  0.2402  0.0195 -0.0682
 5009W        W24543  16.703   6.038   3.872  0.0675  0.2200 -0.3355
 5010W        W24544   7.026  19.305   0.025 -0.2185  0.1256  0.1901
 5011W        W24545  13.161  19.283   9.851 -0.0910  0.3088 -0.5623
 5012W        W24546  15.684  14.988  14.054 -0.2747 -0.0853  0.1358
 5013W        W24547   7.465   7.550  13.044  0.0000  0.1571 -0.1819
 5014W        W24548   1.911  18.022   3.320  0.0877 -0.0062  0.3075
 5015W        W24549  17.109   1.020  10.545  0.0341 -0.0142 -0.2034
 5016W        W24550   1.800  10.117   0.538  0.3031 -0.1047 -0.0148
 5017W        W24551  10.788   3.065  12.799 -0.1827 -0.4028 -0.1249
 5018W        W24552   3.619   2.709   4.065 -0.1075  0.2600  0.0199
 5019W        W24553   2.708   5.529  10.879 -0.0682 -0.2307  0.1402
 5020W        W24554   1.505  13.736  13.881 -0.1345 -0.2132 -0.0075
 5021W        W24555  18.323  15.820  10.770  0.2938 -0.0016  0.1318
 5022W        W24556   0.073   4.744   2.743  0.1172 -0.2293 -0.0449
 5023W        W24557   1.548   4.241   3.557 -0.2626 -0.1487  0.1649
 5024W        W24558   4.575  15.389   2.528 -0.2772  0.1874 -0.0647
 5025W        W24559  13.287  18.423   3.938 -0.1727 -0.0201  0.2770
 5026W        W24560   1.335  16.410  11.476 -0.0527 -0.2395  0.0501
 5027W        W24561   3.997  14.542  12.563 -0.0701  0.0522 -0.0043
 5028W        W24562  14.829  18.835  13.188  0.0136 -0.0816 -0.1586
 5029W        W24563   4.308   9.917   3.784 -0.1441  0.0350 -0.0154
 5030W        W24564  12.980   9.090  10.998  0.0058 -0.1244 -0.0256
 5031W        W24565   1.838   4.308  12.435  0.1813  0.1003 -0.1290
 5032W        W24566   0.366  10.389  12.437  0.0177  0.1574  0.1972
 5033W        W24567  15.226  18.659  13.514 -0.0471  0.0484  0.3109
 5034W        W24568   6.823   2.471  10.597 -0.3038 -0.2718  0.0335
 5035W        W24569   8.898   0.807   1.394  0.0518 -0.2178 -0.0001
 5036W        W24570  15.498  17.744   3.891  0.1799  0.0864  0.0132
 5037W        W24571  10.867  15.626  13.454 -0.1050  0.3467 -0.4904
 5038W        W24572   7.717  13.956   0.135 -0.0296 -0.0686  0.1030
 5039W        W24573  15.483  13.171  13.818  0.2065 -0.2981  0.5151
 5040W        W24574   8.115   0.929  14.153  0.0913  0.0352  0.1180
 5041W        W24575  12.639   4.506   0.872 -0.0904 -0.0603  0.1155
 5042W        W24576   4.509   0.485   3.525 -0.1502 -0.3097 -0.1252
 5043W        W24577  10.364   8.169   3.849  0.0227 -0.0387  0.3785
 5044W        W24578   0.672   5.716  14.169 -0.1829 -0.1332 -0.2100
 5045W        W24579   5.956   2.097  11.781 -0.1490 -0.1173  0.0226
 5046W        W24580  11.247  15.640   1.420  0.2253  0.0393 -0.1121
 5047W        W24581   8.317   0.180  10.516  0.2487  0.0511  0.5498
 5048W        W24582   4.274   1.521   5.019  0.4354 -0.1503 -0.2912
 5049W        W24583   4.954  17.111   9.617  0.0489  0.0645  0.0163
 5050W        W24584   4.393   8.441  13.124  0.0525  0.4293 -0.3317
 5051W        W24585  15.733   0.882  11.181 -0.3910 -0.0942 -0.1807
 5052W        W24586  17.744  12.427  12.215  0.2032 -0.1036  0.4002
 5053W        W24587  17.251  12.646  12.204 -0.1580 -0.0121  0.1844
 5054W        W24588  10.004   8.750   3.495 -0.0394  0.1277  0.1899
 5055W        W24589   1.018   3.136   0.994 -0.1308  0.1396  0.0210
 5056W        W24590  19.196  12.993   0.446 -0.0989  0.1663 -0.0484
 5057W        W24591  15.004  16.426  12.814 -0.0044 -0.0753 -0.3871
 5058W        W24592   7.151   7.316  13.341  0.2496  0.1470 -0.1065
 5059W        W24593  12.985   4.600   4.229  0.0371  0.2187 -0.0438
 5060W        W24594   9.590   3.264  10.509 -0.2195  0.1690 -0.0363
 5061W        W24595   6.417   2.182  12.044 -0.0671  0.3395  0.1016
 5062W        W24596  17.276   0.001   0.049  0.0204 -0.4364 -0.0368
 5063W        W24597  11.753   2.697  13.014  0.0207 -0.3233  0.1008
 5064W        W24598  10.690  15.407   4.324 -0.1253 -0.1415  0.0934
 5065W        W24599  10.181   9.966  12.504 -0.0597  0.0981  0.0021
 5066W        W24600  10.045  18.889  11.581 -0.1048 -0.0015 -0.0462
 5067W        W24601  17.348   8.295  12.449 -0.0556 -0.0637  0.2100
 5068W        W24602   4.400   9.530   3.400  0.1989 -0.3223 -0.2269
 5069W        W24603  10.630   3.024  13.503  0.2738 -0.1912  0.3122
 5070W        W24604  12.788  12.851   1.153 -0.1692 -0.1624  0.4452
 5071W        W24605   6.216   0.588   5.378  0.1823 -0.1974  0.1190
 5072W        W24606  13.269  11.282   9.913  0.1960 -0.0594  0.2293
 5073W        W24607  14.956  13.739  12.841  0.0454 -0.3014 -0.1326
 5074W        W24608  14.603   7.029   1.098 -0.3391  0.1191 -0.1388
 5075W        W24609  13.062   2.947  13.314  0.2601 -0.4145 -0.0173
 5076W        W24610   4.661   9.060  12.332 -0.0025 -0.0848  0.3863
 5077W        W24611   7.135  11.684  12.409  0.2525 -0.5379 -0.2153
 5078W        W24612   2.562  11.852   3.130  0.0743 -0.3706  0.4225
 5079W        W24613  13.293   9.779   0.370 -0.5210 -0.1246  0.2795
 5080W        W24614  16.588  12.037   0.088 -0.2434  0.3231  0.1485
 5081W        W24615  13.000  12.125   1.882 -0.1998 -0.1027  0.1971
 5082W        W24616  14.612  16.385  12.534  0.2263  0.0311  0.1081
 5083W        W24617   4.754  12.183  11.855 -0.0802  0.0575 -0.0273
 5084W        W24618  10.026  18.444   2.273 -0.0443  0.1458  0.0319
 5085W        W24619  10.133  10.395  10.973 -0.0939  0.3418  0.2383
 5086W        W24620  14.071   6.893   1.991 -0.1247  0.2035 -0.0328
 5087W        W24621  16.351  11.723  12.283  0.2187 -0.1290 -0.2029
 5088W        W24622   8.370  16.113  13.887  0.0946  0.1002 -0.2378
 5089W        W24623   5.230  15.212  13.180  0.0566  0.3131 -0.0725
 5090W        W24624  13.079   3.525   4.883 -0.1169  0.0306  0.0851
 5091W        W24625   3.824   4.156   2.021  0.4057 -0.0536 -0.0838
 5092W        W24626   6.361   2.975   3.454  0.0497  0.0006 -0.1109
 5093W        W24627  18.352  16.674  10.131 -0.3006 -0.2190 -0.0518
 5094W        W24628   6.902  17.830  12.482  0.2785  0.3374  0.0716
 5095W        W24629   4.699  11.302   2.781 -0.2083  0.4030 -0.0991
 5096W        W24630  11.023  13.836   9.789  0.4064  0.1523  0.0620
 5097W        W24631   3.923  13.348  11.787  0.1494  0.1575  0.1904
 5098W        W24632  13.733  12.799  12.813 -0.1062  0.0071  0.4058
 5099W        W24633   9.647   0.468  11.860  0.0431  0.0837 -0.0076
 5100W        W24634   7.551   4.581   0.026  0.0404  0.0740 -0.4094
 5101W        W24635   1.059  13.166  13.268 -0.0804  0.2436 -0.0634
 5102W        W24636  18.307   5.352   4.261  0.1876  0.1505 -0.2048
 5103W        W24637   7.867   7.132  11.966 -0.0608 -0.1078 -0.0300
 5104W        W24638   1.349   5.561  10.622 -0.0530 -0.0843  0.0958
 5105W        W24639  17.079  17.581   0.456 -0.2118  0.3173 -0.0428
 5106W        W24640   5.577   1.939  11.204  0.2235 -0.1025 -0.0047
 5107W        W24641  13.946   7.302  14.187 -0.2618  0.0015  0.0550
 5108W        W24642  14.999   3.245  10.623  0.0814 -0.2583  0.2053
 5109W        W24643   2.535   4.619   3.949 -0.1194 -0.0895 -0.0533
 5110W        W24644   8.984   8.256   4.417 -0.5651 -0.2941 -0.0033
 5111W        W24645  19.233   5.285  10.957 -0.0938 -0.1318 -0.3323
 5112W        W24646  13.094  12.601   2.082 -0.1344  0.2534 -0.0076
 5113W        W24647   0.385  14.015   3.200  0.1823 -0.3303  0.0325
 5114W        W24648  13.070   6.705  13.464 -0.0688  0.0825 -0.1362
 5115W        W24649   6.675  11.983  11.556  0.2613  0.0040 -0.2739
 5116W        W24650  14.308  19.326   1.858  0.2661 -0.0996 -0.2378
 5117W        W24651   8.113   4.597   0.806  0.1166  0.0746  0.1559
 5118W        W24652   7.177  12.107   0.391  0.0408  0.1962  0.1820
 5119W        W24653  13.379  10.244   0.531 -0.1823 -0.0484 -0.1590
 5120W        W24654   2.051  13.343  13.754 -0.2014  0.1873 -0.0430
 5121W        W24655   4.759  16.747  10.628  0.3055 -0.2085 -0.0079
 5122W        W24656  10.274   7.299  10.760  0.2404  0.0851 -0.0354
 5123W        W24657   2.698  17.942  13.069 -0.1142  0.2999  0.1505
 5124W        W24658   6.280  14.379  13.691  0.0790 -0.1863  0.1924
 5125W        W24659  16.416  12.580   2.137 -0.2334 -0.0057  0.2011
 5126W        W24660  12.184  12.059  10.166  0.0161  0.0485  0.1485
 5127W        W24661   6.936  14.761  13.059 -0.0388 -0.1379 -0.3997
 5128W        W24662   8.014  16.445  10.600  0.0585 -0.0901 -0.0120
 5129W        W24663   0.216  17.126   0.979 -0.4968 -0.2087  0.2519
 5130W        W24664  13.153  16.060  10.039  0.1176  0.1130 -0.2765
 5131W        W24665   6.452  10.716   0.094  0.1583  0.1166  0.2490
 5132W        W24666   7.881   4.793  13.470 -0.1237 -0.2425  0.1116
 5133W        W24667  11.018  15.336   3.928  0.2028  0.1507  0.0265
 5134W        W24668   5.373   7.939   0.519  0.0887  0.3584 -0.0010
 5135W        W24669   6.696  16.606   3.652  0.4125 -0.0529 -0.2463
 5136W        W24670   7.991   1.461   4.255 -0.1751 -0.0021  0.0550
 5137W        W24671  15.216  18.723   4.129 -0.0708 -0.1571  0.1631
 5138W        W24672   6.974   1.833  10.204  0.4974  0.1895  0.0864
 5139W        W24673  16.860   0.770  12.659 -0.4822 -0.0630 -0.1035
 5140W        W24674  13.474  15.541  12.630 -0.0502 -0.0398  0.3321
 5141W        W24675   4.884  15.233   4.235 -0.0287  0.0077 -0.1152
 5142W        W24676   0.585  12.497  13.648  0.2532 -0.3019  0.5318
 5143W        W24677  16.777  19.416  12.355 -0.2943  0.2701 -0.1764
 5144W        W24678   6.389  18.111   0.531 -0.0661 -0.0059  0.2777
 5145W        W24679   8.487  15.857   3.827 -0.1336  0.3916  0.1368
 5146W        W24680  14.406   9.914  13.023 -0.2634  0.0150 -0.2125
 5147W        W24681   8.735   7.791   4.435 -0.1661  0.1690  0.2228
 5148W        W24682   4.740  13.453   3.193 -0.1022 -0.0151 -0.1182
 5149W        W24683   3.994  10.007  10.873  0.0951 -0.2228 -0.1498
 5150W        W24684   6.772  17.084   3.639  0.1048 -0.0906  0.1423
 5151W        W24685  19.464   5.677  11.376  0.1954 -0.0972 -0.0177
 5152W        W24686  15.155   7.840  13.769 -0.3360 -0.1892 -0.0403
 5153W        W24687  10.636  11.810  11.490  0.1689  0.0956 -0.2013
 5154W        W24688  17.516   7.031   4.072 -0.1120  0.1328 -0.3195
 5155W        W24689   8.104  19.129   3.241  0.0526 -0.1913  0.0578
 5156W        W24690  19.181   6.801   5.001 -0.2813 -0.0034 -0.1968
 5157W        W24691   7.118   1.052  10.634 -0.0291  0.1149  0.2901
 5158W        W24692   8.875  12.092   2.541 -0.2590  0.1102  0.0095
 5159W        W24693  18.890  17.556   3.591  0.3769  0.2192 -0.1815
 5160W        W24694   3.143   0.756  10.907  0.1379 -0.1938 -0.2569
 5161W        W24695  16.459   8.751   2.191  0.0061  0.2053 -0.0928
 5162W        W24696   2.765   1.702  10.767 -0.0435 -0.1703 -0.0964
 5163W        W24697  12.422   5.077   1.123  0.0430  0.2800 -0.1391
 5164W        W24698  11.608   4.624   1.661 -0.1591  0.0451 -0.2545
 5165W        W24699  10.696   1.750   3.991  0.1068 -0.0985 -0.2211
 5166W        W24700  18.034   7.893   1.111  0.1963 -0.0782 -0.1408
 5167W        W24701  15.005  13.169  11.357  0.1137  0.1287 -0.0355
 5168W        W24702   7.338  17.598   3.310 -0.0950  0.0135  0.3208
 5169W        W24703  10.857  11.358   3.265  0.1370 -0.2571 -0.1874
 5170W        W24704  18.354  12.678  11.757  0.0305 -0.0295 -0.0593
 5171W        W24705  15.298  15.574  12.300 -0.2767  0.0532  0.0527
 5172W        W24706   8.865  17.457  11.246  0.1173 -0.1305  0.0833
 5173W        W24707   0.357  12.382  13.182  0.1477  0.0187 -0.0170
 5174W        W24708   8.806   1.269   2.331  0.2918 -0.1321  0.0143
 5175W        W24709  16.012   3.018  11.553  0.0537  0.0256  0.1519
 5176W        W24710   6.256   9.400   0.996  0.0205  0.2905 -0.1771
 5177W        W24711   2.255   4.517   2.006  0.2464 -0.0232 -0.0323
 5178W        W24712  12.522  19.220  11.531  0.0619  0.1737 -0.0189
 5179W        W24713   8.424  18.215  11.754  0.1066 -0.0176  0.0657
 5180W        W24714  14.975  18.544  12.708  0.2945 -0.0498 -0.2266
 5181W        W24715  10.099   5.568   4.560  0.0733  0.0542 -0.1829
 5182W        W24716  10.609   5.541  11.629 -0.2465 -0.1259  0.4198
 5183W        W24717   3.797  13.918  10.604 -0.1733  0.0608 -0.0396
 5184W        W24718   0.863  18.103   5.116  0.1022  0.3492 -0.0421
 5185W        W24719  17.531   3.110   2.519  0.4179  0.1114  0.0371
 5186W        W24720   2.946   3.854   3.262 -0.1572  0.2063 -0.1038
 5187W        W24721  10.339  19.122   2.953  0.4334  0.0813  0.0956
 5188W        W24722   7.555   7.508   1.083  0.2199  0.2429 -0.3393
 5189W        W24723  14.236  13.742   1.027 -0.0327 -0.0709  0.2569
 5190W        W24724   1.887   4.947  13.109 -0.5256 -0.2059 -0.0102
 5191W        W24725  15.759   9.564  11.077 -0.1139 -0.0943  0.0094
 5192W        W24726   9.148  16.699   1.102 -0.1270 -0.0884 -0.1514
 5193W        W24727   4.895   3.506   3.139  0.3732 -0.0931  0.1822
 5194W        W24728  11.636   2.470  11.937 -0.3656  0.3179  0.1660
 5195W        W24729   2.147  15.223  14.007  0.1152 -0.3456  0.0682
 5196W        W24730   8.800  12.861   4.302 -0.0967  0.2114  0.1187
 5197W        W24731  14.818  11.344  11.746 -0.1709 -0.4298  0.0810
 5198W        W24732   1.951   0.208   0.913  0.2473 -0.2312  0.0448
 5199W        W24733   1.528  17.356   0.191 -0.1694  0.0841 -0.0245
 5200W        W24734  19.383  13.647   3.932  0.0990  0.1462  0.0972
 5201W        W24735   5.300  16.030   4.269  0.1682  0.1194 -0.1804
 5202W        W24736  12.956  14.054  10.522 -0.5526  0.0517 -0.3395
 5203W        W24737  16.189   3.930  10.961 -0.0677 -0.1665  0.1238
 5204W        W24738   6.589  13.840  13.039  0.1576 -0.1853 -0.2241
 5205W        W24739   0.277   7.704   3.620 -0.2512 -0.1721 -0.2401
 5206W        W24740   7.663  10.614  13.924 -0.1283 -0.0295 -0.1420
 5207W        W24741  12.620   0.525  11.304 -0.2308  0.2245  0.1972
 5208W        W24742   9.095   7.677   9.977 -0.0900  0.1715 -0.0592
 5209W        W24743   0.243   4.535   3.726  0.0928 -0.2784  0.1849
 5210W        W24744  19.050  16.735   9.581  0.1624 -0.3059 -0.0393
 5211W        W24745   8.043   5.054  12.676 -0.2701 -0.1994  0.2823
 5212W        W24746   0.785  15.356   2.968 -0.3550  0.0159  0.0879
 5213W        W24747  18.564   1.408   2.979  0.0890 -0.2617 -0.0071
 5214W        W24748  15.803  11.298   3.258  0.2279 -0.1060 -0.1393
 5215W        W24749  18.836  10.526  13.297 -0.2073 -0.1306  0.3207
 5216W        W24750  16.660  10.505  10.369 -0.1024  0.3377 -0.1510
 5217W        W24751   3.383   9.691  13.368 -0.2337  0.0287 -0.4249
 5218W        W24752  12.549   0.137   0.566 -0.4111 -0.0023  0.1010
 5219W        W24753  10.117   6.755  11.601  0.0337 -0.0109  0.2710
 5220W        W24754   9.785  18.252  12.176  0.0490  0.0485  0.0022
 5221W        W24755  19.417   3.329   4.317 -0.0468 -0.2466 -0.0285
 5222W        W24756   5.382   4.917   2.060  0.2222  0.0482  0.0749
 5223W        W24757   0.681   2.778  12.983  0.0518  0.0163  0.2835
 5224W        W24758  10.319   4.184  11.049  0.1875 -0.0717 -0.0454
 5225W        W24759   6.726   7.241   1.554  0.1065  0.1868 -0.0701
 5226W        W24760  15.413   1.709   3.178  0.1327  0.0666  0.2203
 5227W        W24761   7.625   2.807   1.569 -0.1802  0.0699  0.2092
 5228W        W24762  10.627   2.082  13.299 -0.0518  0.0910  0.1435
 5229W        W24763   2.700   6.271   0.503 -0.4328 -0.0930  0.0617
 5230W        W24764   1.384  16.146   8.866 -0.0111  0.2580 -0.0280
 5231W        W24765   5.932  12.719   0.969  0.0428 -0.1247  0.1796
 5232W        W24766   9.323  13.652  10.298  0.1124  0.1025 -0.2548
 5233W        W24767   3.159   9.046  12.622  0.2080  0.1020 -0.3700
 5234W        W24768   1.086  18.651   2.607 -0.1840 -0.2204  0.3531
 5235W        W24769   8.440  19.455   2.949 -0.1466 -0.0176  0.3537
 5236W        W24770   4.937  13.486   1.442  0.0112  0.0420  0.2760
 5237W        W24771  17.649   4.456   2.490  0.0190 -0.1046  0.1799
 5238W        W24772   9.751   4.736  14.025 -0.0384  0.0836  0.2977
 5239W        W24773  15.303  13.312  13.002 -0.0155 -0.0329  0.0863
 5240W        W24774   0.860  15.344  11.123  0.1006  0.0930  0.1179
 5241W        W24775   3.889  12.257   1.041  0.1649 -0.2293 -0.2031
 5242W        W24776  17.098  10.291   1.298  0.0273 -0.2711 -0.5107
 5243W        W24777   4.651   7.406   3.326 -0.0904  0.0894 -0.1274
 5244W        W24778  10.788  15.891  13.853 -0.2156 -0.0595 -0.1916
 5245W        W24779   7.049  14.180  13.798 -0.0232 -0.2226  0.1945
 5246W        W24780   6.378  12.783  13.790 -0.0390  0.3792  0.0989
 5247W        W24781  11.282   8.219   3.960  0.1432  0.0700 -0.0204
 5248W        W24782  16.908  16.603  12.864  0.1631  0.1556  0.3109
 5249W        W24783  14.986  14.593  11.429  0.0913 -0.3128 -0.1755
 5250W        W24784   5.811   5.496  12.564 -0.3149 -0.3482  0.0405
 5251W        W24785  10.352   6.927   2.868  0.1582  0.0431  0.3061
 5252W        W24786   5.206   9.571  10.259  0.1293  0.1057  0.1168
 5253W        W24787  12.697   4.216   3.061 -0.2275  0.2668  0.0045
 5254W        W24788  19.402   5.827  12.140  0.2049 -0.0486 -0.1465
 5255W        W24789   3.551   7.025   2.229  0.0090 -0.0160  0.0002
 5256W        W24790   1.406  19.138  12.977 -0.1693 -0.1042 -0.0322
 5257W        W24791   4.745   8.091   2.079  0.0232  0.0642  0.2253
 5258W        W24792  10.704  12.869  12.411 -0.2162  0.2718 -0.1646
 5259W        W24793   5.446   0.503   3.508 -0.2564 -0.0216  0.0429
 5260W        W24794  18.601  15.518  11.099  0.0380 -0.0048 -0.1114
 5261W        W24795  14.694   9.544  12.111 -0.3378  0.0071 -0.0959
 5262W        W24796  12.890   8.856   1.528 -0.0324 -0.0366 -0.1617
 5263W        W24797  14.338   5.734  11.285  0.0962 -0.0545 -0.2332
 5264W        W24798   1.799  16.683  12.211 -0.2725 -0.2549  0.0292
 5265W        W24799  15.284   6.937  12.210  0.1574 -0.0624  0.3503
 5266W        W24800   8.596  14.874  13.525  0.2553  0.0885  0.0629
 5267W        W24801   8.582  11.075   1.790 -0.0612 -0.0703  0.1647
 5268W        W24802   4.510  14.977   3.448  0.3014  0.0185  0.0155
 5269W        W24803  19.386   9.745  10.692 -0.1152 -0.1987  0.1193
 5270W        W24804   8.308  18.852   3.992  0.0394  0.1415  0.0715
 5271W        W24805   7.609  13.097   2.521 -0.0348 -0.3574  0.1114
 5272W        W24806   5.883   7.549   0.571 -0.1145 -0.0753  0.1357
 5273W        W24807   1.027   7.482   0.703  0.0742  0.2879 -0.0298
 5274W        W24808  14.854   9.762  14.241 -0.2933  0.1590 -0.0361
 5275W        W24809  10.680   2.796   1.895 -0.0117  0.4016 -0.2833
 5276W        W24810  15.148  17.396   3.990  0.1644  0.0693  0.0342
 5277W        W24811  17.046   3.981   0.124 -0.1692 -0.1498  0.2449
 5278W        W24812   2.777   4.962  12.778 -0.0887 -0.0426  0.0315
 5279W        W24813   4.781  11.182  10.781  0.0235 -0.0555 -0.2013
 5280W        W24814   0.451  11.351   2.001 -0.2418 -0.1911 -0.2198
 5281W        W24815  12.388  13.962  11.262  0.1777  0.0143  0.2262
 5282W        W24816  18.933  12.827  13.887  0.1229  0.2611  0.0290
 5283W        W24817   1.546  14.042  12.027 -0.1348  0.0261 -0.1040
 5284W        W24818   3.323  11.585  13.292 -0.2149  0.0044 -0.0235
 5285W        W24819   3.583   0.577  11.132  0.1427 -0.0269  0.0505
 5286W        W24820   3.527  10.457  12.856 -0.2203 -0.1329 -0.1822
 5287W        W24821   1.935   6.973   2.481  0.0866  0.4127 -0.0762
 5288W        W24822  17.681   3.770  11.552 -0.1307  0.0801 -0.2455
 5289W        W24823  10.944   0.939   2.752  0.0649 -0.1039 -0.0730
 5290W        W24824   1.043   6.986   0.530  0.0482 -0.0445 -0.1538
 5291W        W24825  15.849  10.383   2.654  0.0954  0.0988 -0.2137
 5292W        W24826  12.893   1.805   1.189 -0.0923 -0.1291 -0.1920
 5293W        W24827   2.035   7.511   3.953 -0.2769 -0.2701 -0.0739
 5294W        W24828   2.033   3.245   1.834  0.0164 -0.0328 -0.4012
 5295W        W24829   1.407   0.518  11.307  0.4023  0.1123  0.0847
 5296W        W24830   6.175  12.219   3.249  0.0351 -0.0475 -0.0536
 5297W        W24831   0.795  15.287  13.622 -0.1425 -0.0810  0.1010
 5298W        W24832   2.500  15.127   4.440 -0.0433 -0.0853 -0.1055
 5299W        W24833  10.251   5.399   1.898  0.0830 -0.2725 -0.2320
 5300W        W24834  17.422   9.703   0.659 -0.2852  0.2583  0.0760
 5301W        W24835   1.505   8.411  13.266  0.1594  0.0845 -0.0360
 5302W        W24836   3.048   8.564   4.313 -0.1399  0.1616 -0.1375
 5303W        W24837  11.980   3.044   3.092 -0.1310 -0.1653  0.1869
 5304W        W24838  17.823  12.575   3.902  0.3535  0.1976 -0.0642
 5305W        W24839  18.863  15.366   1.028 -0.0909 -0.2175  0.6138
 5306W        W24840  18.006   3.302   3.592  0.0934  0.3559  0.2522
 5307W        W24841   6.418   5.663   4.066 -0.0723 -0.0122 -0.0911
 5308W        W24842   9.821  10.104   1.333 -0.0446 -0.2104 -0.1243
 5309W        W24843   4.353  13.516   1.333  0.1587 -0.0538 -0.0455
 5310W        W24844  16.353   8.349   0.525  0.2528  0.4003  0.1063
 5311W        W24845   2.945   5.367   4.124 -0.0870 -0.2512 -0.0654
 5312W        W24846  18.088   1.165   1.986  0.1772 -0.0011  0.0873
 5313W        W24847   7.181   8.587   1.505 -0.0362  0.0198  0.4950
 5314W        W24848   0.641   4.851   2.956 -0.2000  0.0404  0.1484
 5315W        W24849  19.533  16.009   3.497 -0.0360  0.2502  0.0329
 5316W        W24850  14.174   1.435   9.562 -0.0897 -0.2389 -0.0649
 5317W        W24851  15.990   6.561  12.142  0.0403  0.4932  0.2224
 5318W        W24852  15.867  12.443   2.394 -0.3783 -0.0486  0.0853
 5319W        W24853   1.255  13.300   3.674  0.3030  0.0812  0.0230
 5320W        W24854   2.203   0.762   3.476  0.1644  0.1421 -0.2345
 5321W        W24855  16.310  11.119  11.727 -0.0536 -0.0894  0.0543
 5322W        W24856  13.503  10.485  14.037  0.0857 -0.1210 -0.1357
 5323W        W24857  18.890   6.407  12.730 -0.0580  0.0053  0.3082
 5324W        W24858  12.080  12.111   1.329  0.0712  0.0425 -0.1600
 5325W        W24859  18.374   6.294   0.328  0.2236  0.4981  0.0944
 5326W        W24860   5.275  15.964   2.921 -0.3643 -0.0019  0.2949
 5327W        W24861  11.598   9.795   2.772 -0.1346  0.2444  0.1028
 5328W        W24862  15.782   7.052  11.268  0.1078  0.3378 -0.1541
 5329W        W24863  19.262  10.842   0.087 -0.1600 -0.5860 -0.0166
 5330W        W24864  15.355   9.930  14.309 -0.0906 -0.1129  0.5323
 5331W        W24865  13.849  15.697  11.022 -0.0611 -0.3389  0.2432
 5332W        W24866   2.016  11.146   0.088 -0.4287  0.1411  0.1028
 5333W        W24867   7.131  10.603  12.878 -0.0319 -0.3363 -0.0367
 5334W        W24868  10.552   8.448  14.198 -0.1059  0.1380 -0.0591
 5335W        W24869   2.933  17.091   1.384  0.2841 -0.0898  0.1174
 5336W        W24870   9.698   2.169  10.561  0.1018 -0.5337 -0.1418
 5337W        W24871  15.072   4.925   4.062 -0.0756 -0.0762 -0.0608
 5338W        W24872  18.592   5.022   0.739  0.2042  0.0219 -0.2662
 5339W        W24873  19.312   6.303  14.189 -0.1962 -0.4156  0.0866
 5340W        W24874  12.617   9.514   1.080  0.1824  0.1476 -0.2700
 5341W        W24875   6.194   0.583   0.380 -0.0410  0.2157 -0.0405
 5342W        W24876   1.618  18.297   2.569 -0.0070  0.0513 -0.1818
 5343W        W24877   9.004   1.919  12.592  0.1570  0.2190  0.0296
 5344W        W24878  11.862   5.515  12.609  0.2133 -0.1273  0.3776
 5345W        W24879  16.078   2.896  14.010  0.3479  0.1969 -0.2685
 5346W        W24880  14.982  15.515   3.633  0.0508  0.0148 -0.1393
 5347W        W24881   8.431   6.626  14.054 -0.2633 -0.1184  0.0229
 5348W        W24882   5.461  12.569  12.953  0.2619  0.0388 -0.0119
 5349W        W24883   1.248  16.455   0.942 -0.0706  0.2208 -0.1135
 5350W        W24884   9.911   7.187  13.364 -0.1188 -0.0339  0.1987
 5351W        W24885   0.502  11.246   3.436  0.0343 -0.1727  0.3363
 5352W        W24886  11.692   1.427  11.501  0.1276 -0.2360 -0.1141
 5353W        W24887  16.510  10.435  14.344  0.1338  0.1446 -0.2198
 5354W        W24888  13.941   8.682  10.828 -0.2899  0.0593 -0.0329
 5355W        W24889   0.331  19.410  10.930 -0.2012 -0.2145  0.3464
 5356W        W24890  15.359   6.691   2.050  0.0388 -0.3055  0.0368
 5357W        W24891  16.372   0.160  12.693 -0.0933  0.0597  0.1924
 5358W        W24892  15.335  14.553  10.352 -0.1252  0.1055  0.2284
 5359W        W24893   9.899   1.767  13.769 -0.0299  0.1198 -0.3941
 5360W        W24894  11.092  13.992  13.115  0.2129 -0.1434  0.0522
 5361W        W24895  13.911   7.784  13.481  0.0851 -0.0088  0.2971
 5362W        W24896   6.072  17.481   2.634  0.0082 -0.2503  0.1470
 5363W        W24897  16.706   1.157   5.079 -0.1510  0.1752  0.0114
 5364W        W24898  14.941   1.311   3.923  0.1760 -0.0065 -0.3427
 5365W        W24899   7.184  14.409  13.357 -0.1472 -0.1796 -0.0509
 5366W        W24900   4.729   7.888   3.538  0.3664  0.0585 -0.1905
 5367W        W24901  12.931   7.524   1.351  0.1860  0.0221 -0.0170
 5368W        W24902   2.695  18.234   1.609  0.1687 -0.0966 -0.0712
 5369W        W24903  11.239   9.359  13.100 -0.1242 -0.1713 -0.0313
 5370W        W24904   0.712  15.555   1.354  0.2636  0.0199  0.2127
 5371W        W24905  16.942   8.872  11.306  0.0612 -0.1419 -0.0450
 5372W        W24906   8.661  10.970  11.779 -0.0939 -0.1394  0.1487
 5373W        W24907   1.554  12.896   3.039 -0.1853  0.2041  0.0391
 5374W        W24908  15.210   1.261   4.601  0.0802  0.3541 -0.1817
 5375W        W24909  16.892   0.697  13.240  0.2355  0.4961 -0.3178
 5376W        W24910   1.249   1.798   3.287  0.0972 -0.1729  0.0748
 5377W        W24911  14.994  12.846  13.115  0.1006 -0.0918  0.0337
 5378W        W24912   4.899   3.864   0.124 -0.0148  0.2904  0.2037
 5379W        W24913   9.546  11.629   9.844  0.5168 -0.0123 -0.0480
 5380W        W24914   4.994   5.417  12.752 -0.1786 -0.0848 -0.1896
 5381W        W24915   4.140  11.797   1.242 -0.1498  0.0996 -0.3160
 5382W        W24916  15.557  10.485   0.792  0.2589 -0.2309  0.0546
 5383W        W24917   1.352   0.028  10.915  0.2525  0.1238 -0.0537
 5384W        W24918   1.100  14.116   2.575 -0.1209  0.2502 -0.0737
 5385W        W24919  16.578   9.788   4.688  0.0279  0.2266 -0.0536
 5386W        W24920   0.903  11.511  14.243 -0.2678 -0.0534 -0.0601
 5387W        W24921  18.216   9.774   1.172  0.2007  0.1418  0.1044
 5388W        W24922  17.135  15.179  11.761  0.2288  0.5749 -0.1872
 5389W        W24923   0.053  18.741  12.788 -0.1886 -0.0707  0.2366
 5390W        W24924  17.089   1.836   9.604 -0.2700  0.1137  0.2422
 5391W        W24925   1.975  18.814   2.604 -0.1083 -0.1115 -0.0524
 5392W        W24926   9.130   7.412   4.344 -0.0005 -0.1400  0.3411
 5393W        W24927  19.019   8.567   3.212 -0.1544 -0.3073  0.4361
 5394W        W24928   3.861  19.315   3.343 -0.1484  0.2075  0.1354
 5395W        W24929   6.193   9.570   2.592  0.0932 -0.1467 -0.0027
 5396W        W24930   1.042   8.983   3.315  0.1587 -0.0065  0.0800
 5397W        W24931  19.066  17.510  12.420 -0.0184 -0.1544 -0.1155
 5398W        W24932  14.765   1.658   1.824  0.3473 -0.0898  0.2846
 5399W        W24933  18.975   8.110  11.792  0.3060 -0.1073 -0.0105
 5400W        W24934  12.836   6.729   3.487  0.1266 -0.2014  0.2823
 5401W        W24935   6.459  16.478  11.767  0.3114 -0.0021 -0.2396
 5402W        W24936  13.269  16.068   0.348 -0.0463 -0.0293 -0.0436
 5403W        W24937   2.837   9.635  14.275 -0.4311 -0.0321  0.4625
 5404W        W24938   3.478  11.610  13.829 -0.1399  0.0731 -0.2668
 5405W        W24939  16.638   5.318   1.336  0.0154 -0.0517  0.0766
 5406W        W24940  10.435  14.680  10.782 -0.1088 -0.0051 -0.0361
 5407W        W24941  12.958   0.726  14.294  0.2747  0.0688 -0.1482
 5408W        W24942   8.619   9.075  12.043 -0.0636  0.0930 -0.1474
 5409W        W24943   0.897   3.291  12.524 -0.2740  0.0170  0.2602
 5410W        W24944   3.039   8.519  13.229 -0.0292 -0.0980 -0.3402
 5411W        W24945   5.832  13.477   1.998  0.2918  0.0827  0.0931
 5412W        W24946  14.811   2.090   4.364 -0.0249  0.1158 -0.3719
 5413W        W24947   4.136  18.219  12.587  0.0886 -0.3272 -0.2385
 5414W        W24948  17.289   6.604   4.245  0.0044 -0.4177 -0.1982
 5415W        W24949  10.197  10.099  10.240  0.1785  0.0507 -0.1732
 5416W        W24950   5.513   7.682  10.677  0.1218  0.1092  0.2743
 5417W        W24951  19.344  13.588  12.261 -0.1725 -0.1265  0.1042
 5418W        W24952   8.303  11.992   3.687  0.2695  0.0476 -0.0642
 5419W        W24953   0.682   7.942  10.495 -0.2727  0.2593  0.0677
 5420W        W24954   2.018   1.040  13.527  0.3244  0.2557 -0.3878
 5421W        W24955   3.782   3.876  10.328 -0.1289 -0.2196  0.0221
 5422W        W24956  18.048  17.653  14.034 -0.1821  0.1751  0.0165
 5423W        W24957   8.849   9.453  11.885  0.0027 -0.1505 -0.0505
 5424W        W24958   2.170  12.131   2.693  0.0028 -0.1612  0.0911
 5425W        W24959   0.397   3.377   0.405 -0.1769 -0.0965  0.0498
 5426W        W24960   2.536   5.437   3.136  0.1020 -0.0675 -0.2224
 5427W        W24961  12.521   3.686  11.673  0.1483 -0.0584  0.0217
 5428W        W24962   3.589   3.350   1.819  0.5175 -0.1732 -0.1267
 5429W        W24963   8.773  15.153   0.773 -0.1385  0.3908  0.0469
 5430W        W24964  11.378   5.055   0.723 -0.0538 -0.3957 -0.1520
 5431W        W24965  12.456   8.864   3.108  0.1101 -0.0691 -0.1313
 5432W        W24966   4.271  12.483  13.934 -0.0643  0.2239 -0.0581
 5433W        W24967  10.123   2.235  11.500 -0.1384 -0.1554  0.2403
 5434W        W24968  18.636  15.294  10.627  0.0118 -0.0172 -0.2068
 5435W        W24969   3.029   5.242   1.172  0.2377 -0.1171 -0.2259
 5436W        W24970   3.801  19.041   1.685  0.1168  0.2398  0.0772
 5437W        W24971  15.035   4.695   0.276  0.0430 -0.2142  0.2039
 5438W        W24972   0.576  16.083  12.002  0.0613 -0.1489  0.0808
 5439W        W24973  14.353  11.510  12.965 -0.0565  0.2377 -0.0961
 5440W        W24974   3.234  11.138  11.085  0.0093 -0.0150  0.3008
 5441W        W24975  14.156  18.185  12.204 -0.2039 -0.2004 -0.0064
 5442W        W24976  17.390   3.330   2.997 -0.2891  0.0302 -0.1785
 5443W        W24977  13.717  16.974  11.983  0.0137 -0.0019 -0.0409
 5444W        W24978   0.619   2.857   3.911 -0.3641  0.1279 -0.2809
 5445W        W24979   2.498  19.362  13.616 -0.1593  0.3798  0.0092
 5446W        W24980   7.441  16.893  12.717 -0.1796  0.1665 -0.0995
 5447W        W24981  16.456  16.090   1.043  0.4131 -0.0567 -0.0822
 5448W        W24982   0.538  10.883  10.406  0.0635 -0.1101  0.0170
 5449W        W24983  11.714  13.441   0.361  0.0870 -0.0673 -0.0933
 5450W        W24984   3.420  15.089   0.183 -0.0479  0.0387  0.1183
 5451W        W24985  13.795   1.592   1.443 -0.0792 -0.0473  0.0833
 5452W        W24986  17.862   7.391  13.290 -0.3980 -0.2974 -0.3569
 5453W        W24987  14.574  10.349  13.138 -0.0809  0.0754 -0.1810
 5454W        W24988   3.639   4.006  11.759  0.2579  0.2397  0.0345
 5455W        W24989   2.000   9.465   2.668 -0.4085  0.0624 -0.2876
 5456W        W24990   4.283  13.157  13.270  0.3127  0.1112 -0.1742
 5457W        W24991  11.160  10.187  10.130  0.3233 -0.1443  0.2374
 5458W        W24992   5.608  12.167  10.943 -0.1973  0.1654  0.0517
 5459W        W24993   1.015  12.244  12.667 -0.0099 -0.1928  0.0077
 5460W        W24994   7.161   2.559   1.742  0.0398 -0.0113  0.0364
 5461W        W24995   3.163   8.858  13.596  0.3187  0.0447 -0.0014
 5462W        W24996   3.564   8.446  12.305  0.3346 -0.1607 -0.2523
 5463W        W24997  15.207   6.129  14.123 -0.1309 -0.2388 -0.2597
 5464W        W24998   6.760   1.785  11.968  0.1349  0.3089  0.0157
 5465W        W24999  11.697   2.890  10.329  0.0921  0.2767  0.3189
 5466W        W25000  11.733  15.942  14.257  0.2019 -0.2453  0.0590
 5467W        W25001   4.122  12.121   1.930 -0.1873  0.0380 -0.1213
 5468W        W25002  16.426   8.951   3.226  0.2695 -0.3906 -0.0969
 5469W        W25003  13.866   8.734   2.700  0.3933  0.0031 -0.0817
 5470W        W25004   4.498   2.837  11.357  0.1985  0.0782 -0.0503
 5471W        W25005   0.965  17.843   3.344 -0.0524  0.4773 -0.2062
 5472W        W25006  11.387   0.815   0.872  0.1845 -0.0921  0.2399
 5473W        W25007   1.345  10.951   2.822 -0.0558 -0.1948 -0.0835
 5474W        W25008   3.333   2.535   4.487 -0.1957 -0.0388  0.1336
 5475W        W25009  18.040  13.834   0.697  0.1520  0.3925  0.0130
 5476W        W25010   9.163   5.689   2.770  0.0907  0.1586 -0.0006
 5477W        W25011  18.894   6.444   3.626  0.0379  0.1166  0.0733
 5478W        W25012  11.815  19.157  10.428 -0.3659  0.1821 -0.2362
 5479W        W25013   0.787  12.763   3.874 -0.0157 -0.0201 -0.0965
 5480W        W25014   4.408  13.076   3.337 -0.0134 -0.4207 -0.0799
 5481W        W25015  18.789   1.622  11.282  0.0084 -0.1769  0.2129
 5482W        W25016  17.415  10.365   4.045 -0.1052  0.0044 -0.1854
 5483W        W25017   1.912   3.824  13.351 -0.0258 -0.0188  0.3018
 5484W        W25018   9.680  16.181  12.397  0.2764  0.0389 -0.0149
 5485W        W25019   5.082   2.665  10.867 -0.0958 -0.0959  0.0692
 5486W        W25020  15.473  16.980  14.035  0.2804  0.1550 -0.0182
 5487W        W25021   4.260   0.148  11.864  0.0366  0.1853 -0.1856
 5488W        W25022   2.343   7.247  12.886  0.1310  0.2720  0.1813
 5489W        W25023  13.697   8.644   0.194 -0.1325  0.0770  0.0688
 5490W        W25024   8.016  16.487   3.605 -0.0569  0.0707  0.0084
 5491W        W25025  11.639   2.073   4.097  0.1576 -0.0292 -0.0327
 5492W        W25026   4.172  14.840  13.563 -0.3631 -0.2098  0.2423
 5493W        W25027  13.023  13.517  11.345 -0.0556  0.3710  0.5059
 5494W        W25028   7.749  12.093   0.542  0.0037  0.1475  0.3189
 5495W        W25029   6.543   7.683  11.166  0.2263  0.0377  0.0429
 5496W        W25030   5.542   6.658   2.292 -0.0924 -0.2764  0.3109
 5497W        W25031  18.147  15.756  11.334 -0.4252  0.1270 -0.0320
 5498W        W25032  10.751   7.384   3.420  0.2171  0.1303  0.1165
 5499W        W25033   4.297  10.711  11.246 -0.3189 -0.2029 -0.0083
 5500W        W25034   9.059  11.464  11.694  0.0451  0.0056  0.0882
 5501W        W25035  17.041  17.245   0.835 -0.2043  0.1420  0.1673
 5502W        W25036  18.537   9.287  12.774 -0.0608 -0.2632  0.0060
 5503W        W25037  18.557   5.122   3.379 -0.0972 -0.0707  0.1025
 5504W        W25038   6.589  12.025   5.283  0.3837  0.4113 -0.1215
 5505W        W25039   5.816   2.397  11.367  0.2862  0.1221  0.4333
 5506W        W25040  12.624   0.933   4.350  0.2643  0.0887  0.2622
 5507W        W25041   4.868   6.108  11.156 -0.0049  0.1892  0.1239
 5508W        W25042   3.631   2.963   0.452  0.1301  0.0684 -0.1428
 5509W        W25043  14.555  14.368  11.588 -0.1566  0.1897  0.1084
 5510W        W25044   1.899  16.147  12.326  0.0594 -0.0353 -0.0911
 5511W        W25045   9.839   2.484   3.492 -0.1179 -0.2639  0.0317
 5512W        W25046  13.545  13.573  11.407 -0.1893  0.0059 -0.0014
 5513W        W25047  12.191   1.302  12.445  0.2091 -0.4122  0.0555
 5514W        W25048   8.406   7.271   3.652 -0.0473 -0.0482 -0.2708
 5515W        W25049  13.238  10.635  10.382  0.1550  0.1261  0.0357
 5516W        W25050   8.836  11.669   1.163  0.1302 -0.2275  0.2994
 5517W        W25051  18.125  14.901   3.180 -0.2132  0.1036 -0.0375
 5518W        W25052  19.363  19.065   2.632  0.1709 -0.0301 -0.5116
 5519W        W25053  12.372   1.045   0.423  0.0954  0.2199 -0.0989
 5520W        W25054  17.657  10.833   2.746 -0.0228  0.1128 -0.0545
 5521W        W25055   0.386  12.919  13.780 -0.0099 -0.0756 -0.0475
 5522W        W25056   3.554  11.466  12.292 -0.0483  0.0800 -0.0692
 5523W        W25057   6.395  12.357  13.522  0.0373  0.0715  0.0534
 5524W        W25058   0.944   9.078   3.871  0.1504  0.0565 -0.1582
 5525W        W25059  13.554  11.983   9.909  0.1930  0.2602  0.3166
 5526W        W25060  16.774  19.464   4.900  0.1055  0.3951 -0.2345
 5527W        W25061  15.098   9.381  12.432 -0.0977  0.1292  0.0832
 5528W        W25062  12.886   3.407   0.249  0.0256 -0.1334  0.2102
 5529W        W25063   5.303  18.614   2.388  0.0462 -0.2138 -0.0464
 5530W        W25064  14.842   7.241   1.632  0.1650 -0.1598  0.0572
 5531W        W25065   6.550   9.224   1.943 -0.0602 -0.1650 -0.0971
 5532W        W25066   1.544   7.539  13.579 -0.1688 -0.0049 -0.1591
 5533W        W25067   4.556   3.752   1.467  0.3207 -0.0874  0.3301
 5534W        W25068  15.854   8.131   0.631  0.0161  0.2222  0.2455
 5535W        W25069   7.205  18.006   0.351 -0.2372 -0.0646 -0.2953
 5536W        W25070  17.723  12.625   9.958  0.1918  0.0804  0.0611
 5537W        W25071   7.099  11.126  13.252 -0.0418 -0.1924  0.1171
 5538W        W25072   1.256  13.002  14.268  0.1085 -0.0797 -0.0915
 5539W        W25073   4.380  14.301   1.410  0.0618  0.1594  0.1924
 5540W        W25074   6.995   1.027  13.703  0.2853 -0.3790 -0.0371
 5541W        W25075   0.933  13.048   3.365  0.0853 -0.1659  0.0041
 5542W        W25076   3.693  16.393   2.270 -0.2190 -0.0002 -0.0124
 5543W        W25077   7.978  12.423   3.555 -0.3244 -0.0401 -0.1589
 5544W        W25078  15.960   6.166   4.568  0.2418 -0.1961  0.0604
 5545W        W25079   9.458   9.682   1.151  0.4818 -0.2481 -0.2095
 5546W        W25080  12.512   3.043  11.999  0.1220 -0.4558  0.2511
 5547W        W25081   8.188  17.000   0.910  0.1135  0.0221 -0.1606
 5548W        W25082  17.109  11.029  13.646 -0.2234 -0.0394  0.0717
 5549W        W25083  16.938   9.984   3.470 -0.1732  0.1847 -0.0468
 5550W        W25084  15.544  16.414  10.973 -0.2812  0.1801  0.0089
 5551W        W25085  18.907   2.924  11.949 -0.1374 -0.1261  0.0567
 5552W        W25086   8.249   9.654  11.948 -0.1490  0.1070 -0.1534
 5553W        W25087  15.753   9.021   0.799  0.1501  0.0607 -0.0874
 5554W        W25088   6.321   8.152   1.575  0.1145 -0.1273  0.1497
 5555W        W25089  11.119   8.211  12.242  0.0726 -0.3388 -0.1157
 5556W        W25090  12.239  16.115  13.803 -0.0793 -0.1311  0.1151
 5557W        W25091   3.509   6.777  13.927  0.1496 -0.3746  0.4083
 5558W        W25092   0.721  11.621  12.593  0.1329 -0.0620 -0.2299
 5559W        W25093  18.611   8.627   1.353 -0.0866  0.0370  0.0683
 5560W        W25094  14.777  13.934   1.128  0.1566  0.1348  0.2094
 5561W        W25095  11.179  17.303  13.911  0.1427 -0.2379 -0.3506
 5562W        W25096  11.425  15.822  11.327 -0.0171  0.0378 -0.1224
 5563W        W25097   7.980  13.265  11.449 -0.1067  0.0931 -0.0367
 5564W        W25098  13.533   3.506  11.953  0.1051 -0.3003 -0.1180
 5565W        W25099  14.300  13.627  13.961 -0.0007  0.0781 -0.2577
 5566W        W25100  17.073  11.024   2.376 -0.0015  0.0857 -0.1201
 5567W        W25101  11.362  18.349   0.071  0.2251 -0.3520 -0.0947
 5568W        W25102   1.636   0.178  12.278  0.2163  0.0298 -0.3018
 5569W        W25103   6.208   6.375   0.684 -0.2719  0.1106 -0.0621
 5570W        W25104   2.701   4.126   4.202  0.1217  0.1689  0.3854
 5571W        W25105  11.644   4.940  10.457  0.0774 -0.1443 -0.2305
 5572W        W25106  13.325  10.117   3.177  0.1554  0.1358  0.1553
 5573W        W25107  18.155   8.101   2.535  0.3138  0.1002 -0.0255
 5574W        W25108   8.323  18.209   0.102  0.0930 -0.0631 -0.1275
 5575W        W25109  16.322   6.456   3.202  0.1299 -0.3408  0.0545
 5576W        W25110  18.236   0.393  11.020 -0.1004  0.0694 -0.0365
 5577W        W25111  18.693  12.238  13.893  0.1508 -0.2173  0.0365
 5578W        W25112  18.149  13.335   1.368  0.3383 -0.0633 -0.0452
 5579W        W25113   5.401  16.542   3.027 -0.2699 -0.1009 -0.3644
 5580W        W25114   0.330  15.199  11.257  0.0076 -0.1208 -0.2929
 5581W        W25115  19.427   7.037   3.883 -0.2868 -0.1454 -0.3093
 5582W        W25116   0.803  15.681  14.029  0.2521  0.1739  0.1438
 5583W        W25117   0.758   4.468   2.622  0.0298  0.1226 -0.1401
 5584W        W25118  12.770  12.545  11.220  0.1060  0.0892  0.2236
 5585W        W25119   8.346   6.964  12.103  0.1118  0.2400 -0.2045
 5586W        W25120  14.633   6.018  11.612  0.2672  0.1230  0.2527
 5587W        W25121  13.303  11.241   3.738 -0.1819 -0.0662 -0.3036
 5588W        W25122  13.471  14.442  12.446 -0.0922  0.0705 -0.2739
 5589W        W25123   1.849  13.613  11.957  0.2885  0.0290  0.0550
 5590W        W25124  15.714   7.872   3.389 -0.4728 -0.1301  0.1356
 5591W        W25125  12.090   3.675   1.444  0.1152  0.0723 -0.1432
 5592W        W25126   6.380   4.400   3.607 -0.0905 -0.3234 -0.0823
 5593W        W25127  15.587  16.372  12.124 -0.1474 -0.1530 -0.0536
 5594W        W25128   0.903  13.231   1.647 -0.0472  0.0818  0.3147
 5595W        W25129   5.350  17.842  11.688  0.1586  0.0075  0.0240
 5596W        W25130   4.261   4.504  11.212 -0.0733 -0.2507 -0.1963
 5597W        W25131   9.961  18.135   3.485  0.1123  0.0901 -0.2251
 5598W        W25132  15.609   6.268   2.548 -0.1509 -0.0358 -0.0126
 5599W        W25133   7.872   9.324   3.713  0.6803 -0.1131  0.0512
 5600W        W25134   5.924   6.215   4.992  0.1402 -0.0501 -0.0059
 5601W        W25135   3.819   7.867   0.185 -0.2700 -0.0246  0.3577
 5602W        W25136  14.418   0.198   0.650  0.0612 -0.0299 -0.0146
 5603W        W25137  14.356   6.987  13.729  0.0748  0.0093  0.0914
 5604W        W25138  16.051  12.934   2.550  0.2746  0.0169  0.0415
 5605W        W25139  15.938   4.354   0.491  0.1080 -0.0712 -0.1518
 5606W        W25140  13.174   6.372  12.581  0.2466 -0.2785  0.2337
 5607W        W25141   6.071  15.809  12.065  0.1224 -0.2726  0.1813
 5608W        W25142  15.465  15.468  11.264 -0.1311 -0.3169 -0.1022
 5609W        W25143  16.873  12.260   1.995  0.1470 -0.0054  0.1834
 5610W        W25144   5.600  10.035   3.536  0.1236 -0.1387 -0.2415
 5611W        W25145  14.460   3.765  11.974  0.1552  0.0334  0.0015
 5612W        W25146  12.233   7.262  14.037 -0.0359  0.0963 -0.0465
 5613W        W25147   5.754  17.910  10.657 -0.1109 -0.0218 -0.0801
 5614W        W25148  12.521  14.748  11.754 -0.2185 -0.1547  0.1460
 5615W        W25149   8.986  10.409   5.096 -0.1059 -0.3125 -0.3191
 5616W        W25150  14.176  16.748  13.874 -0.3051 -0.0683 -0.0953
 5617W        W25151  10.184  13.215   1.378 -0.0883  0.2315 -0.0304
 5618W        W25152   1.004  11.449   2.677 -0.2423 -0.1402 -0.2622
 5619W        W25153  11.275  17.310   1.014  0.0607 -0.1140  0.2147
 5620W        W25154   0.901   5.616   2.754  0.0522  0.6215  0.1818
 5621W        W25155  12.475  19.479   3.678  0.0134 -0.0857 -0.3661
 5622W        W25156   4.936  15.073  11.035 -0.3053 -0.1244 -0.0813
 5623W        W25157  12.381  12.570  12.144 -0.1573 -0.1861 -0.2059
 5624W        W25158   1.717   5.936   3.088  0.1878  0.1550 -0.0238
 5625W        W25159   0.234  10.199   3.944 -0.2447  0.0506  0.1387
 5626W        W25160  13.405   2.159   2.873 -0.1084 -0.0936 -0.0328
 5627W        W25161  13.070   7.086  11.735  0.1432 -0.1020  0.1280
 5628W        W25162  17.741   9.812   2.252 -0.1404  0.0544  0.1638
 5629W        W25163   0.056  12.867   0.719  0.1145  0.0808 -0.0156
 5630W        W25164   9.478   2.625  12.963 -0.1161 -0.0594  0.0363
 5631W        W25165  14.034  15.538  12.325  0.1235 -0.3073 -0.0658
 5632W        W25166   8.561   4.032   2.791  0.3220 -0.0250 -0.0159
 5633W        W25167   4.711   7.086  12.613  0.0770  0.0774 -0.3691
 5634W        W25168  16.648   2.997   3.124 -0.0040  0.1090 -0.0786
 5635W        W25169   3.259   1.889  10.723  0.0282 -0.0127  0.0462
 5636W        W25170   4.896   8.747   1.627  0.1594  0.1076 -0.1461
 5637W        W25171   4.776  15.989  14.082  0.1048  0.0826  0.2263
 5638W        W25172  15.531  11.478   1.887 -0.2629 -0.4573 -0.0930
 5639W        W25173  16.684  14.117  14.032 -0.1463  0.2060 -0.1586
 5640W        W25174   3.328   3.354   1.013 -0.3047 -0.0332  0.1956
 5641W        W25175   9.463   2.402   1.407  0.1470  0.0346 -0.0585
 5642W        W25176  15.322  11.065   0.207  0.3225  0.3049 -0.2701
 5643W        W25177  14.655   6.375  14.015 -0.2581  0.0187 -0.0558
 5644W        W25178  19.036   0.519   3.818  0.1264  0.0616  0.1151
 5645W        W25179   5.284   4.786   2.527 -0.0803  0.2577  0.1276
 5646W        W25180   4.301  15.975   0.906 -0.1136 -0.1966 -0.4763
 5647W        W25181   2.309  15.526   0.847 -0.0211  0.0059 -0.3823
 5648W        W25182  13.955  11.160   3.025 -0.0665  0.2411 -0.2928
 5649W        W25183   2.111   3.339  14.293 -0.2662  0.2492 -0.0303
 5650W        W25184   9.601   7.658  14.147  0.1213 -0.0233 -0.0787
 5651W        W25185  11.085   5.983  10.537 -0.2440 -0.2548 -0.0954
 5652W        W25186   0.676   5.447  10.763 -0.0562  0.1215 -0.0840
 5653W        W25187   1.575  12.017   1.943  0.0847 -0.1302 -0.0097
 5654W        W25188  18.380  17.836   9.594 -0.0545 -0.3961  0.1966
 5655W        W25189   3.838   9.567  12.349  0.4175 -0.2035  0.1989
 5656W        W25190   7.290  14.669  13.956 -0.1149  0.1911  0.1269
 5657W        W25191  18.246   5.407  13.077 -0.2932  0.0974  0.0516
 5658W        W25192  10.839   2.977  12.213  0.1747 -0.2099 -0.0168
 5659W        W25193  16.315  11.561   9.098 -0.0203  0.0724  0.1365
 5660W        W25194   0.188  17.240   1.436  0.2235  0.2100 -0.0828
 5661W        W25195  12.623   2.039  10.294 -0.0618 -0.1068  0.3691
 5662W        W25196   0.389   5.740  13.663 -0.0875  0.1392 -0.0793
 5663W        W25197  13.934   1.619   0.026  0.2873  0.2829 -0.2322
 5664W        W25198   3.954  14.578  10.150  0.3438 -0.4273  0.0398
 5665W        W25199  16.854   8.611  14.213 -0.0045  0.4969 -0.1264
 5666W        W25200  17.173  18.766  11.762  0.1393 -0.0127  0.0984
 5667W        W25201   3.448  11.956  12.116 -0.0154 -0.2596 -0.3542
 5668W        W25202  11.722   2.676   1.622  0.0255 -0.3735 -0.1154
 5669W        W25203   2.963  13.517  11.161  0.3018 -0.0619 -0.0359
 5670W        W25204   6.371   0.526  11.606  0.0252  0.2300 -0.4714
 5671W        W25205   4.766  16.009   0.698  0.0204 -0.2056 -0.2156
 5672W        W25206  15.550  14.732  12.241  0.2461  0.0506  0.2621
 5673W        W25207  16.254  14.741   9.910  0.1893 -0.4198 -0.2789
 5674W        W25208   7.364  12.727   1.347 -0.1788 -0.0234  0.0609
 5675W        W25209  15.539  10.965   9.939 -0.0936 -0.0738 -0.2178
 5676W        W25210  17.003   2.247  11.489  0.0755  0.2102  0.0686
 5677W        W25211  17.463  13.095  10.103 -0.0891  0.0349  0.0796
 5678W        W25212  10.715  12.550   1.141 -0.1087 -0.2359  0.1008
 5679W        W25213  15.695  16.994   4.455  0.2805  0.1262 -0.1517
 5680W        W25214   6.714  13.382   2.483  0.2359  0.0295  0.1662
 5681W        W25215  17.531   8.417  14.106  0.0086 -0.1447  0.1111
 5682W        W25216   8.771  14.841   0.385  0.0184 -0.0359 -0.1138
 5683W        W25217  17.367  15.569  10.348  0.4049 -0.0677 -0.2916
 5684W        W25218  14.377   1.175  11.525 -0.0954 -0.1832 -0.2618
 5685W        W25219   9.013   6.193  11.047  0.3399  0.1116  0.0936
 5686W        W25220   0.574   1.831  11.031 -0.0999  0.2185  0.0957
 5687W        W25221   7.419   4.573  13.305  0.1916 -0.3421 -0.0552
 5688W        W25222   0.822   9.606  11.852  0.1232 -0.1740  0.0831
 5689W        W25223  18.249  10.270  12.275 -0.0931  0.3337 -0.0418
 5690W        W25224  19.106   6.589   4.029  0.0844 -0.3208 -0.4493
 5691W        W25225   8.763   8.848   5.063  0.1836  0.0869  0.1380
 5692W        W25226   6.882  10.880  11.960 -0.0171  0.3039 -0.1255
 5693W        W25227   8.029  15.621   2.510  0.1389  0.4127 -0.0390
 5694W        W25228  10.516  12.545  13.450  0.0226 -0.0980  0.0764
 5695W        W25229   6.447   4.007   2.480 -0.0473 -0.0050  0.2847
 5696W        W25230   3.245   0.196  10.987 -0.0290  0.1116 -0.0021
 5697W        W25231   5.733   3.238   0.122  0.2747  0.1566  0.0116
 5698W        W25232  10.938   6.027  11.934 -0.1843  0.4360 -0.0071
 5699W        W25233  12.903  17.781   4.520  0.0695  0.0222  0.0095
 5700W        W25234   0.267  11.535  12.936 -0.0949 -0.4050 -0.4456
 5701W        W25235   9.288   7.220  12.021 -0.0583 -0.1516  0.1487
 5702W        W25236   9.837   1.199  12.556  0.0107  0.2886  0.2394
 5703W        W25237   1.945  10.697  13.842  0.1528  0.0710 -0.1165
 5704W        W25238   0.737   9.105   2.100  0.0725  0.1344  0.0033
 5705W        W25239   0.926   7.952  13.771 -0.0433  0.3211 -0.1509
 5706W        W25240  10.481   7.286  13.255 -0.2420  0.1517 -0.0297
 5707W        W25241   8.672   1.777  13.724  0.0688  0.0043 -0.2838
 5708W        W25242  14.504   1.956  11.791 -0.0076 -0.0301 -0.0401
 5709W        W25243  17.767   4.637  12.737 -0.0375  0.0376  0.3313
 5710W        W25244  15.635  10.649  12.467  0.1200  0.0707  0.0369
 5711W        W25245   1.565   8.047   0.576 -0.0027 -0.0170 -0.0167
 5712W        W25246   3.756  18.080  11.992  0.1684 -0.1044  0.0638
 5713W        W25247  16.256  19.242   3.130 -0.1031  0.0056  0.1613
 5714W        W25248  15.160  19.288   4.046 -0.2898 -0.0086  0.0010
 5715W        W25249  18.170   3.414   0.913 -0.0118  0.1215  0.2938
 5716W        W25250   5.484  11.690  13.496  0.2677 -0.0235  0.3203
 5717W        W25251  18.132   1.200  13.594  0.0968  0.2590 -0.0828
 5718W        W25252   0.382   3.537   0.892  0.0644  0.0344 -0.0079
 5719W        W25253   1.380   5.144   3.754 -0.0862  0.1242 -0.2276
 5720W        W25254   8.869  12.257   0.237 -0.0001 -0.0942  0.2839
 5721W        W25255  15.224  12.242  11.522  0.2272 -0.3775  0.0719
 5722W        W25256   2.439   8.008   0.382 -0.2881 -0.0246  0.0437
 5723W        W25257  18.266  14.737   2.611  0.0782  0.3735  0.0310
 5724W        W25258  14.285   1.689  14.017 -0.1769  0.0201  0.2941
 5725W        W25259  11.733   9.567   1.526  0.0722  0.1906  0.1557
 5726W        W25260   8.665  12.645  11.622 -0.0307 -0.1410 -0.1030
 5727W        W25261  14.912   3.550   3.765  0.2106 -0.0336 -0.1361
 5728W        W25262  12.015  12.614   1.592  0.2706 -0.1852  0.3553
 5729W        W25263  16.332   3.545  11.630 -0.1001 -0.1501 -0.1106
 5730W        W25264  13.551   7.657   1.202  0.1636  0.2238 -0.2743
 5731W        W25265  17.301  13.034   1.842  0.1841  0.2641 -0.0540
 5732W        W25266   0.631  10.500  12.891 -0.0536 -0.1392  0.1512
 5733W        W25267   4.846  15.347   2.949 -0.4487  0.1071  0.0156
 5734W        W25268  17.933   4.988  12.448 -0.0188 -0.0301 -0.1716
 5735W        W25269  17.863  15.371  12.341  0.0472 -0.2536 -0.2593
 5736W        W25270  12.222  17.496  12.906  0.1398 -0.1854 -0.1631
 5737W        W25271   8.023   2.803   0.222  0.0388  0.1242 -0.0167
 5738W        W25272  16.896  12.410   0.102 -0.1374  0.1715  0.0050
 5739W        W25273  18.970   8.656  11.662  0.0158  0.0990 -0.2106
 5740W        W25274  16.795   7.411   9.361 -0.0528 -0.1671 -0.1889
 5741W        W25275   3.013   9.269   3.903  0.2013  0.0738 -0.0426
 5742W        W25276   8.606   1.572  12.922  0.0725 -0.0639  0.3901
 5743W        W25277   0.214   5.962  14.073 -0.0541 -0.0820 -0.0312
 5744W        W25278   7.959  14.413   0.954  0.2470  0.0668  0.0436
 5745W        W25279  13.585   2.857   2.443  0.2908  0.0964 -0.0230
 5746W        W25280  13.400  17.720  12.319 -0.0245  0.0670  0.0331
 5747W        W25281  12.900   2.108   2.258 -0.1827 -0.1820 -0.1312
 5748W        W25282  15.815   1.176   0.297  0.0058  0.3883 -0.0255
 5749W        W25283  17.166   8.528   1.088 -0.0496 -0.0990  0.3615
 5750W        W25284   5.217   7.248  11.730 -0.3679  0.0343  0.0283
 5751W        W25285   9.562  19.358  13.928  0.0932 -0.3487  0.1259
 5752W        W25286   8.248   5.754  14.220  0.1926 -0.1638 -0.1565
 5753W        W25287  15.921   0.827   1.692 -0.1510  0.1938 -0.1863
 5754W        W25288   3.777  12.097  11.315  0.2868 -0.2280  0.0392
 5755W        W25289  14.136  14.701  10.336  0.0250  0.1404  0.1508
 5756W        W25290   7.918   6.584   1.992  0.0479  0.2790 -0.2662
 5757W        W25291   7.339   5.392   2.557  0.0621 -0.0765 -0.1799
 5758W        W25292   0.463  14.385   0.008 -0.1073  0.0467 -0.1203
 5759W        W25293   1.308   3.909  11.246  0.1138 -0.4295 -0.1398
 5760W        W25294   2.953  18.713   2.548 -0.1144  0.1233 -0.2387
 5761W        W25295  19.366  10.277   2.954  0.0704 -0.1436 -0.1013
 5762W        W25296   4.284   2.405   4.123  0.0524 -0.2157 -0.0655
 5763W        W25297  12.000   7.962  10.439  0.0599  0.0415 -0.2101
 5764W        W25298  15.758   8.133  11.258 -0.0134 -0.1576 -0.2048
 5765W        W25299  16.558   4.998  10.578 -0.0373  0.4413 -0.1726
 5766W        W25300  13.660   5.379   1.261 -0.0439 -0.1120 -0.0982
 5767W        W25301   6.827   3.325  11.154 -0.1538 -0.1949 -0.0720
 5768W        W25302   4.637  13.692  13.358 -0.0550 -0.0673 -0.0682
 5769W        W25303   0.507   0.073  11.490  0.2009 -0.0497  0.1345
 5770W        W25304  17.743  18.849   1.025  0.0825 -0.1670 -0.0187
 5771W        W25305  10.542   7.383  12.283 -0.1117 -0.3037  0.2175
 5772W        W25306  19.191   5.472   4.343  0.0440 -0.1771 -0.1245
 5773W        W25307  16.563  18.628   0.212  0.1470 -0.0608  0.0199
 5774W        W25308   5.460   1.235  13.034  0.0236  0.0952  0.0152
 5775W        W25309   5.649  17.111   4.155 -0.0710 -0.2814 -0.0558
 5776W        W25310  10.571  10.673   1.556 -0.0961  0.4446  0.1977
 5777W        W25311   4.442   7.719   9.564 -0.2591  0.3753 -0.1892
 5778W        W25312  15.657  17.044   3.462 -0.0237  0.2407  0.5417
 5779W        W25313   0.290  12.294  10.221  0.0657  0.0819  0.2601
 5780W        W25314  16.859  12.042  13.774  0.1922  0.1796 -0.0200
 5781W        W25315  15.513  11.017   0.926  0.0585  0.1418 -0.1847
 5782W        W25316  10.400  13.707   0.714  0.1876 -0.1975  0.0924
 5783W        W25317  14.973  11.703  10.104 -0.3894 -0.2982  0.2800
 5784W        W25318   1.237   2.479  11.249  0.0040  0.0624 -0.1419
 5785W        W25319  12.415  15.989  11.493 -0.0133  0.0061  0.2013
 5786W        W25320   1.246   1.180  11.326 -0.1954 -0.2271 -0.1312
 5787W        W25321   0.950  13.749   1.479 -0.0715 -0.0400 -0.1873
 5788W        W25322   6.030   1.881  12.343  0.0804  0.0110  0.1895
 5789W        W25323   8.681   4.206   1.639 -0.0319  0.0380 -0.0926
 5790W        W25324   6.593  11.554   3.341  0.1295 -0.1260  0.3393
 5791W        W25325  13.362   7.385  14.088 -0.4098  0.1791 -0.2290
 5792W        W25326  17.045   9.994   0.865 -0.0424 -0.2150  0.0380
 5793W        W25327   5.089   5.765   3.761  0.1768 -0.0298 -0.4183
 5794W        W25328   8.751   0.487  13.027 -0.0058 -0.1711  0.0833
 5795W        W25329   1.172  16.953  14.278  0.3174 -0.0762  0.2696
 5796W        W25330  14.456   3.257  12.890 -0.3533 -0.3029 -0.0313
 5797W        W25331   7.980  17.242   0.335  0.0857 -0.1362  0.1324
 5798W        W25332   9.784  10.391  12.971 -0.0164 -0.4431 -0.2304
 5799W        W25333   0.173   9.007   4.352 -0.3990  0.0855 -0.0991
 5800W        W25334  17.468  10.568  12.078  0.4647  0.0615  0.0859
 5801W        W25335   9.814  11.269  11.148 -0.1854  0.0338  0.0590
 5802W        W25336  15.765  14.668   2.498 -0.2971 -0.1587 -0.1243
 5803W        W25337   3.773   8.202   4.223  0.0151  0.4207  0.1008
 5804W        W25338  18.948   7.109   3.860  0.2272 -0.4402 -0.1367
 5805W        W25339   5.889  15.332  10.806 -0.0001 -0.1348 -0.0431
 5806W        W25340   1.073  17.558  11.195  0.0526  0.2170 -0.0627
 5807W        W25341  18.047  13.402   0.462 -0.1762 -0.3604 -0.0439
 5808W        W25342  18.126  11.479  13.963  0.1829 -0.0358  0.1713
 5809W        W25343  19.508   0.079  11.296  0.0826 -0.0053 -0.1987
 5810W        W25344  16.321   9.201  11.773  0.0112  0.0934  0.2457
 5811W        W25345  11.967  17.668   4.589 -0.0108  0.2143  0.0900
 5812W        W25346   4.174  14.194   2.884 -0.0134  0.1365  0.1024
 5813W        W25347   7.566   1.472  10.758 -0.1459 -0.0957 -0.0465
 5814W        W25348  15.353  16.706   9.712 -0.1355 -0.1711  0.4348
 5815W        W25349  14.327  13.984   0.107  0.3282  0.2243  0.0556
 5816W        W25350  11.609   6.226   1.580  0.0454 -0.2121  0.1226
 5817W        W25351   3.642  12.406  12.295 -0.1276  0.1927  0.1700
 5818W        W25352  15.441  17.407  11.200 -0.0158 -0.1151  0.0207
 5819W        W25353   2.650  19.152  11.162  0.1880  0.0656  0.1400
 5820W        W25354  10.370  16.989   0.824  0.2119  0.0711  0.2426
 5821W        W25355  15.878   4.754  10.826 -0.1538  0.2578  0.0723
 5822W        W25356  17.380   3.971   0.870 -0.1001  0.1894  0.0037
 5823W        W25357   7.865  18.078  13.610  0.1410  0.1227 -0.1878
 5824W        W25358  15.519  18.537   3.737 -0.1338 -0.4949  0.0212
 5825W        W25359   6.465   9.181  12.269  0.1226 -0.3674  0.1476
 5826W        W25360   6.402   5.806   0.642 -0.0172  0.1053 -0.0505
 5827W        W25361   1.054   8.298   0.623 -0.3608  0.1671  0.1056
 5828W        W25362  16.288  10.233  12.838  0.3922 -0.3901  0.2238
 5829W        W25363  10.406   2.600   3.611  0.0658  0.2455 -0.1326
 5830W        W25364   7.330   5.278   1.649  0.0958 -0.0520  0.0978
 5831W        W25365   3.013   6.436  12.956  0.0192  0.1979  0.2531
 5832W        W25366   7.311   9.640   1.677  0.0565  0.0223 -0.0160
 5833W        W25367  10.572  15.470  11.268  0.1816  0.3102  0.0282
 5834W        W25368   4.316  16.038   4.414 -0.1295  0.0524 -0.2003
 5835W        W25369   2.053  10.277  11.938 -0.1826 -0.2015  0.0544
 5836W        W25370   8.285   2.505  11.933  0.0394  0.1313  0.0404
 5837W        W25371   5.705   9.709   0.391 -0.0886  0.3113  0.0168
 5838W        W25372   1.075  19.429  14.112  0.1470 -0.0367 -0.0101
 5839W        W25373   6.518   2.175  12.536  0.2102 -0.2429  0.0898
 5840W        W25374   4.302  18.015  12.112  0.2598 -0.5487  0.0460
 5841W        W25375  13.882   5.330   9.355  0.1206 -0.2178  0.0321
 5842W        W25376  13.949  11.988  13.065 -0.0951  0.4304 -0.0800
 5843W        W25377   7.388   6.925  13.569  0.0464 -0.5353 -0.3841
 5844W        W25378  14.706  17.142  13.513  0.2823  0.1155  0.1211
 5845W        W25379  15.452  18.723   0.325 -0.0896  0.1962  0.1741
 5846W        W25380   1.542   2.379   1.032  0.2035 -0.2603  0.1536
 5847W        W25381  15.139   3.956   9.648  0.1329  0.0959  0.0695
 5848W        W25382   0.345   7.992   2.664  0.1947 -0.3623  0.0068
 5849W        W25383  11.273   3.420   0.644 -0.4165  0.3050  0.1555
 5850W        W25384  17.284   2.021  12.974 -0.0211 -0.2686 -0.3670
 5851W        W25385   4.565   9.733  11.522  0.3015  0.2081 -0.0381
 5852W        W25386   9.704   5.623  11.534 -0.0872 -0.1069  0.2424
 5853W        W25387   7.526   6.494  13.820 -0.1155 -0.3346 -0.3042
 5854W        W25388  11.835   4.588  11.450 -0.1697  0.1551 -0.1964
 5855W        W25389  11.686   3.140  13.217 -0.1584 -0.4439  0.2357
 5856W        W25390  13.529   6.137  11.276  0.4650  0.1071 -0.2396
 5857W        W25391  13.737   8.939   4.020  0.0789  0.2733  0.0417
 5858W        W25392   3.816  19.132   3.773  0.3128  0.0061  0.1170
 5859W        W25393   3.761  12.359   0.503 -0.0874  0.2778  0.3515
 5860W        W25394  11.433  17.359  12.954  0.1421 -0.0528  0.0310
 5861W        W25395   6.002  12.302  12.983 -0.0399 -0.2626 -0.0470
 5862W        W25396   5.624  16.228   0.292  0.1109 -0.1679  0.0258
 5863W        W25397   4.122  11.464   3.490  0.0570  0.0066  0.2230
 5864W        W25398   4.687   4.700  10.991 -0.0708  0.1917  0.1255
 5865W        W25399   4.358   9.498   1.520  0.1065 -0.2397  0.1629
 5866W        W25400   5.225  18.123  10.507  0.1270 -0.1801  0.2873
 5867W        W25401   5.586   5.209  10.675  0.2917  0.1163  0.1218
 5868W        W25402   0.451   5.131   0.462  0.2088 -0.1067 -0.0649
 5869W        W25403   9.386  19.283   1.799  0.1421 -0.3394 -0.1288
 5870W        W25404   8.784   9.872  12.615 -0.1625  0.2226 -0.1401
 5871W        W25405  12.292  13.409   0.526  0.1326  0.0563 -0.1876
 5872W        W25406  17.415   0.204   0.943 -0.2234 -0.2050  0.0863
 5873W        W25407  10.242  17.435   3.861  0.2301  0.1846  0.2080
 5874W        W25408  17.399  18.634   1.336  0.1539  0.2245  0.2123
 5875W        W25409   2.780   0.375   2.265  0.4464 -0.1457  0.0627
 5876W        W25410  11.007  18.714   2.175  0.0638  0.0781  0.1086
 5877W        W25411   2.028   9.512  10.766 -0.1275  0.0893  0.4613
 5878W        W25412  14.592  10.448   3.293  0.0660 -0.0388  0.1523
 5879W        W25413   9.674   5.448  13.016  0.0366 -0.1432 -0.4278
 5880W        W25414   7.880  12.714   1.401  0.2091  0.0376  0.1678
 5881W        W25415   7.336  17.744   1.997 -0.0972 -0.1569  0.2538
 5882W        W25416  16.577  16.569  10.557  0.1311  0.1663 -0.1156
 5883W        W25417  14.797  12.640  13.547  0.2252  0.0824 -0.2659
 5884W        W25418  18.235   7.407   3.537  0.1388  0.2171 -0.1468
 5885W        W25419  16.553   8.804   3.671 -0.0457 -0.0551  0.2257
 5886W        W25420   8.831   5.178  13.728  0.0710 -0.2051 -0.1313
 5887W        W25421   2.105   4.140   0.161 -0.4299  0.0518 -0.0106
 5888W        W25422  19.190  10.392   3.935 -0.1028 -0.0824  0.1911
 5889W        W25423   0.128   3.992  11.061  0.2555 -0.2332  0.3070
 5890W        W25424  15.379   4.471  10.937  0.1181 -0.0900 -0.1448
 5891W        W25425  11.419  18.680  12.034 -0.0958 -0.3331 -0.2233
 5892W        W25426   6.407  18.734   0.387 -0.0622 -0.1816 -0.0560
 5893W        W25427  19.160  18.112  14.302 -0.0244  0.0855  0.1284
 5894W        W25428  19.165  13.588  11.635  0.0866  0.0410 -0.0375
 5895W        W25429  18.852  11.119   1.075 -0.2660 -0.0332 -0.0133
 5896W        W25430  15.847  14.450   0.808  0.2982  0.1470 -0.1910
 5897W        W25431   2.547   0.058   2.587  0.3335 -0.0521 -0.1009
 5898W        W25432   7.376  11.550  11.565 -0.0658 -0.1138  0.0336
 5899W        W25433  12.887   1.810  12.737  0.2193  0.2840  0.2562
 5900W        W25434  11.532   3.324  13.640  0.1490 -0.1067 -0.1518
 5901W        W25435   3.039   1.179   2.622 -0.4028  0.1289 -0.0198
 5902W        W25436   5.261   4.584  12.484  0.3528  0.2682  0.2353
 5903W        W25437  16.052  14.009  13.267  0.1053 -0.5399 -0.2380
 5904W        W25438  15.276  10.369  10.445  0.3690  0.2273 -0.0231
 5905W        W25439  10.085   9.010   0.862  0.1285  0.0168 -0.0290
 5906W        W25440  10.605   9.784  11.578  0.0655 -0.0752 -0.2941
 5907W        W25441  12.922   4.286  11.026 -0.1365 -0.0058  0.1629
 5908W        W25442   1.128  14.568  13.907 -0.2525 -0.0201 -0.0484
 5909W        W25443   0.765  19.508   2.016 -0.1724  0.3207  0.1670
 5910W        W25444   8.533   1.085  11.499 -0.0838 -0.1583  0.4522
 5911W        W25445  15.713   6.249   1.349  0.0924  0.1597 -0.1250
 5912W        W25446   5.111   1.522  13.676  0.0963  0.2970  0.0180
 5913W        W25447  12.855  12.771  10.722  0.0172  0.2031  0.3434
 5914W        W25448  15.678  16.976  12.029 -0.1128 -0.1268  0.3306
 5915W        W25449  18.104  11.072   9.363  0.0501 -0.0974  0.3057
 5916W        W25450   9.618   1.651  12.809 -0.2214 -0.2368  0.1799
 5917W        W25451  14.437   7.604  11.302  0.0063 -0.0140 -0.0034
 5918W        W25452   1.417  16.256   4.045 -0.2080  0.1572  0.0463
 5919W        W25453  17.557  14.732   3.821 -0.2657 -0.0209  0.0232
 5920W        W25454  11.260  14.315  10.655  0.0063 -0.1037  0.2197
 5921W        W25455   3.309   9.144   3.452  0.1238  0.0126 -0.2105
 5922W        W25456  10.130  15.308  12.257  0.0862 -0.1139  0.0678
 5923W        W25457   5.996   7.752  12.028  0.1952 -0.2243 -0.0221
 5924W        W25458  12.911  18.234   3.513  0.0749  0.1083  0.2403
 5925W        W25459   4.127   1.438   4.356  0.0934  0.0238 -0.0152
 5926W        W25460  13.819  12.500   0.060  0.1414 -0.1001 -0.1259
 5927W        W25461   6.667  17.887   9.500  0.0702  0.0886 -0.0985
 5928W        W25462  13.134   8.027  11.754 -0.0566 -0.3464 -0.3427
 5929W        W25463   2.100   6.276   3.128  0.0401 -0.1327  0.1491
 5930W        W25464  16.389   0.529   1.767  0.2975 -0.0147  0.1407
 5931W        W25465  14.283  17.896   2.563 -0.0116 -0.1414 -0.1169
 5932W        W25466   7.952   7.517  12.273 -0.1769 -0.2017  0.0698
 5933W        W25467   7.461   4.844   2.589 -0.1363 -0.0514  0.1563
 5934W        W25468  15.956  18.826   2.978 -0.2289 -0.0510  0.0355
 5935W        W25469   8.415  16.838  12.839 -0.4205  0.2766 -0.2815
 5936W        W25470   9.038  11.209   2.159  0.0275  0.0184  0.0667
 5937W        W25471  18.410   4.674   2.532 -0.0371 -0.0906  0.1533
 5938W        W25472   6.491   4.589   2.378 -0.0235  0.1936 -0.2123
 5939W        W25473   6.301   8.156  11.150 -0.3307 -0.0026  0.0724
 5940W        W25474   3.891   4.512   1.650  0.2248 -0.1189 -0.2244
 5941W        W25475   3.268  11.042  12.044  0.0560 -0.0634 -0.2338
 5942W        W25476  14.561   5.219  12.029  0.1637  0.1395  0.2154
 5943W        W25477   4.526  12.755  11.929 -0.0905  0.2013  0.3134
 5944W        W25478  14.017   7.613  12.200  0.1642 -0.3597 -0.0177
 5945W        W25479  14.103   7.145   9.705  0.1255  0.1221 -0.1381
 5946W        W25480  15.534   7.149  14.079 -0.1235  0.2192 -0.2503
 5947W        W25481   4.542  18.075   3.764 -0.2689 -0.0791 -0.1209
 5948W        W25482   5.465   1.891  13.969  0.0247  0.2446  0.0628
 5949W        W25483   6.481  12.195   3.671 -0.1806 -0.0616 -0.0042
 5950W        W25484   0.391   9.102  13.550 -0.5577 -0.0378  0.2083
 5951W        W25485   9.845   6.345  12.889  0.0854  0.1266  0.1606
 5952W        W25486  13.693   5.099  12.010  0.1636  0.3411 -0.4193
 5953W        W25487   3.176  16.501  13.202 -0.3746 -0.1144 -0.1033
 5954W        W25488  11.133  14.211   1.187 -0.1377 -0.1286 -0.2804
 5955W        W25489   1.123   7.247  11.433  0.1717 -0.0659 -0.2223
 5956W        W25490  13.594   6.568  13.683  0.1426 -0.3330  0.2493
 5957W        W25491   8.290  13.816   4.350  0.1465 -0.2351 -0.1789
 5958W        W25492  16.162   3.578  10.634  0.2483  0.0359  0.1890
 5959W        W25493  19.225  11.520  10.964  0.1741 -0.0853  0.4179
 5960W        W25494  13.972   0.913  11.369  0.1745  0.0591 -0.0001
 5961W        W25495  10.275   4.835  13.362 -0.0250  0.1407  0.1100
 5962W        W25496  11.053   0.452   2.972  0.0929  0.4851  0.1761
 5963W        W25497   9.378  11.564  13.566 -0.0370  0.1610 -0.1318
 5964W        W25498   6.148  18.821  13.123  0.0450 -0.0766 -0.2773
 5965W        W25499  16.652  18.942  11.042  0.1545 -0.3672  0.0720
 5966W        W25500  18.413  14.258   1.670  0.4358 -0.1527  0.3320
 5967W        W25501  13.851  15.022   3.208  0.0334  0.0550 -0.0363
 5968W        W25502  18.263   4.848   4.449 -0.3335 -0.0616 -0.4950
 5969W        W25503   8.415   3.760   2.397 -0.1039  0.2727  0.4211
 5970W        W25504   3.921  10.443  11.155  0.3629  0.3039 -0.0904
 5971W        W25505   7.827  13.968  12.208  0.0022  0.1711 -0.0484
 5972W        W25506   7.398   8.103   0.604  0.1979  0.4073  0.1550
 5973W        W25507  16.046   6.450   0.100  0.0923 -0.0132 -0.2424
 5974W        W25508  16.321  15.748  12.039 -0.0640  0.0456  0.2645
 5975W        W25509  19.226  11.702  13.242 -0.1899  0.2716 -0.0649
 5976W        W25510   3.278   6.441   3.700 -0.0092  0.1660 -0.1630
 5977W        W25511   9.605  10.089  11.675 -0.1287 -0.0039  0.4601
 5978W        W25512  10.410  10.375   3.035 -0.2482 -0.0364  0.0731
 5979W        W25513   7.289   9.863   0.181 -0.2148  0.2274  0.4131
 5980W        W25514   3.749  17.560   3.007  0.0817 -0.1567  0.1152
 5981W        W25515  14.564  10.868   0.543 -0.0622 -0.0401 -0.0435
 5982W        W25516   9.258   4.274   2.943 -0.0903  0.0302 -0.1690
 5983W        W25517   6.343   9.389  11.181  0.1121  0.2107  0.0708
 5984W        W25518  17.142  12.476   4.719 -0.0618 -0.1707 -0.2847
 5985W        W25519   3.492  16.936  10.742 -0.0009 -0.0001  0.0836
 5986W        W25520   2.634  14.197   2.596 -0.2739  0.0284 -0.0283
 5987W        W25521   4.264  10.970   3.069 -0.1758  0.3186 -0.0928
 5988W        W25522  11.427   3.372  10.285  0.0641 -0.2757  0.4062
 5989W        W25523   7.945  17.396   4.094  0.0141 -0.0466  0.1084
 5990W        W25524   9.653  15.290   3.403 -0.1275 -0.1744  0.2964
 5991W        W25525   1.545  11.914  13.754  0.3576 -0.5265 -0.1538
 5992W        W25526   3.259   1.824   3.131 -0.1266  0.2145  0.0964
 5993W        W25527   7.164   7.765  11.381 -0.0988  0.0243  0.0330
 5994W        W25528  11.414  17.778   1.215 -0.0101  0.0428  0.1712
 5995W        W25529  10.869  18.651   1.619 -0.0825 -0.0323  0.0269
 5996W        W25530   6.509   4.421   1.396 -0.2203 -0.0187 -0.1843
 5997W        W25531  11.008   2.918   0.586  0.1927  0.0258 -0.3418
 5998W        W25532   2.132  16.666   3.033  0.0388 -0.1101 -0.1904
 5999W        W25533   3.348   6.274  13.878 -0.1852  0.1720  0.0810
 6000W        W25534  10.266  16.292   0.578 -0.2027  0.2944 -0.0682
 6001W        W25535   4.845  13.620   2.621 -0.3121 -0.0397 -0.2601
 6002W        W25536  14.348   3.404  13.504 -0.1584  0.3041 -0.3538
 6003W        W25537  16.261  17.154  12.146 -0.0863 -0.1600 -0.0718
 6004W        W25538  17.649  17.588   3.774  0.1536  0.1146  0.0561
 6005W        W25539  15.411   0.154   5.147  0.0002 -0.3412 -0.0054
 6006W        W25540   9.380   2.895   2.711 -0.2112 -0.1184 -0.1138
 6007W        W25541  16.488  13.688   3.888 -0.1537 -0.0685 -0.0663
 6008W        W25542  19.448  18.907   0.984 -0.0042 -0.0443 -0.1456
 6009W        W25543   3.726   1.635   0.523 -0.3469 -0.2574  0.0640
 6010W        W25544  15.964  10.206   3.356 -0.2548  0.1668 -0.0242
 6011W        W25545   6.997  10.111  10.767  0.0784 -0.0071 -0.3845
 6012W        W25546  11.399   6.530   3.918 -0.1646 -0.0019  0.0256
 6013W        W25547   1.369  18.364   0.001  0.3654  0.0021 -0.1364
 6014W        W25548   7.407   9.957  13.700 -0.2566 -0.1442 -0.0793
 6015W        W25549  14.758  17.563  11.946  0.1025  0.0591 -0.2085
 6016W        W25550   8.231  16.768   0.175  0.1197 -0.3513  0.1519
 6017W        W25551  11.245   3.272   1.497 -0.1167 -0.0650 -0.0161
 6018W        W25552  10.261   9.543  11.213 -0.0476  0.0526 -0.0220
 6019W        W25553  17.370   2.243   1.853 -0.0554 -0.1710  0.1981
 6020W        W25554  17.225   4.162   3.959  0.0524  0.2152 -0.1519
 6021W        W25555   1.178  11.081   0.661 -0.0828 -0.3970  0.0774
 6022W        W25556   3.704  14.493   3.708  0.0612 -0.1754  0.1774
 6023W        W25557   1.923   5.924   3.587  0.2216 -0.1147 -0.0111
 6024W        W25558   6.327  12.741   1.360  0.2105  0.3060  0.1091
 6025W        W25559  14.983  14.364  13.701 -0.1441 -0.0226  0.0028
 6026W        W25560   2.059   2.723  12.753 -0.0724 -0.2268  0.2442
 6027W        W25561   4.564   1.608   2.834 -0.1363  0.1192 -0.1399
 6028W        W25562   2.489   6.393  12.890  0.0908  0.1297 -0.0211
 6029W        W25563  14.804   9.596  11.051  0.3457  0.0464  0.1042
 6030W        W25564  19.348   1.344  13.113 -0.2912  0.0964 -0.4873
 6031W        W25565   2.775  11.659   1.865  0.1814 -0.2082 -0.2685
 6032W        W25566   6.283  14.500   1.362  0.3625 -0.0935  0.4500
 6033W        W25567   9.809   5.897  13.392 -0.3888  0.4101  0.2493
 6034W        W25568  11.267  10.046   3.028 -0.0804  0.0009  0.1286
 6035W        W25569  12.919  11.517  13.444 -0.2634  0.0569  0.2495
 6036W        W25570  17.724   0.879   0.155  0.0348 -0.0115 -0.0643
 6037W        W25571  16.454   3.521  11.118 -0.0432  0.1424 -0.1333
 6038W        W25572  14.248   2.659  13.825  0.2672  0.2381 -0.0859
 6039W        W25573   7.473  13.511   1.741 -0.1695 -0.0477 -0.1626
 6040W        W25574   9.380  19.332  10.425  0.2709  0.0524 -0.3073
 6041W        W25575   5.445   6.865   1.801 -0.1724 -0.0031 -0.2636
 6042W        W25576  16.023  11.297  12.111  0.1076  0.1024  0.1619
 6043W        W25577   7.978  14.466   2.709 -0.0384  0.3962 -0.1274
 6044W        W25578   0.795  16.475   0.547 -0.1241  0.0884 -0.0909
 6045W        W25579  13.343  14.652   2.486  0.0942 -0.1739 -0.1911
 6046W        W25580   4.248  10.911  11.793 -0.0275 -0.1672  0.0045
 6047W        W25581   8.573   9.492   2.463 -0.2759  0.1181  0.1445
 6048W        W25582  13.771   5.607  13.657  0.1804 -0.1270 -0.1451
 6049W        W25583   9.436   9.229  12.293 -0.0534 -0.1531  0.4304
 6050W        W25584  10.236  12.635   0.034  0.0144  0.0048 -0.1124
 6051W        W25585   5.311  15.415  11.986  0.2016  0.0630  0.2617
 6052W        W25586  18.768  11.776  14.006  0.3393  0.0489  0.1808
 6053W        W25587  17.150   2.270   3.762  0.0887  0.1045  0.1225
 6054W        W25588   1.175  18.490  11.762 -0.1120  0.1835  0.0034
 6055W        W25589   7.848  13.068  10.944 -0.0351  0.0976 -0.0144
 6056W        W25590   6.037   6.840  12.298  0.0398  0.2829 -0.0466
 6057W        W25591   1.697   8.418  10.977 -0.0862 -0.1488  0.1906
 6058W        W25592   9.944   3.075  11.615 -0.1629  0.0859  0.2612
 6059W        W25593   2.064   1.500   2.842  0.0451  0.1734 -0.1616
 6060W        W25594   0.426  19.160  12.220  0.0281 -0.0678  0.0736
 6061W        W25595  18.079   8.682   4.754 -0.0042  0.1362  0.1536
 6062W        W25596  11.230  16.153   2.737 -0.0316 -0.3190 -0.4800
 6063W        W25597   2.121   1.954   2.293  0.1002 -0.1668 -0.2632
 6064W        W25598   1.182   5.311   3.150  0.0219 -0.0634  0.3398
 6065W        W25599   2.488  15.621   2.298 -0.1039  0.0030 -0.3240
 6066W        W25600  11.415   4.178  10.748 -0.1709 -0.1048  0.2788
 6067W        W25601  15.013   1.785  11.653  0.1181 -0.0107 -0.0336
 6068W        W25602   8.676  16.490   3.255  0.2256 -0.1226 -0.3090
 6069W        W25603   9.098  16.791   4.423 -0.2366 -0.0453 -0.1761
 6070W        W25604   4.903  13.105  11.588  0.0141  0.0092 -0.2006
 6071W        W25605   1.482   2.920   3.552  0.2300  0.3681  0.1186
 6072W        W25606  16.327  15.346  12.346 -0.0578 -0.0864 -0.2932
 6073W        W25607  16.794   5.351   0.613 -0.1466  0.1047 -0.0126
 6074W        W25608   3.123  19.421  13.747 -0.1346  0.0724 -0.2261
 6075W        W25609  14.025   2.450   0.888 -0.0880 -0.1160  0.3097
 6076W        W25610  18.196   1.708  10.593 -0.0100 -0.4479 -0.1160
 6077W        W25611  15.660  14.010   1.566  0.1223  0.3547  0.0869
 6078W        W25612   9.895  16.118   0.014  0.0093 -0.1043 -0.0642
 6079W        W25613  12.173   5.559  11.795  0.2720  0.0234 -0.2336
 6080W        W25614  17.449   5.701  10.895 -0.1770  0.1903  0.2015
 6081W        W25615  18.182  14.893  14.276  0.1962  0.2690  0.0343
 6082W        W25616   4.913  18.131  10.998  0.0190  0.1927  0.1083
 6083W        W25617   0.035  16.378  14.293  0.1907  0.0806  0.2785
 6084W        W25618  15.994   5.288  10.456 -0.2107  0.0080  0.1690
 6085W        W25619  16.852  14.476  10.334 -0.0713 -0.1595  0.0318
 6086W        W25620   7.901   3.899  11.807  0.0259 -0.0348 -0.1044
 6087W        W25621  13.578   3.522  10.793  0.1295  0.3226  0.0438
 6088W        W25622  19.005   7.150   2.962 -0.1449  0.0364  0.3121
 6089W        W25623  15.270  18.335   0.697  0.1128 -0.1140  0.1477
 6090W        W25624  18.834   3.161   2.866  0.1559 -0.0605 -0.0090
 6091W        W25625  12.735   5.341  12.407 -0.2084 -0.4566 -0.0119
 6092W        W25626  14.920  14.014   3.743  0.0909 -0.0594  0.4855
 6093W        W25627  17.258  13.236  10.553  0.0866  0.1613 -0.1765
 6094W        W25628   5.007  18.162  14.245  0.0545 -0.2716 -0.3503
 6095W        W25629  11.410  15.002  12.308 -0.0104  0.1101 -0.3615
 6096W        W25630   0.228  19.391   0.943  0.1708  0.1292 -0.2321
 6097W        W25631  19.423  11.518   2.735  0.1465  0.2501  0.1407
 6098W        W25632   3.815   6.540  10.725 -0.2060  0.2450  0.2015
 6099W        W25633   8.955   0.053  12.055  0.1974  0.0474  0.2241
 6100W        W25634  14.472  15.400  13.986 -0.1483 -0.3093 -0.2863
 6101W        W25635  17.308  14.248   0.212 -0.0576  0.1682  0.2946
 6102W        W25636   8.109   8.570  13.821 -0.1147  0.1677  0.0675
 6103W        W25637   4.159   9.398  13.983 -0.1443  0.0994  0.1131
 6104W        W25638  14.293   7.569   3.779 -0.0637  0.2402 -0.1453
 6105W        W25639   5.751   1.658  11.556 -0.1931  0.1918 -0.0664
 6106W        W25640   3.591  12.453   2.164  0.0510 -0.0121  0.0343
 6107W        W25641   2.893   4.631  14.159 -0.0598 -0.0939  0.1755
 6108W        W25642   6.714  15.714  12.833 -0.1476 -0.0265  0.2892
 6109W        W25643   9.195   2.029   1.624 -0.0516  0.2834 -0.3951
 6110W        W25644   9.222   5.651  13.326  0.2467 -0.0223 -0.0944
 6111W        W25645   4.908   3.498   2.550 -0.0491 -0.0683 -0.0015
 6112W        W25646  15.002   3.254   2.797  0.0808 -0.0834  0.1403
 6113W        W25647   1.691   8.681   2.605  0.1277 -0.4425  0.1248
 6114W        W25648  19.480   7.363   0.576 -0.1850 -0.0375  0.4321
 6115W        W25649   9.093   9.638   3.871  0.0998  0.0214 -0.3861
 6116W        W25650  18.987   5.759   3.798  0.4022  0.0361 -0.1234
 6117W        W25651  16.894  18.313  10.606  0.0807 -0.0552  0.0069
 6118W        W25652   7.334   8.919   3.875 -0.1448  0.0110  0.0329
 6119W        W25653   5.786   7.429  14.321 -0.0548  0.0796 -0.1543
 6120W        W25654  14.099  16.870  11.076 -0.1657 -0.0893 -0.0704
 6121W        W25655   4.406  13.389   2.375  0.0518  0.0701 -0.2146
 6122W        W25656   7.991   3.992  13.339  0.1264  0.3330  0.0391
 6123W        W25657   9.516  10.225   0.452 -0.0913  0.0180  0.0526
 6124W        W25658  13.451   1.970   3.955  0.1019 -0.1488 -0.1271
 6125W        W25659  16.151  12.598   3.216  0.4666 -0.0295 -0.2458
 6126W        W25660  10.215  10.189   5.640  0.0032 -0.3564  0.0383
 6127W        W25661   0.552  12.693  10.524 -0.1049  0.0361  0.1310
 6128W        W25662  12.995  15.351   0.807  0.0868  0.0148  0.1146
 6129W        W25663   7.082   7.688  13.669  0.1152 -0.1363 -0.3931
 6130W        W25664  11.073   7.211  11.579 -0.2985  0.1772  0.3491
 6131W        W25665   5.769   3.011  13.919 -0.0130  0.1601 -0.0140
 6132W        W25666  16.746   2.674   1.139 -0.0727 -0.5377  0.0559
 6133W        W25667  12.254  12.796   0.628 -0.0748  0.1344 -0.2702
 6134W        W25668  19.172  18.080  12.605 -0.0313 -0.1908 -0.0496
 6135W        W25669   7.948   5.905   2.746  0.0918 -0.0503 -0.0207
 6136W        W25670  19.405  18.600   2.262 -0.2166  0.2060  0.0738
 6137W        W25671  14.567   1.186   0.944 -0.0304  0.0631 -0.0455
 6138W        W25672  11.640  18.874   0.134 -0.0532  0.1078 -0.0157
 6139W        W25673  12.048   9.277   1.822 -0.1387  0.2689 -0.0335
 6140W        W25674  17.518  10.114  11.041  0.1943  0.2738 -0.2218
 6141W        W25675  18.373  19.521   9.918  0.1063 -0.0951 -0.1519
 6142W        W25676   5.692   1.532   2.753 -0.1185 -0.0526 -0.0453
 6143W        W25677  18.596   5.314   0.314  0.0427  0.1499 -0.0478
 6144W        W25678   8.689   6.354   2.560 -0.1436  0.0728 -0.1520
 6145W        W25679  19.171  12.521  12.841 -0.1461  0.3719 -0.0220
 6146W        W25680   3.188  13.270  13.073 -0.0307  0.2035 -0.0561
 6147W        W25681  18.998  10.616   3.141 -0.2228  0.5677 -0.0505
 6148W        W25682  14.435  18.170  11.181 -0.0964  0.0104 -0.0902
 6149W        W25683   7.446   2.321   3.109 -0.0145  0.1690  0.1499
 6150W        W25684   0.416  18.347  11.104  0.0198 -0.0294 -0.0206
 6151W        W25685   8.652   0.384   0.962 -0.1742 -0.1051  0.1934
 6152W        W25686   4.594   5.833   3.808  0.0534  0.0253  0.0134
 6153W        W25687   1.235  13.668  13.425 -0.3037 -0.3596 -0.1185
 6154W        W25688  14.715   2.123   3.566  0.2137 -0.0046  0.0967
 6155W        W25689  13.651  10.637   0.334 -0.0558 -0.2788  0.0562
 6156W        W25690  13.851   5.842   5.522 -0.4349  0.5442  0.1090
 6157W        W25691   2.766  11.217   3.912  0.0267 -0.2183  0.2681
 6158W        W25692   2.171   1.726   0.593 -0.2277  0.1774  0.0340
 6159W        W25693   1.250  13.082  11.530 -0.0674  0.3114  0.1576
 6160W        W25694  18.200  13.514  11.380  0.0152  0.2526 -0.1225
 6161W        W25695   6.800   3.194   4.836  0.3366 -0.1429  0.1757
 6162W        W25696   6.145   8.097  13.608  0.0878  0.0421 -0.2652
 6163W        W25697   0.098   2.746  13.317 -0.3236 -0.3357 -0.1035
 6164W        W25698   2.446  11.105  10.519 -0.2428 -0.0322  0.4205
 6165W        W25699   7.466   4.227   0.823 -0.2525 -0.0615  0.0372
 6166W        W25700   6.739  15.586   0.506 -0.0774  0.1930 -0.0391
 6167W        W25701   2.872   3.238   2.969 -0.0264 -0.3171  0.0043
 6168W        W25702  13.822   6.463   1.119  0.2051 -0.1151 -0.0772
 6169W        W25703  12.203  10.902  11.570  0.3294 -0.3670  0.1715
 6170W        W25704  18.043   4.400   4.409 -0.0452  0.1854 -0.1754
 6171W        W25705  16.814   2.631  11.036 -0.3483 -0.1385  0.0435
 6172W        W25706   5.224  11.000  11.507 -0.1150  0.1876 -0.0390
 6173W        W25707   0.131   1.336  13.641  0.2920 -0.1851 -0.3200
 6174W        W25708  10.941   3.784  11.459 -0.1108 -0.0753 -0.1103
 6175W        W25709   0.767  10.974   0.209 -0.1416  0.0022  0.0705
 6176W        W25710   0.218  11.011   0.880 -0.0692  0.1392 -0.1605
 6177W        W25711  13.152  17.496   4.189 -0.1623 -0.0944  0.2399
 6178W        W25712   7.211   1.315   4.070 -0.0413 -0.2159 -0.1954
 6179W        W25713  14.441   0.775   0.660  0.0157 -0.3942  0.0851
 6180W        W25714  10.951   6.463   0.858 -0.1889  0.1065 -0.0683
 6181W        W25715  15.783   3.962   1.472 -0.0751  0.0233 -0.2733
 6182W        W25716   8.683  14.405   0.144 -0.1903  0.1245  0.0391
 6183W        W25717  11.100  14.263   9.319  0.1800 -0.1031  0.2337
 6184W        W25718   9.157   4.303  11.439 -0.5336 -0.0467  0.0184
 6185W        W25719  15.764  17.112  11.535  0.2895  0.0430 -0.2114
 6186W        W25720   5.927   5.830   1.922 -0.1619  0.1665 -0.0359
 6187W        W25721  11.087   6.967   0.127 -0.2234  0.2943 -0.3781
 6188W        W25722  17.204   3.067   1.030  0.4481  0.3187 -0.0550
 6189W        W25723   8.051  16.932  11.544  0.3249 -0.1170  0.0491
 6190W        W25724   5.061   8.122  13.739 -0.0131  0.1339  0.1021
 6191W        W25725  14.414  17.966  13.265 -0.2866 -0.2260 -0.1151
 6192W        W25726   2.185   9.603  11.274 -0.3025 -0.0303  0.0809
 6193W        W25727   4.008  15.730  13.801  0.1732 -0.1411  0.0323
 6194W        W25728   7.851  19.378  12.871  0.0129 -0.0019  0.0632
 6195W        W25729  14.359  17.361  10.924  0.1085  0.0164  0.1494
 6196W        W25730   3.741  11.575   3.190  0.2902  0.1676 -0.1919
 6197W        W25731  14.252   2.794  11.148  0.1156  0.1879  0.0873
 6198W        W25732   5.363  12.653   1.672  0.1136 -0.0515 -0.0172
 6199W        W25733  12.236   9.051  13.628 -0.1488 -0.0206 -0.0940
 6200W        W25734  19.209  15.526   2.647  0.0239 -0.1992 -0.2313
 6201W        W25735   8.598   8.505  10.827 -0.3003 -0.0742  0.1768
 6202W        W25736   9.039   5.353   3.118  0.1205 -0.2183  0.1184
 6203W        W25737   2.140   4.640   1.520  0.0908  0.0055  0.0610
 6204W        W25738  13.452   3.857  11.152  0.0477  0.0985 -0.0585
 6205W        W25739   7.028   6.778  12.134 -0.1213 -0.0331  0.2238
 6206W        W25740  16.834   8.074  12.346  0.1832  0.1449 -0.1763
 6207W        W25741  17.577  19.160  11.900  0.1954  0.0884  0.0733
 6208W        W25742  18.297   2.812   3.704 -0.4214  0.0745  0.0159
 6209W        W25743   2.846   3.219  13.188 -0.1799  0.1003 -0.2162
 6210W        W25744   7.653  12.758   3.222 -0.1405 -0.0820 -0.0500
 6211W        W25745   0.262   1.443   1.977 -0.0021 -0.3279  0.2439
 6212W        W25746  11.359  13.718  10.802  0.1434  0.0304 -0.1708
 6213W        W25747  16.587  17.644   0.884 -0.0662  0.0967  0.0344
 6214W        W25748   0.547  10.439  11.855  0.3503 -0.1867 -0.0872
 6215W        W25749   8.457   9.173   1.741  0.2056 -0.0764  0.0074
 6216W        W25750   3.115  16.694   3.594  0.3374 -0.0395  0.2892
 6217W        W25751   4.721   4.929   4.355  0.0231 -0.0496 -0.2535
 6218W        W25752   6.313   8.397   2.040 -0.0324 -0.0942  0.0422
 6219W        W25753   6.272  12.958  12.866 -0.2556  0.2129  0.1375
 6220W        W25754  16.709  13.301  10.590  0.1930 -0.1081 -0.2857
 6221W        W25755   6.101  10.696  10.109 -0.0583 -0.2438  0.2066
 6222W        W25756  16.849  10.864   0.637  0.1808 -0.4183 -0.1396
 6223W        W25757  10.208  15.198   1.359 -0.0117 -0.0727 -0.1097
 6224W        W25758   8.942  10.344  10.375  0.0703  0.0643 -0.3272
 6225W        W25759   3.090  14.691   2.374 -0.1402 -0.0470  0.0025
 6226W        W25760  19.022   7.702  10.885 -0.2328  0.0346 -0.0701
 6227W        W25761  13.677   9.993   2.333  0.4973 -0.0072 -0.0789
 6228W        W25762   5.291  10.227   0.947 -0.3984 -0.3233 -0.0450
 6229W        W25763  14.738   2.197   1.954 -0.1112  0.0582  0.0479
 6230W        W25764  12.666   8.114  13.775  0.2026  0.1136 -0.1909
 6231W        W25765  15.811   3.332   3.182 -0.0490 -0.0415  0.0650
 6232W        W25766   7.765  16.186   2.743 -0.0446  0.0027 -0.1602
 6233W        W25767  12.035  18.195   1.201  0.0745 -0.2360  0.1459
 6234W        W25768  11.274  15.073   5.163 -0.1039 -0.2817  0.2607
 6235W        W25769   8.916   6.379   5.000 -0.1658  0.1874  0.0863
 6236W        W25770   8.175   5.678  13.415  0.0469 -0.0694 -0.1364
 6237W        W25771   9.463   7.672   9.202  0.1375  0.1211  0.1606
 6238W        W25772  13.204   4.704  14.100 -0.0062  0.0804  0.2812
 6239W        W25773   0.386  16.579  10.175 -0.3697  0.0583 -0.0079
 6240W        W25774  16.420   4.019   0.210 -0.0952 -0.0215 -0.1342
 6241W        W25775   7.010   3.441   0.543 -0.1016 -0.1434 -0.0093
 6242W        W25776   8.783   8.694  13.176 -0.4060  0.0940 -0.3968
 6243W        W25777  10.101  11.392   0.636  0.0397  0.1158  0.0905
 6244W        W25778   0.612   0.107  12.023 -0.2751  0.1414  0.1160
 6245W        W25779   2.426   2.379   2.240  0.1070  0.1741 -0.4161
 6246W        W25780  17.667   3.777  13.300 -0.1208 -0.1040 -0.3964
 6247W        W25781   4.194   2.861   1.727 -0.3623 -0.1497  0.2143
 6248W        W25782  13.221   5.263  12.165 -0.3447  0.1448  0.1791
 6249W        W25783  14.212   0.263   3.901  0.0795 -0.0776  0.1096
 6250W        W25784  16.144  11.627   2.985 -0.0964  0.3275 -0.0915
 6251W        W25785  17.965   2.027  12.466  0.0116  0.0885  0.0929
 6252W        W25786   5.275  17.940   9.881  0.0176 -0.3216 -0.1030
 6253W        W25787   1.007  16.773   1.438 -0.3292  0.1020 -0.2755
 6254W        W25788   1.945   5.303   2.806  0.1734 -0.0296  0.2873
 6255W        W25789   4.077   7.160  12.735  0.1888  0.3087 -0.0343
 6256W        W25790  15.229  17.812  13.620  0.1206 -0.0551  0.1628
 6257W        W25791   7.785  11.156   4.016  0.2368 -0.3824  0.2369
 6258W        W25792  12.605  10.330  12.177 -0.3174 -0.1605 -0.3985
 6259W        W25793   9.072  18.113  14.212  0.2369  0.1790  0.1984
 6260W        W25794   5.870   6.252   2.314 -0.1038  0.2328 -0.2801
 6261W        W25795  13.436   6.667  11.126  0.1493 -0.0143  0.2216
 6262W        W25796   1.264   0.980  10.860  0.0402 -0.2789  0.2560
 6263W        W25797  17.570  17.849  10.847  0.3670  0.4599 -0.1508
 6264W        W25798  19.274  11.873  14.182 -0.2133  0.1495 -0.0005
 6265W        W25799  18.112  18.265  11.915 -0.1855 -0.1808 -0.1338
 6266W        W25800  19.394   9.239   3.947  0.0824 -0.0483  0.2056
 6267W        W25801   0.861  18.329   0.416  0.2264  0.1832 -0.1067
 6268W        W25802   7.377   5.158   2.981 -0.0161 -0.2785  0.0883
 6269W        W25803   0.891   2.233   2.307 -0.3456  0.0531  0.0411
 6270W        W25804   0.189   0.310  10.629  0.1428  0.0086  0.2919
 6271W        W25805  10.728  15.196   0.647  0.1617  0.0251  0.0783
 6272W        W25806  14.883   1.802   3.897 -0.1767  0.1623  0.1489
 6273W        W25807  13.895  11.504  12.838  0.1768  0.0469  0.1850
 6274W        W25808  18.677   3.160  14.019 -0.1648 -0.0088 -0.0349
 6275W        W25809   0.827   3.296   2.616 -0.1492  0.3418 -0.2791
 6276W        W25810   9.343  16.195   4.924 -0.2832 -0.1040  0.0538
 6277W        W25811  10.775   5.153   3.428 -0.0472 -0.2158 -0.2638
 6278W        W25812  13.947  18.750  10.978  0.0907 -0.1398  0.0433
 6279W        W25813  14.237   8.677   0.155 -0.2107  0.2910 -0.2477
 6280W        W25814   2.816   4.181   9.893  0.2330 -0.1404 -0.2404
 6281W        W25815  17.282  11.408   9.709 -0.0567 -0.2185  0.2499
 6282W        W25816   0.623   7.845   0.631  0.0943 -0.0234  0.0928
 6283W        W25817  18.418  15.867   2.994  0.0018  0.5461 -0.0772
 6284W        W25818  10.727  12.418  10.542  0.0977  0.0534 -0.1795
 6285W        W25819   4.349   5.855   2.496 -0.0466 -0.1725 -0.4725
 6286W        W25820  12.674   2.291   1.557 -0.0640 -0.1313  0.2411
 6287W        W25821   1.905   2.402   2.229 -0.1765 -0.0980 -0.1279
 6288W        W25822   7.175  18.382   0.026 -0.1848  0.0390  0.1234
 6289W        W25823  17.048  18.932   2.849  0.1297  0.1756 -0.1264
 6290W        W25824  18.752  17.865  14.111  0.3763 -0.2458 -0.0088
 6291W        W25825  18.532   2.728  10.575 -0.4189 -0.0417 -0.1748
 6292W        W25826   0.167  14.830  14.161  0.0430 -0.0408  0.1978
 6293W        W25827  16.869   5.511   3.168 -0.1408 -0.0720  0.3366
 6294W        W25828   9.717   1.370   1.677  0.2054  0.0437  0.1840
 6295W        W25829  17.892  15.988   1.092 -0.1867 -0.1599 -0.0924
 6296W        W25830  11.623   0.247   1.749 -0.2786 -0.0788 -0.0851
 6297W        W25831   0.752   4.536   9.755 -0.1423 -0.0816 -0.0402
 6298W        W25832   2.098   6.749   0.848  0.0185  0.1876 -0.2072
 6299W        W25833   8.605   9.511   1.409 -0.0680  0.2246 -0.0014
 6300W        W25834  15.526   9.962  10.842 -0.1278 -0.1507  0.0056
 6301W        W25835   4.632  18.347   4.265  0.1460  0.0243  0.1197
 6302W        W25836   8.594   1.756   3.116  0.2344 -0.3020  0.0286
 6303W        W25837   5.733   5.447   2.886 -0.1798 -0.0285 -0.1773
 6304W        W25838   3.571  18.438  12.297  0.1187 -0.3444 -0.1517
 6305W        W25839   6.807  19.420   4.488 -0.0206  0.1140  0.2148
 6306W        W25840   6.657  13.386   2.977 -0.2565 -0.1280  0.2348
 6307W        W25841   0.463   5.667  12.886  0.0030 -0.0150 -0.1664
 6308W        W25842   6.893  10.050   2.294 -0.2188 -0.0240  0.2872
 6309W        W25843   5.370  15.285   1.264 -0.1020  0.2254 -0.0009
 6310W        W25844  15.164   9.555  11.891 -0.2199  0.2019 -0.0195
 6311W        W25845  11.223   2.911   3.634  0.1450 -0.0601 -0.0183
 6312W        W25846  16.476   9.744  11.080  0.2729  0.0431 -0.1834
 6313W        W25847  17.686  13.327  13.643 -0.0890 -0.0875  0.2879
 6314W        W25848   1.988  16.896  11.815 -0.4294  0.3503  0.0402
 6315W        W25849   9.987  11.730  11.014 -0.0602 -0.3875 -0.0164
 6316W        W25850  14.396  13.672  12.184  0.0872 -0.0713  0.1548
 6317W        W25851  18.335  14.414  11.810 -0.1715 -0.1541  0.1155
 6318W        W25852   2.541   6.280   0.021 -0.0489  0.2934 -0.0103
 6319W        W25853  16.353  16.815   3.046  0.1119  0.3619 -0.1475
 6320W        W25854   7.170  18.904   2.252 -0.3618  0.0035  0.2550
 6321W        W25855  15.059  14.430   9.032  0.1169 -0.1299  0.1048
 6322W        W25856  17.260   6.778   3.246 -0.0697  0.0991 -0.0556
 6323W        W25857   4.120  12.543  12.153  0.3143 -0.2631 -0.0128
 6324W        W25858   1.672  19.224   2.521  0.0642  0.1929  0.1775
 6325W        W25859   3.813   7.817  13.161  0.1090  0.0634  0.2404
 6326W        W25860  17.033  16.957   0.396  0.0716 -0.2893 -0.1914
 6327W        W25861  12.571   1.401   1.276 -0.1350 -0.0099  0.0079
 6328W        W25862   3.542  10.345   2.825 -0.2808  0.0051  0.1090
 6329W        W25863  11.612  13.902   0.518 -0.1215 -0.1645  0.1984
 6330W        W25864  11.165  13.027  11.421  0.1992  0.0094  0.1380
 6331W        W25865  18.282  14.408  11.156  0.2233 -0.0587  0.0239
 6332W        W25866   9.683   5.443  13.507 -0.1516 -0.0644  0.2064
 6333W        W25867  12.029  16.827  10.227 -0.2316 -0.0424  0.0079
 6334W        W25868   2.549   9.361   2.461  0.2399 -0.3076  0.1847
 6335W        W25869   5.308   9.062   0.837 -0.3356  0.0383  0.2302
 6336W        W25870   4.241   8.842  10.050 -0.1005  0.0943 -0.5511
 6337W        W25871   7.945   3.819   2.307  0.0504 -0.2511 -0.2883
 6338W        W25872  15.117   6.072   2.789 -0.0677 -0.1116 -0.1417
 6339W        W25873   7.327  16.304   1.127  0.2542 -0.0255  0.2503
 6340W        W25874  16.891  17.853   9.758 -0.2223 -0.0917 -0.1769
 6341W        W25875  10.937   8.959   4.231 -0.1125  0.0394  0.3993
 6342W        W25876   0.851  17.121   9.698  0.0421  0.3701  0.2140
 6343W        W25877  16.674  11.994   2.712 -0.1500  0.1230 -0.2292
 6344W        W25878   5.523   6.258   3.443 -0.0650  0.2763  0.0170
 6345W        W25879   8.147  16.296   0.095  0.2850 -0.2939  0.0801
 6346W        W25880  13.509   9.476   2.408 -0.0593  0.0432  0.1089
 6347W        W25881   8.922   5.355   0.997  0.1154 -0.3067 -0.0107
 6348W        W25882   1.719   9.459  10.365 -0.1816 -0.1499 -0.1841
 6349W        W25883   1.568  18.234  11.517  0.2749  0.2753 -0.1093
 6350W        W25884  17.933   5.613  13.642  0.0174 -0.0355  0.2560
 6351W        W25885   4.082   0.582   0.118  0.0391 -0.1275  0.1395
 6352W        W25886  14.330   1.834  13.112 -0.0525  0.1878  0.0830
 6353W        W25887  15.335  11.339  10.812  0.1912  0.1047  0.2840
 6354W        W25888  10.720  11.886  12.029  0.1613  0.0325 -0.0332
 6355W        W25889   4.657   5.820  13.516 -0.3173 -0.0343 -0.0194
 6356W        W25890   7.039  12.517  10.072  0.0136 -0.2232 -0.1319
 6357W        W25891   6.928  14.570  11.417 -0.1982 -0.1278  0.1563
 6358W        W25892   2.208  14.240   1.259 -0.2538 -0.4720 -0.2067
 6359W        W25893   7.826  15.573  10.718  0.0058 -0.1194 -0.0591
 6360W        W25894  14.076   5.682  10.520 -0.1147 -0.2381 -0.0187
 6361W        W25895   7.567   7.089   3.138  0.0992 -0.1800  0.0561
 6362W        W25896  14.475  15.634  10.371  0.4714  0.3343  0.2309
 6363W        W25897   4.695  18.329  12.099 -0.3958  0.1442  0.1949
 6364W        W25898  13.280   7.141  11.291  0.0301 -0.2613  0.0901
 6365W        W25899   0.313   7.176  13.535 -0.0219  0.0611  0.3175
 6366W        W25900   9.380  13.575   3.410 -0.2082 -0.1071  0.2073
 6367W        W25901   1.525  14.365  11.127 -0.2605  0.2261 -0.1791
 6368W        W25902   4.729  10.412  11.332  0.1453  0.1699 -0.0633
 6369W        W25903   2.054   9.720   3.094 -0.1341  0.2288  0.5234
 6370W        W25904   2.238  11.071  13.624  0.0238  0.0860  0.3679
 6371W        W25905   7.627  17.810  11.242  0.1258 -0.0717  0.0799
 6372W        W25906   3.017  17.663  13.361  0.0323 -0.0720 -0.1348
 6373W        W25907   5.033  18.263  11.492 -0.3055 -0.2261  0.0016
 6374W        W25908   9.860  15.807   2.079  0.2700  0.1406 -0.0026
 6375W        W25909   3.557  17.353   2.405 -0.0252 -0.2351  0.0470
 6376W        W25910  12.673   4.996   4.380  0.1583 -0.0867  0.0635
 6377W        W25911  16.767   2.225   0.245  0.0023 -0.0301 -0.0196
 6378W        W25912   5.184  19.377  12.949  0.0557  0.2396  0.0000
 6379W        W25913   4.110   9.460   3.864 -0.3695  0.0004  0.0883
 6380W        W25914   6.258   3.930  10.329 -0.0168 -0.0612 -0.0622
 6381W        W25915  13.571  15.226  13.038 -0.1595  0.0975 -0.0208
 6382W        W25916  15.918   2.375   0.306  0.1650 -0.1842  0.1814
 6383W        W25917  17.488   5.558   4.212  0.0097  0.1213  0.1338
 6384W        W25918  14.455   7.441   1.305 -0.0448  0.2648 -0.1046
 6385W        W25919   0.187  10.839  13.130 -0.1943 -0.0413 -0.1575
 6386W        W25920   5.683  16.611   4.519  0.3507  0.1782 -0.0474
 6387W        W25921   7.609  16.454  12.811 -0.0019 -0.4652  0.0533
 6388W        W25922   5.926  19.440   1.548  0.2317 -0.0021  0.0919
 6389W        W25923  13.123   7.017   9.932  0.0241 -0.0618  0.1145
 6390W        W25924  13.037   7.994   1.097  0.0326  0.2517  0.0475
 6391W        W25925   3.379   1.365   1.644  0.3053  0.0951 -0.2456
 6392W        W25926  16.156  15.873  10.686  0.3351 -0.4715  0.2422
 6393W        W25927   5.103   4.437  10.817  0.1714 -0.3334 -0.0256
 6394W        W25928   2.681  12.816  11.862  0.0379 -0.0571 -0.0043
 6395W        W25929  12.267   0.192   9.651  0.0412 -0.3372 -0.3404
 6396W        W25930  13.895   2.177  13.140  0.0910  0.1781 -0.2080
 6397W        W25931   1.999  17.068   2.252  0.0977  0.2569  0.2730
 6398W        W25932  17.962  15.969   2.637  0.1761 -0.1698 -0.3254
 6399W        W25933   9.626  11.973  13.909 -0.0360 -0.0820  0.1310
 6400W        W25934  18.219  14.446  12.546  0.3716 -0.0704  0.1918
 6401W        W25935   5.115  19.407   1.994  0.0672 -0.1309  0.1134
 6402W        W25936   0.491   4.943  10.700  0.2498  0.1748  0.1541
 6403W        W25937   2.378   7.249   3.705 -0.3234  0.0556 -0.2849
 6404W        W25938  16.011  16.900  14.319  0.0820 -0.1152 -0.2358
 6405W        W25939   9.773   5.294  12.528 -0.0912  0.2296 -0.0731
 6406W        W25940   5.448   1.097   2.647  0.0511  0.3218  0.0747
 6407W        W25941   8.495   7.371   2.649 -0.0017  0.2518 -0.2397
 6408W        W25942   7.603   7.315   2.495  0.1495  0.1272  0.3661
 6409W        W25943  12.505  12.835  10.412  0.1619 -0.0786  0.4438
 6410W        W25944   3.388  19.403   0.320 -0.2505 -0.1697 -0.2709
 6411W        W25945   3.613   8.746  11.284  0.0113 -0.1436  0.0469
 6412W        W25946   2.569  10.217   2.882 -0.2912 -0.0221 -0.2807
 6413W        W25947   7.377   9.881   3.126 -0.0282 -0.5223  0.2330
 6414W        W25948   1.043   2.290   9.593  0.1039 -0.1966 -0.1947
 6415W        W25949   0.292   2.671   2.784  0.1674  0.0367  0.1827
 6416W        W25950   6.048   6.203  11.821 -0.3637 -0.1482  0.4648
 6417W        W25951   3.904   5.166   2.310 -0.1573  0.0779  0.1509
 6418W        W25952   3.260  10.251   0.139 -0.1666 -0.1159  0.2971
 6419W        W25953   7.661  16.107  10.575 -0.0249 -0.0636 -0.3572
 6420W        W25954   7.349   9.058   1.713  0.3019 -0.2066 -0.0048
 6421W        W25955  12.167   1.146   3.081  0.4017 -0.0489 -0.0909
 6422W        W25956   6.883   4.766  12.545  0.2374 -0.1234  0.1104
 6423W        W25957   0.498  10.932  12.032 -0.2132 -0.1720 -0.2054
 6424W        W25958   8.471  13.286   0.562  0.1659  0.3757 -0.2687
 6425W        W25959  13.269   9.606   1.127 -0.1212  0.0378 -0.1874
 6426W        W25960  15.653   3.868   2.720 -0.1681 -0.0722  0.0371
 6427W        W25961  19.274   1.438  11.982 -0.0921  0.1900 -0.0500
 6428W        W25962  12.089  17.864  11.508 -0.1110 -0.0333  0.2865
 6429W        W25963   5.533  12.195  13.268 -0.2353  0.0659  0.0526
 6430W        W25964   8.929  17.493   2.068 -0.1067 -0.4615  0.1510
 6431W        W25965   3.981  12.627   1.904  0.0194  0.0037 -0.1852
 6432W        W25966  15.786   5.833  13.314  0.2648  0.0245 -0.2047
 6433W        W25967   1.211   5.696   1.356 -0.3819 -0.4253  0.2010
 6434W        W25968  13.031  16.194  11.037 -0.2184 -0.1978  0.1585
 6435W        W25969   1.483   2.849   1.149  0.1533 -0.0757 -0.2628
 6436W        W25970  13.375  15.139   1.066  0.1991 -0.1159 -0.4375
 6437W        W25971  13.983   1.153   4.312 -0.0231 -0.1783  0.1915
 6438W        W25972   7.081   3.246  13.358  0.0535 -0.2965 -0.0560
 6439W        W25973   7.994   4.645   2.661 -0.1134  0.0414 -0.1222
 6440W        W25974   2.403  13.288  11.879  0.3515  0.1170 -0.1438
 6441W        W25975  16.758  12.344  12.340  0.0444 -0.2854  0.0478
 6442W        W25976  15.167   4.426  11.793  0.2050  0.2471 -0.2725
 6443W        W25977   3.005  11.601  13.733  0.3897  0.0169 -0.2201
 6444W        W25978  14.146   7.491   3.321  0.2378  0.1162  0.0482
 6445W        W25979   4.905  15.545   1.574  0.1020 -0.3534  0.3400
 6446W        W25980   5.279  14.575   2.909  0.1128 -0.4345 -0.1587
 6447W        W25981  10.939   0.430   3.691 -0.0379 -0.1082 -0.4689
 6448W        W25982  17.272   5.723  11.995  0.2953  0.0112 -0.0620
 6449W        W25983   2.377   3.182   0.694 -0.0432  0.1591  0.0223
 6450W        W25984   8.116   3.014  14.052 -0.2645 -0.3535  0.1738
 6451W        W25985  10.827   7.825   3.087 -0.1297 -0.2243  0.2532
 6452W        W25986  12.703  11.343   2.787  0.0810 -0.1845  0.1036
 6453W        W25987  14.741   9.012   4.365 -0.2236  0.1136 -0.1078
 6454W        W25988  14.364   8.101  13.520 -0.0135 -0.0835 -0.0832
 6455W        W25989   1.503   1.348   1.158  0.0184  0.2981  0.3360
 6456W        W25990   1.962  14.593   0.250 -0.0313  0.2313 -0.0060
 6457W        W25991  12.518  10.136  13.128 -0.0946 -0.0510 -0.1822
 6458W        W25992  10.854  18.857   3.085  0.1241 -0.1869 -0.0505
 6459W        W25993  11.018  11.676  11.210  0.0207  0.0052 -0.2516
 6460W        W25994   5.069  15.971   3.448 -0.1246 -0.1427  0.0530
 6461W        W25995  11.019   4.922  11.250 -0.0366  0.1205 -0.3593
 6462W        W25996  12.266  14.657  13.500 -0.2841  0.1746 -0.1813
 6463W        W25997   2.169  11.656  14.275  0.4855 -0.0760 -0.3905
 6464W        W25998  15.118  14.851   1.998 -0.2983 -0.1159 -0.1573
 6465W        W25999  15.732   3.772   3.524 -0.1046  0.1810 -0.1458
 6466W        W26000   9.911  12.514   0.375  0.1305 -0.0332  0.1828
 6467W        W26001   9.252  16.006   9.594  0.3629  0.1701  0.0416
 6468W        W26002   0.398  10.097  10.056 -0.0416 -0.1080  0.2676
 6469W        W26003   9.102  15.737   1.585 -0.1177  0.0284  0.0132
 6470W        W26004  19.376  13.589   9.814  0.2169  0.2252 -0.3337
 6471W        W26005  16.502  15.877   0.426 -0.2155 -0.0462  0.3208
 6472W        W26006  19.353  14.999  12.074 -0.1588 -0.2948 -0.2842
 6473W        W26007   5.230   5.037  13.920  0.2336 -0.3029  0.2443
 6474W        W26008  13.978  12.180  11.590 -0.2496 -0.0608  0.3776
 6475W        W26009  10.543   3.847   3.243 -0.2027  0.2043  0.1300
 6476W        W26010   9.042   0.904   0.060  0.4915 -0.0461  0.5946
 6477W        W26011  17.654   0.143   0.487  0.2429  0.2880 -0.0680
 6478W        W26012   8.819  10.893   0.861  0.0680  0.1583  0.2841
 6479W        W26013   5.494   3.919   2.986 -0.1171  0.0622 -0.1097
 6480W        W26014  14.602   7.801  10.705  0.1044 -0.1963  0.2136
 6481W        W26015  13.675   9.160  10.519 -0.4376 -0.1926 -0.0192
 6482W        W26016  14.526   3.559   0.978 -0.2460 -0.1437 -0.1962
 6483W        W26017  15.679  17.145   0.290 -0.1419 -0.4604  0.0574
 6484W        W26018   9.148   8.419  11.709  0.2933  0.3600  0.1159
 6485W        W26019   5.873   7.667   4.028  0.1690 -0.0040 -0.0989
 6486W        W26020   3.856   0.537  13.041  0.2621  0.1640  0.4329
 6487W        W26021  13.544   6.881   3.668  0.0008  0.1398 -0.3434
 6488W        W26022   6.362  10.713  11.261 -0.1925 -0.0686  0.1622
 6489W        W26023   3.384   6.750   2.685  0.1413  0.0184 -0.3042
 6490W        W26024  12.577  12.912   2.986 -0.0247  0.1139  0.1086
 6491W        W26025  17.285   9.938   0.106  0.0408 -0.0230 -0.0513
 6492W        W26026   6.395   2.332   0.482  0.1816 -0.1466  0.0972
 6493W        W26027  19.016  18.211  10.885  0.1107  0.2921  0.2969
 6494W        W26028   1.372   8.596   1.582 -0.0722  0.1242  0.0471
 6495W        W26029  17.431   4.421   0.071  0.4435 -0.1795 -0.2565
 6496W        W26030  14.195  13.889   2.584 -0.0169 -0.1616 -0.3342
 6497W        W26031  16.564   8.868  10.946 -0.3510  0.0251 -0.2826
 6498W        W26032  10.893  15.543   5.316 -0.3778  0.2156 -0.0387
 6499W        W26033   0.431   7.909  10.936  0.2007  0.0333 -0.2245
 6500W        W26034  11.905   1.509  11.048  0.0019 -0.2830 -0.1999
 6501W        W26035  18.116   0.756  11.392 -0.1609  0.0627 -0.1363
 6502W        W26036  17.878  16.612   0.485  0.1649  0.2858 -0.2161
 6503W        W26037  10.082   0.167  10.973 -0.1395  0.3079 -0.1906
 6504W        W26038   3.687  17.549  11.154  0.0769  0.0246 -0.1464
 6505W        W26039  11.510  16.283  13.906  0.0560 -0.1319  0.1427
 6506W        W26040  12.742   3.760  13.891 -0.1266  0.2212 -0.1461
 6507W        W26041  18.874   9.235  13.378 -0.2199  0.2973 -0.0649
 6508W        W26042  18.904   6.551   2.131  0.0837 -0.0755  0.2122
 6509W        W26043   9.444  16.344   0.080 -0.1421  0.1416 -0.1957
 6510W        W26044   4.056  11.585   3.996  0.1774  0.1276  0.1357
 6511W        W26045  19.386   0.228   0.784 -0.2129  0.2623 -0.2647
 6512W        W26046  16.307   2.060   3.193 -0.3668  0.1693  0.0193
 6513W        W26047   4.096   8.864   0.169 -0.0367 -0.2739  0.1035
 6514W        W26048  18.939  12.098  13.245 -0.2370  0.0127 -0.0916
 6515W        W26049  12.146   5.949  12.110  0.1852  0.2727 -0.0571
 6516W        W26050  17.276  15.227   1.149 -0.1591 -0.1091  0.0498
 6517W        W26051   3.092   8.496   0.199  0.0081 -0.2813  0.0534
 6518W        W26052   3.263  16.362   2.760  0.3854  0.3461 -0.0265
 6519W        W26053   6.742  18.251  13.340 -0.0549  0.1905 -0.1478
 6520W        W26054   1.585  11.082  13.232  0.2220  0.0835 -0.3001
 6521W        W26055   4.071   4.067  10.734 -0.0700  0.1739 -0.2293
 6522W        W26056  10.848  19.180   2.161 -0.1138 -0.0498 -0.0986
 6523W        W26057   4.094   6.989  10.741  0.1770 -0.3943 -0.1814
 6524W        W26058  13.645  15.898   0.651  0.0445  0.0935 -0.1113
 6525W        W26059   8.626   5.123   1.271  0.1468  0.2278  0.2507
 6526W        W26060  13.225  16.607  13.841 -0.3034  0.1429  0.2077
 6527W        W26061  11.433   7.493   4.586 -0.3054  0.2238  0.1519
 6528W        W26062   6.039   9.908   9.837 -0.1202 -0.3366  0.6408
 6529W        W26063   0.671  14.798  10.472 -0.2599  0.0492  0.2066
 6530W        W26064  10.345   4.667   1.526  0.2191  0.0931  0.0785
 6531W        W26065  18.778  18.381   0.528 -0.0874 -0.2253  0.2243
 6532W        W26066  14.139  10.306  11.112 -0.0235 -0.0391  0.0514
 6533W        W26067  18.441  15.822  13.150  0.2603  0.2003 -0.2310
 6534W        W26068   4.260   5.005   0.753 -0.1364  0.1239 -0.3017
 6535W        W26069  17.637   0.645  14.024  0.0343 -0.1628 -0.3188
 6536W        W26070  16.034  18.477   3.883  0.1413 -0.2994  0.0946
 6537W        W26071  14.965   1.567   3.438  0.0970 -0.1814 -0.2583
 6538W        W26072  16.089   8.827  12.653  0.2348  0.2579 -0.1422
 6539W        W26073   7.852   2.417   4.400  0.0449 -0.1890  0.3100
 6540W        W26074   5.854  18.836   2.925 -0.0113  0.3881 -0.1772
 6541W        W26075  15.459  19.054  13.810  0.0697  0.0455  0.3517
 6542W        W26076   3.714   7.996  12.494 -0.3842  0.0417 -0.2277
 6543W        W26077   9.024  17.559   4.101  0.0701  0.1014  0.1184
 6544W        W26078   4.679   0.059   0.640 -0.1175 -0.0684  0.0982
 6545W        W26079   0.100  10.727  11.174 -0.1570 -0.1897 -0.1200
 6546W        W26080  17.785  12.053  11.826  0.0498  0.0388 -0.1904
 6547W        W26081  12.604  15.760   3.783  0.1994  0.1060 -0.0063
 6548W        W26082   1.269  12.463   1.902 -0.1239 -0.1838  0.2942
 6549W        W26083  18.592  17.910   2.748  0.1921 -0.0648  0.0450
 6550W        W26084  13.039   9.141   1.027 -0.0172  0.1610 -0.2437
 6551W        W26085   1.200  11.542   4.081  0.1794 -0.1246 -0.1149
 6552W        W26086   7.748   4.861   1.152  0.2279 -0.1853  0.1461
 6553W        W26087   9.561   5.950  12.896  0.1596  0.0450 -0.2444
 6554W        W26088   2.400   7.415  11.386 -0.1292 -0.3714  0.0365
 6555W        W26089  16.951   5.541  10.825  0.1808  0.2250 -0.1777
 6556W        W26090  18.323   0.177  13.039  0.2572 -0.3333 -0.0845
 6557W        W26091  18.398   2.689  13.330  0.0399  0.0235 -0.2661
 6558W        W26092  12.636   5.690  12.049 -0.1606  0.3820 -0.1023
 6559W        W26093  14.489   3.681   3.481  0.1617  0.3636  0.0694
 6560W        W26094  18.459   0.431  10.510  0.1004 -0.2618  0.1285
 6561W        W26095   0.041  10.636  11.991 -0.1443  0.0942 -0.1968
 6562W        W26096  14.626   3.126  11.394 -0.1115 -0.0593 -0.2143
 6563W        W26097  15.522   2.831  10.594  0.1862 -0.4110  0.0373
 6564W        W26098  14.717  18.546   4.063  0.3109  0.0582 -0.1042
 6565W        W26099   0.844  13.281  13.684  0.2318 -0.2772  0.0789
 6566W        W26100  18.501  14.225   3.947 -0.1971  0.0901  0.0553
 6567W        W26101  12.750  10.633  13.415  0.1463  0.1491  0.2150
 6568W        W26102  19.208   9.893   1.450 -0.2373 -0.1241  0.0201
 6569W        W26103   4.876   6.932  10.293 -0.2183 -0.1316  0.1715
 6570W        W26104   3.802   6.312  13.542 -0.1896  0.3260 -0.1279
 6571W        W26105  10.979   5.639  12.432  0.1157  0.1860  0.1936
 6572W        W26106   9.406  15.525  10.396 -0.0173  0.1848  0.0073
 6573W        W26107  11.137  12.033   3.428  0.0969  0.0198  0.0318
 6574W        W26108   7.289  15.258   3.071 -0.0159 -0.4404 -0.4907
 6575W        W26109   9.686  15.084  10.389  0.1031  0.0590 -0.1774
 6576W        W26110   0.269   9.727  12.882  0.1132  0.0503 -0.1311
 6577W        W26111  19.077   5.956  11.494 -0.0156  0.1843  0.1890
 6578W        W26112   6.942   4.665   1.248  0.0920  0.1594  0.1492
 6579W        W26113   3.877   3.219   2.646 -0.0509 -0.1206 -0.2016
 6580W        W26114  19.503   3.838   1.073 -0.3065 -0.0516  0.0946
 6581W        W26115   6.573   9.377  12.761 -0.3855 -0.0952 -0.2234
 6582W        W26116   7.058   4.192  11.300  0.0397 -0.0675  0.1880
 6583W        W26117   6.558   6.698  10.550 -0.1522 -0.0112 -0.1945
 6584W        W26118   5.509   0.436  12.019 -0.0185 -0.0414 -0.0458
 6585W        W26119  15.588  19.410   1.170  0.2020  0.2414 -0.1101
 6586W        W26120   2.125   7.765  11.742  0.2633  0.2698 -0.2021
 6587W        W26121   0.408  14.408  12.494  0.1095  0.1819  0.2402
 6588W        W26122   0.476   9.921   1.925  0.3534  0.2152  0.2005
 6589W        W26123   3.356   5.188   2.123  0.0594  0.1482  0.1474
 6590W        W26124  14.042   5.751  13.135 -0.4094  0.4104  0.5483
 6591W        W26125   5.000  14.192   2.744 -0.0469  0.3411  0.0164
 6592W        W26126  14.721  10.421   1.233 -0.3981  0.1050  0.0108
 6593W        W26127   3.089   6.034   0.877  0.2363 -0.0352  0.1624
 6594W        W26128   0.297   4.203   5.028  0.0108  0.1470 -0.1006
 6595W        W26129   8.939   6.182   2.079  0.4780 -0.0542 -0.0052
 6596W        W26130   9.323  15.528   3.771 -0.0827 -0.1454  0.0233
 6597W        W26131   8.190  12.504  11.509  0.0224 -0.0307 -0.4006
 6598W        W26132  19.210  12.406  13.903 -0.1953 -0.1000  0.2095
 6599W        W26133  15.752  11.226  10.341  0.3174 -0.0023 -0.1943
 6600W        W26134  11.468  12.661   1.697 -0.1435 -0.0183  0.1948
 6601W        W26135  11.727  18.441   2.915 -0.0807 -0.3148  0.1662
 6602W        W26136   3.473  11.996   0.767  0.0965 -0.3186 -0.1122
 6603W        W26137  16.166  12.329   3.631 -0.0842  0.1012  0.0490
 6604W        W26138  10.961  16.975   0.786 -0.1325  0.1458  0.0893
 6605W        W26139  14.284  18.412   3.498  0.1713 -0.0381  0.0028
 6606W        W26140  12.064   1.911   3.244  0.3705  0.0675  0.0371
 6607W        W26141  12.215   2.546   0.376 -0.1829 -0.1525  0.2302
 6608W        W26142  12.876  10.084  11.722 -0.2382 -0.1415  0.1345
 6609W        W26143   7.608   8.483  11.581 -0.0740  0.0898  0.0081
 6610W        W26144  18.019  11.311  10.369  0.3119 -0.2946 -0.2333
 6611W        W26145   4.939   3.342  11.474 -0.4072  0.2150  0.0856
 6612W        W26146   6.862  18.185  12.833  0.2013 -0.3722 -0.4319
 6613W        W26147   9.792  11.257   3.243  0.2392  0.3490  0.1369
 6614W        W26148  12.464   1.584   2.379 -0.2756  0.3027  0.2113
 6615W        W26149   7.501  14.817   1.377  0.2324 -0.2886  0.1079
 6616W        W26150  12.369  12.396  13.555  0.0508  0.1697 -0.0646
 6617W        W26151   9.170   4.564   1.583 -0.1731 -0.0164  0.1902
 6618W        W26152  17.613   4.100   3.450  0.0952 -0.1508  0.3862
 6619W        W26153  15.907  12.682   1.507  0.0580  0.0282  0.0080
 6620W        W26154  13.535   7.097   9.787 -0.0321 -0.0242 -0.4399
 6621W        W26155   7.004  17.477  12.037 -0.2503  0.0283  0.1694
 6622W        W26156  19.086  11.846   3.738 -0.0379  0.1199  0.1123
 6623W        W26157  15.187  10.540  12.863  0.1648  0.1159 -0.3429
 6624W        W26158   1.847   4.587   3.117  0.0450  0.1299 -0.1142
 6625W        W26159  14.705   9.381  12.753 -0.1302  0.1890 -0.0349
 6626W        W26160   4.673   5.502   1.952  0.2806  0.2608 -0.1984
 6627W        W26161   4.041   9.168   2.253 -0.2282 -0.1687 -0.1033
 6628W        W26162   4.083   7.659  12.738 -0.0482  0.4118 -0.2400
 6629W        W26163  11.465   0.118   2.986  0.1292  0.0946 -0.0190
 6630W        W26164  12.063  17.897  13.554  0.2078 -0.0332 -0.1502
 6631W        W26165   6.168   1.573   2.575 -0.3166  0.2298  0.1497
 6632W        W26166  10.464  12.886  11.378  0.1531  0.1240  0.0596
 6633W        W26167  12.163  15.223  10.932 -0.1264  0.0729  0.0493
 6634W        W26168  12.501  12.392   1.116  0.0695  0.0382 -0.0676
 6635W        W26169  18.836   7.649  14.326  0.0793  0.1031  0.0517
 6636W        W26170  16.221  10.826  13.432  0.0687  0.0189  0.2001
 6637W        W26171   5.072  13.921  12.305  0.1411 -0.0782  0.4082
 6638W        W26172   6.093   9.136   2.897  0.2049  0.0759  0.1587
 6639W        W26173   1.811   9.305  12.094 -0.0754 -0.2493  0.0492
 6640W        W26174   9.692  11.021   1.184 -0.0304  0.0213 -0.0340
 6641W        W26175   7.809  18.845  11.801 -0.0965  0.1635 -0.4193
 6642W        W26176  12.343   8.303  11.527 -0.1550  0.1352  0.5009
 6643W        W26177   9.106  13.753   3.023 -0.1688 -0.2419 -0.1940
 6644W        W26178   9.524   6.471  11.080  0.0453 -0.0198 -0.0169
 6645W        W26179  15.173   2.350  11.561 -0.2129  0.1373  0.0853
 6646W        W26180   2.210   5.010  13.533  0.3222 -0.0478  0.0363
 6647W        W26181   6.784  14.009  10.965  0.0647 -0.1659 -0.1988
 6648W        W26182   3.800   6.615   2.482 -0.1032 -0.2139  0.0794
 6649W        W26183   9.830  14.148  13.087 -0.2529 -0.1738 -0.0936
 6650W        W26184   9.331  16.703  12.345 -0.0662 -0.1769 -0.0437
 6651W        W26185   8.119  14.214   2.130 -0.0678  0.0237  0.4412
 6652W        W26186  18.039   1.440   0.087  0.4237 -0.0652 -0.1599
 6653W        W26187   8.475   1.903  10.479  0.1080  0.0726 -0.3300
 6654W        W26188  16.175  18.630  10.366 -0.2289  0.2080 -0.2653
 6655W        W26189  10.258  12.217   1.542  0.3068  0.0793 -0.4854
 6656W        W26190  15.948   4.581  13.325 -0.2052 -0.1855  0.0040
 6657W        W26191  18.412  17.444  10.067 -0.0857 -0.3310 -0.1284
 6658W        W26192   1.634   8.446   3.435  0.2133 -0.1201  0.1678
 6659W        W26193   0.297   1.679  10.611  0.2408 -0.2169  0.3510
 6660W        W26194   7.375   0.828  12.051  0.0761  0.0802 -0.0029
 6661W        W26195  12.401  14.833   3.646 -0.1353 -0.0738 -0.3005
 6662W        W26196   7.678   1.233   0.878 -0.0819  0.2713 -0.1934
 6663W        W26197   9.663  14.648   1.138 -0.1693 -0.2452  0.0546
 6664W        W26198   6.243   3.647   0.745  0.0396  0.1654  0.0624
 6665W        W26199   8.648   6.869   0.532  0.0321  0.0348 -0.0404
 6666W        W26200  12.028  18.451  10.707 -0.1398 -0.1536  0.0084
 6667W        W26201   6.369   7.630   3.657 -0.0742  0.3859  0.0567
 6668W        W26202  11.117   4.964  14.220 -0.0214  0.2110  0.2061
 6669W        W26203  13.471   1.643   1.837 -0.1786  0.0538  0.0747
 6670W        W26204   6.801   7.304   3.068  0.1957  0.2918  0.0126
 6671W        W26205  10.551   0.034  12.034  0.2389  0.3562 -0.1873
 6672W        W26206   3.724  15.446  10.791  0.1888 -0.0708  0.0286
 6673W        W26207   4.911  14.939   3.825  0.0843  0.2086  0.0114
 6674W        W26208   0.834  15.111   5.297  0.1163  0.3120 -0.1447
 6675W        W26209   1.975  10.681  14.320 -0.0293  0.1524 -0.5532
 6676W        W26210   6.183  13.753  14.329  0.1812 -0.1727  0.0136
 6677W        W26211  13.088   6.875  12.692 -0.2641 -0.4791  0.3339
 6678W        W26212  18.855   9.088  13.876 -0.1755  0.1272  0.2189
 6679W        W26213  14.856   5.102   2.996 -0.1884  0.0184 -0.1037
 6680W        W26214  15.810  19.036   0.544  0.2854 -0.0563 -0.1337
 6681W        W26215   0.754   5.253   0.045 -0.0329  0.0288  0.1605
 6682W        W26216  15.326  16.326   2.185 -0.4280  0.1835  0.1627
 6683W        W26217  11.337  11.364   1.790 -0.3585 -0.2413 -0.2134
 6684W        W26218   0.538   4.644  11.662  0.3045  0.0756  0.2257
 6685W        W26219  12.627   7.971   0.397  0.5826 -0.2713  0.0610
 6686W        W26220  12.504  15.344   1.465  0.0013  0.0888  0.0653
 6687W        W26221  16.440  17.725  11.325 -0.1604 -0.4017 -0.0170
 6688W        W26222  17.685  10.289  10.271  0.3328  0.0213  0.2028
 6689W        W26223   2.345   3.695  13.043 -0.0944 -0.0310 -0.0831
 6690W        W26224   2.209   6.657  13.216  0.0577  0.4538  0.0620
 6691W        W26225  16.705  17.022  12.395  0.1566 -0.0108 -0.3697
 6692W        W26226   6.870   4.919  11.902  0.3947 -0.1134  0.1024
 6693W        W26227  19.379  11.294   0.373 -0.1380 -0.2883  0.1631
 6694W        W26228  19.058   4.170   3.857  0.2503 -0.0977 -0.3417
 6695W        W26229   3.576   4.065   1.573  0.3232  0.0958 -0.0540
 6696W        W26230   6.848  10.615   3.135 -0.0264 -0.3943 -0.1682
 6697W        W26231   3.040   9.379   1.237  0.1209 -0.7283 -0.0062
 6698W        W26232   8.886  12.326  13.971  0.2908  0.3371 -0.5524
 6699W        W26233   0.939  15.090  13.143 -0.0116  0.0815  0.1566
 6700W        W26234   3.872   2.497  12.625 -0.1698  0.0626 -0.2190
 6701W        W26235   5.794  11.686  12.014  0.0210 -0.2572 -0.0748
 6702W        W26236   1.467  10.231  11.446  0.0013  0.0217  0.0894
 6703W        W26237  15.130  16.554   1.311 -0.1478  0.0725 -0.0390
 6704W        W26238   8.551   4.793  11.527 -0.1414  0.2260  0.2104
 6705W        W26239   8.029   0.731   1.636  0.1525 -0.0187  0.2167
 6706W        W26240  11.588   0.028  10.271  0.0610 -0.1124 -0.1537
 6707W        W26241  11.832  12.064  11.033 -0.1086  0.1583  0.0905
 6708W        W26242  14.000  14.066   4.287 -0.0200  0.0880 -0.2289
 6709W        W26243   8.021   1.760   2.099  0.2375  0.1198 -0.0306
 6710W        W26244   9.751   1.306   2.818 -0.4594  0.2918 -0.0191
 6711W        W26245  15.699  13.935  12.256 -0.1729 -0.0730 -0.0965
 6712W        W26246   3.388   0.490  14.250  0.1962  0.0309 -0.0624
 6713W        W26247  15.209   9.076  10.385 -0.1731 -0.1038  0.1754
 6714W        W26248  14.914   4.028   2.293 -0.0404  0.2900  0.0333
 6715W        W26249   9.464   6.284   0.817  0.3428 -0.0986  0.1578
 6716W        W26250   4.855   4.972   2.324 -0.3509  0.2107  0.2084
 6717W        W26251  17.473  18.985   1.763  0.1636 -0.0896 -0.1318
 6718W        W26252   7.728   4.025   3.776 -0.0140  0.0734 -0.0154
 6719W        W26253  10.820   8.690   1.462  0.1957  0.2527 -0.1373
 6720W        W26254   9.776  11.935  11.398  0.2087 -0.3353  0.0149
 6721W        W26255   9.918   9.037  14.077  0.1467  0.1068 -0.2157
 6722W        W26256   0.290  16.046  10.285 -0.1788 -0.0553 -0.1957
 6723W        W26257  15.475   3.236  10.935  0.2428  0.2421 -0.0291
 6724W        W26258   0.219  16.531  10.683 -0.3845 -0.0227 -0.0403
 6725W        W26259  14.661  12.412  13.165  0.2031  0.0556  0.1912
 6726W        W26260   5.594  11.734   5.263 -0.1394  0.0003  0.1079
 6727W        W26261   3.036   1.766  13.287 -0.0529 -0.0378 -0.1237
 6728W        W26262   4.196   9.962   0.962 -0.0497  0.1294 -0.1086
 6729W        W26263   0.859   2.124  11.330  0.1567  0.0951 -0.0198
 6730W        W26264  17.968  11.685  10.805 -0.1530 -0.1517  0.2096
 6731W        W26265   0.190   4.595   3.267  0.2341  0.0139 -0.2276
 6732W        W26266   4.015  16.327  12.608 -0.0020 -0.1573 -0.0485
 6733W        W26267  14.722  12.480   2.744 -0.0191 -0.0688  0.1539
 6734W        W26268  14.161   2.166  13.732  0.1475  0.2898 -0.0919
 6735W        W26269  11.213  19.255   3.134 -0.0579  0.1053 -0.1565
 6736W        W26270  10.257   1.389   2.624  0.2740  0.0882  0.1746
 6737W        W26271   0.555   0.436   4.240  0.0758  0.4574 -0.0242
 6738W        W26272   6.422   3.241  13.348  0.0306  0.2980  0.3404
 6739W        W26273   4.668  16.207  12.031 -0.0298  0.2549  0.2320
 6740W        W26274   9.522  16.771   0.509  0.0665  0.0157 -0.1691
 6741W        W26275  17.082  13.672  12.795 -0.0499 -0.0584 -0.1303
 6742W        W26276  18.238  14.615  10.310  0.2272 -0.1679  0.0701
 6743W        W26277  12.631  10.358   2.739  0.1953 -0.1387  0.0829
 6744W        W26278   3.731  14.620   0.618  0.1529  0.1040 -0.0510
 6745W        W26279  14.972   0.935   2.888 -0.0648 -0.3258  0.2449
 6746W        W26280  17.498   5.749   2.652 -0.1020  0.0337 -0.0162
 6747W        W26281   9.948  12.035   2.304  0.2605  0.4113  0.0303
 6748W        W26282   0.212   4.435  12.075  0.0232  0.1672 -0.1212
 6749W        W26283   5.174   2.192  12.824  0.0363  0.2007  0.1516
 6750W        W26284  18.135   1.580   3.845  0.0264 -0.0076 -0.0166
 6751W        W26285  18.580   6.874  12.464  0.0766 -0.2308 -0.0345
 6752W        W26286   2.948   1.620   0.186  0.1902  0.0889 -0.0826
 6753W        W26287   3.980   7.980  10.927  0.0261 -0.1831  0.0117
 6754W        W26288  11.177  11.894   1.489  0.0000  0.2453 -0.1025
 6755W        W26289   9.941   5.257   2.214  0.0250  0.3007 -0.1016
 6756W        W26290   9.876  19.288   2.076 -0.1674  0.1047  0.0229
 6757W        W26291  16.379   1.420   2.242  0.0157  0.4296  0.3630
 6758W        W26292  11.033   9.916  11.337  0.0344  0.1117 -0.4138
 6759W        W26293   1.624  16.165   1.053 -0.1107 -0.1729  0.2718
 6760W        W26294   3.384  11.182  14.048  0.1701 -0.1844 -0.0206
 6761W        W26295  12.086  10.861   1.812 -0.0272  0.1131 -0.4347
 6762W        W26296  14.156   4.319   2.643 -0.1347 -0.1746  0.1724
 6763W        W26297   8.994  17.349   4.673 -0.2845 -0.0582  0.1103
 6764W        W26298   6.636  10.081   1.472 -0.1443  0.1780  0.0489
 6765W        W26299  17.245   2.717   4.947  0.1478  0.1465 -0.1278
 6766W        W26300   1.292  16.701   3.121  0.3592  0.2714  0.0387
 6767W        W26301  11.040   0.538   0.119 -0.0733 -0.0558  0.0953
 6768W        W26302  13.484  12.330   2.034 -0.1872 -0.0296 -0.1485
 6769W        W26303   8.681  16.568   0.351 -0.3931  0.2497  0.0377
 6770W        W26304  13.659   0.557  13.996  0.1368  0.0936  0.2225
 6771W        W26305  18.141  13.932   3.226  0.1803 -0.0735  0.1254
 6772W        W26306  10.907  17.235  13.120 -0.3282 -0.0415  0.0073
 6773W        W26307   7.707  18.244   4.141 -0.1681 -0.0605 -0.0359
 6774W        W26308  12.942   9.863  14.252 -0.3269 -0.2181  0.0339
 6775W        W26309   1.349  15.775   1.213  0.1402  0.3363 -0.3619
 6776W        W26310   4.549   6.300   1.573  0.0215 -0.1216  0.0116
 6777W        W26311   1.760  10.246  13.688  0.0549  0.0141  0.2677
 6778W        W26312  16.678   6.264   3.436  0.1549  0.2281 -0.1735
 6779W        W26313  11.113   8.514   4.347  0.2909  0.1611  0.0734
 6780W        W26314  15.602   3.244   1.062  0.2517 -0.2196 -0.0518
 6781W        W26315   5.165   4.600  14.323  0.0526  0.0097 -0.2931
 6782W        W26316   6.496  16.052   0.661 -0.0585 -0.1167  0.2419
 6783W        W26317  13.369   2.636   2.008  0.3484  0.0570 -0.1862
 6784W        W26318  10.106   6.364  14.240  0.2116  0.0001 -0.0507
 6785W        W26319  16.133   0.491   9.096  0.2234 -0.1461 -0.0025
 6786W        W26320  12.804   2.607   2.521  0.0289 -0.2503  0.2163
 6787W        W26321  18.821   9.017   1.154 -0.0293 -0.3828  0.0779
 6788W        W26322   8.408  18.626  13.144 -0.1773 -0.2455  0.4103
 6789W        W26323   7.007   8.203   9.858 -0.0605 -0.0393 -0.4189
 6790W        W26324   9.406   4.165  11.927  0.1175 -0.1896  0.1640
 6791W        W26325  18.617   3.999   3.999 -0.1349  0.3249  0.1978
 6792W        W26326  11.840  13.401   1.923  0.1768 -0.2432 -0.0125
 6793W        W26327   4.327   4.087   2.811 -0.0306 -0.0560  0.0516
 6794W        W26328   7.828   8.479   0.492  0.0288 -0.2085  0.0510
 6795W        W26329  11.711  11.768  12.372 -0.4261  0.1098 -0.1151
 6796W        W26330   1.488  12.780   2.457 -0.1208  0.1081  0.0252
 6797W        W26331   2.932   2.298   4.377 -0.0778 -0.1789  0.3220
 6798W        W26332  11.043   8.193   2.797  0.2942  0.0307  0.0803
 6799W        W26333   9.627   5.831   1.061 -0.3331  0.2035  0.2644
 6800W        W26334  18.861   7.587   4.037 -0.0271 -0.0683  0.2522
 6801W        W26335  13.053   3.034   3.947  0.4347  0.2440 -0.0627
 6802W        W26336   1.254   7.844   0.880  0.3300 -0.1484 -0.0832
 6803W        W26337  15.242   7.288  13.646  0.1745 -0.1585  0.2074
 6804W        W26338   6.327   1.534   4.160  0.2228 -0.1764  0.0475
 6805W        W26339   8.707  17.879  10.079  0.0669 -0.2331 -0.0797
 6806W        W26340  15.160  16.908   0.421 -0.0463 -0.0289  0.0339
 6807W        W26341   9.676  18.629   2.617  0.1580  0.1915  0.0458
 6808W        W26342  14.190  13.765  13.494 -0.4024  0.2914  0.0532
 6809W        W26343   1.158   0.939  13.873  0.1046  0.0387  0.2181
 6810W        W26344   2.400   6.083   2.439  0.1503 -0.1449 -0.0644
 6811W        W26345   9.192  15.316   9.430  0.2451 -0.0880  0.2254
 6812W        W26346   8.151  19.243  11.855 -0.2536 -0.1059  0.0536
 6813W        W26347  12.147   1.408  14.307  0.1510 -0.3410  0.1166
 6814W        W26348  15.752  13.692  10.095 -0.1572 -0.3754 -0.1430
 6815W        W26349  13.724   2.744   1.647  0.3811 -0.0612 -0.3212
 6816W        W26350  12.550   7.462   3.190  0.0720 -0.0225  0.2232
 6817W        W26351  17.965   8.669  11.863 -0.1620 -0.0461  0.1929
 6818W        W26352   9.319   5.191   2.767 -0.2447  0.0771 -0.0257
 6819W        W26353   8.412  13.178  11.747 -0.2535  0.1513 -0.2732
 6820W        W26354  15.242  19.128  13.283 -0.1425  0.1677 -0.1517
 6821W        W26355   1.851   6.222  13.310  0.2535 -0.0349  0.1177
 6822W        W26356   5.909  17.809  12.850  0.1769 -0.1900 -0.0745
 6823W        W26357  14.469   5.346  11.498 -0.4047  0.5452 -0.0665
 6824W        W26358  15.219   2.719  10.120  0.0606  0.1103 -0.0233
 6825W        W26359   5.264  12.291  11.816  0.1563  0.0557 -0.1658
 6826W        W26360  18.840  11.716   2.900  0.0611  0.0679 -0.1245
 6827W        W26361   6.850   9.465   4.084 -0.0498 -0.2374  0.0865
 6828W        W26362   8.642   2.650  13.000 -0.0735  0.1690 -0.4299
 6829W        W26363  16.200   0.416   3.567  0.1702 -0.1698 -0.0101
 6830W        W26364   3.812  18.762  11.040 -0.1177  0.0674  0.3302
 6831W        W26365   5.027  19.240   3.323 -0.0766  0.0724 -0.0058
 6832W        W26366   8.231  17.455  10.635 -0.2451 -0.0923  0.0404
 6833W        W26367   1.557   6.008   0.592 -0.1642  0.2303 -0.2612
 6834W        W26368  17.481  12.101   0.995  0.0942 -0.3648 -0.1417
 6835W        W26369  13.289  18.403  13.602  0.0824  0.1228  0.3942
 6836W        W26370   4.427  16.001  13.747 -0.3773  0.3325 -0.3272
 6837W        W26371  15.550   5.600   3.852  0.0674 -0.1336 -0.1013
 6838W        W26372   9.714   7.129  11.638  0.0035 -0.0289 -0.0332
 6839W        W26373   3.641  13.484  11.363  0.1751 -0.1722  0.2673
 6840W        W26374  16.775   9.876   1.242 -0.1958 -0.1441  0.2954
 6841W        W26375  15.438  16.098   2.598 -0.2108  0.0923  0.2588
 6842W        W26376  10.187   3.299  13.410 -0.0778  0.3139 -0.0374
 6843W        W26377   9.021  15.230   2.366  0.0493 -0.2214 -0.0268
 6844W        W26378   6.712   2.133   1.895  0.0682 -0.1708  0.1720
 6845W        W26379  12.641   8.801  11.282  0.1272  0.3477 -0.1103
 6846W        W26380   9.496  14.861  14.139 -0.0886  0.0007  0.1733
 6847W        W26381  11.127   6.904   2.004 -0.0668 -0.1056  0.1765
 6848W        W26382   2.249  10.313  10.573  0.2921  0.2080 -0.1524
 6849W        W26383   5.919   0.607   2.371  0.0419 -0.0154 -0.0916
 6850W        W26384  18.454   4.932   1.204 -0.0890  0.1683  0.1407
 6851W        W26385  12.453  13.571  13.930 -0.0077  0.3230 -0.2245
 6852W        W26386  18.023   3.649  11.211  0.0645  0.0834 -0.2921
 6853W        W26387  15.299   6.057   0.314  0.3340 -0.0818 -0.0636
 6854W        W26388   9.202   4.186   0.243  0.1117 -0.0918  0.4451
 6855W        W26389  16.192  15.887  12.593  0.2215  0.0062 -0.0730
 6856W        W26390   3.590  13.969   4.569 -0.1235 -0.1666 -0.3435
 6857W        W26391   8.352  17.918  12.826 -0.0377 -0.1418 -0.2212
 6858W        W26392  15.796  10.369   3.797  0.1152 -0.1064 -0.2331
 6859W        W26393  17.039   2.722  13.791  0.1933  0.0720 -0.2963
 6860W        W26394   2.572   6.775  14.184 -0.1010  0.4383  0.0926
 6861W        W26395   7.747   6.537   0.877 -0.0554 -0.1225 -0.1743
 6862W        W26396   9.481   2.341   2.728  0.0318  0.0167  0.0207
 6863W        W26397  16.461  11.666   0.375  0.1690  0.0865  0.4058
 6864W        W26398  12.015  12.859   3.603  0.3290  0.2150 -0.0525
 6865W        W26399   5.449  13.956  13.766 -0.0380  0.1618 -0.0869
 6866W        W26400  13.486   1.027  11.312  0.0562 -0.2282  0.2130
 6867W        W26401   4.597   7.556  13.445  0.0781  0.3217  0.2995
 6868W        W26402   9.994  13.877   1.222  0.1368  0.0497  0.3345
 6869W        W26403  10.015  14.406   1.898  0.0857  0.2174  0.0251
 6870W        W26404  16.689  17.996   2.348 -0.3176 -0.1068 -0.3675
 6871W        W26405  16.853   1.928   1.345  0.1157  0.2007  0.1548
 6872W        W26406  18.731   4.687   1.636 -0.3740  0.2775  0.0776
 6873W        W26407   6.160  17.098   2.375  0.3422  0.1232 -0.0213
 6874W        W26408  14.823   9.937   1.340 -0.2101  0.2449 -0.0653
 6875W        W26409  14.144   1.645  11.946  0.1573  0.1172 -0.2979
 6876W        W26410   1.576  14.633  13.784 -0.0695 -0.1488  0.0724
 6877W        W26411  19.225  17.170   3.322 -0.0558  0.1694  0.3701
 6878W        W26412   6.433  19.026  10.430  0.3640 -0.0493  0.1482
 6879W        W26413   6.910  17.519   1.283 -0.0679  0.0306 -0.1484
 6880W        W26414  18.416  11.925   2.669 -0.3234 -0.0070  0.0787
 6881W        W26415   6.137   6.213   2.843 -0.0206 -0.3029 -0.1521
 6882W        W26416   3.614   2.095   0.212 -0.0094  0.0477  0.1233
 6883W        W26417   8.194  18.615  11.009 -0.0209 -0.1924 -0.0578
 6884W        W26418  17.945   7.066   1.566 -0.1523  0.1156 -0.2213
 6885W        W26419  16.050   2.344  11.270 -0.1140 -0.1808 -0.0035
 6886W        W26420   1.943   4.574   0.550 -0.4043  0.2919 -0.1453
 6887W        W26421  12.935   9.587  11.655  0.1591  0.0290  0.2937
 6888W        W26422   1.981  16.137   2.988 -0.0457 -0.2618 -0.4053
 6889W        W26423  14.696  18.059  14.183  0.2000  0.2398 -0.1048
 6890W        W26424  15.513   2.233   3.191 -0.3220  0.0536 -0.1755
 6891W        W26425  11.642   6.042  14.137 -0.2192 -0.1693  0.0751
 6892W        W26426  16.175   7.297   0.314  0.0793 -0.1190  0.0096
 6893W        W26427   8.159  10.948  11.841  0.0299  0.0812  0.0522
 6894W        W26428   7.788  16.162  14.083 -0.0075  0.2105  0.2147
 6895W        W26429  14.708  10.042  13.511 -0.3019 -0.0938  0.2236
 6896W        W26430  19.070   0.322  12.799 -0.2054 -0.1065  0.1215
 6897W        W26431   7.707  17.422  10.695  0.1123  0.1153 -0.0523
 6898W        W26432  10.932  11.445   0.114 -0.0717  0.2802 -0.2725
 6899W        W26433  18.998   1.419  10.466  0.0587  0.1266 -0.2174
 6900W        W26434  11.259  14.274   9.758  0.2646 -0.1531  0.1214
 6901W        W26435  11.957   2.220   2.111  0.1466  0.0342 -0.1437
 6902W        W26436  19.265   6.054  12.597  0.2125 -0.0175 -0.3279
 6903W        W26437  15.123   5.140  11.317 -0.0359  0.1702  0.0889
 6904W        W26438  18.203  13.975  10.747 -0.1809 -0.0503 -0.2269
 6905W        W26439  15.105  17.699   2.239  0.0391 -0.2918 -0.0940
 6906W        W26440  14.880  18.209  13.491 -0.1331  0.0276 -0.3173
 6907W        W26441  17.629  15.198  11.696 -0.1405 -0.1257  0.1742
 6908W        W26442   8.977   5.847   3.304  0.3267 -0.1550  0.0126
 6909W        W26443   5.275   2.360   4.023 -0.1467  0.0976  0.0563
 6910W        W26444  13.263   6.576   1.831 -0.1666  0.0681 -0.0207
 6911W        W26445  12.187   9.203  11.209  0.1709  0.0406 -0.1183
 6912W        W26446   5.660   1.588  12.033 -0.2420 -0.0426 -0.1329
 6913W        W26447  13.840   4.160  10.875 -0.0332 -0.1025 -0.0772
 6914W        W26448   9.591   8.471   0.198 -0.1146 -0.4015  0.2539
 6915W        W26449   7.856   5.897  12.897  0.0272  0.0066 -0.1857
 6916W        W26450   3.315   6.739   0.219  0.1315 -0.1285 -0.1756
 6917W        W26451  17.965  16.405  11.999  0.3126  0.0914  0.1845
 6918W        W26452   4.915  14.466   1.313 -0.1912  0.1241  0.1575
 6919W        W26453  18.906   7.822   9.844 -0.0965 -0.2441  0.1953
 6920W        W26454   0.323   4.340  12.575 -0.2073  0.0997 -0.1705
 6921W        W26455   7.394  13.270   0.891 -0.4613 -0.1240 -0.1346
 6922W        W26456   6.983   6.920   4.403 -0.1822  0.0555  0.0980
 6923W        W26457   9.640   1.888   0.213 -0.0542  0.0038 -0.0444
 6924W        W26458   5.824   6.619  11.069  0.0559  0.0590  0.2117
 6925W        W26459  17.310   5.498   3.564 -0.1030 -0.0418 -0.0707
 6926W        W26460   7.559  14.006  11.099 -0.3018 -0.1636 -0.0301
 6927W        W26461  10.170  15.317   4.251  0.0295 -0.1484  0.0529
 6928W        W26462  17.455  18.277   0.003  0.1081  0.1634  0.3977
 6929W        W26463   8.825  11.333   0.105  0.0795  0.0744 -0.0341
 6930W        W26464   0.200   5.362   9.888  0.0401  0.2448 -0.3254
 6931W        W26465   6.037  12.423  12.066  0.0596 -0.0135  0.1381
 6932W        W26466   3.007   4.631   1.109  0.2552  0.0097  0.0011
 6933W        W26467  15.292   2.936   2.563  0.5776 -0.2380 -0.1345
 6934W        W26468  16.700  16.282   0.598 -0.0699  0.1731 -0.3521
 6935W        W26469  12.085   6.234  11.287 -0.0261 -0.0097 -0.1506
 6936W        W26470  17.777   6.428  10.876  0.1809  0.0702  0.2256
 6937W        W26471  15.685   2.472   1.154 -0.2846  0.0768 -0.3908
 6938W        W26472  16.907   7.367  11.288  0.0309  0.1243 -0.0413
 6939W        W26473  10.272  13.299   3.665 -0.4002  0.1117 -0.2216
 6940W        W26474   7.283   4.052   4.138 -0.0973 -0.2059 -0.1425
 6941W        W26475   2.274   9.184  12.236  0.0507 -0.0645  0.3329
 6942W        W26476   2.649   8.524   2.543 -0.0281  0.0172 -0.0887
 6943W        W26477  18.503  17.710   2.266 -0.2339  0.2614  0.2210
 6944W        W26478  16.600   5.715  12.307  0.1057  0.3556  0.0117
 6945W        W26479   1.518  17.768   3.138 -0.0369 -0.1355  0.0293
 6946W        W26480   0.356  15.650   3.277 -0.2034  0.1854 -0.0060
 6947W        W26481  14.058   1.849  10.972  0.2927  0.0902 -0.1348
 6948W        W26482   1.275  17.413  10.656 -0.0138 -0.3336  0.1855
 6949W        W26483   1.502  12.232   3.489  0.0282  0.0681 -0.0393
 6950W        W26484  16.591   3.057  10.882  0.1311 -0.1830 -0.1745
 6951W        W26485  18.304  19.495   0.266 -0.1925 -0.1606  0.0980
 6952W        W26486  11.217   1.597  11.486 -0.1713 -0.1080 -0.0061
 6953W        W26487   2.307   9.443   4.288 -0.3238 -0.2087 -0.0996
 6954W        W26488  11.796  15.931  13.724  0.2325 -0.1069  0.0938
 6955W        W26489  10.460  19.233  12.861  0.1413  0.3650 -0.1354
 6956W        W26490   1.027   5.504  12.887  0.2158  0.2431 -0.1437
 6957W        W26491  17.282  14.686  13.865  0.0185 -0.1102 -0.1381
 6958W        W26492  10.571   1.492   4.463  0.0838  0.1084  0.0531
 6959W        W26493   9.563   7.226   2.701 -0.0784 -0.0022  0.2784
 6960W        W26494  14.132  16.625  11.833  0.0050  0.0841 -0.0263
 6961W        W26495  15.890  19.379  10.775 -0.0453 -0.2020  0.0954
 6962W        W26496  15.087   4.475   1.255  0.1728 -0.0498 -0.1391
 6963W        W26497  12.857  18.898  12.534 -0.1223  0.0356  0.0880
 6964W        W26498  19.419  15.555   0.276  0.0861  0.0659  0.0617
 6965W        W26499   4.511  13.981  12.264 -0.1395  0.0422 -0.0104
 6966W        W26500  14.452  13.521  12.665  0.0773  0.2054  0.1229
 6967W        W26501   7.631  12.449  13.304 -0.2396  0.0181 -0.3813
 6968W        W26502   4.759   3.438   2.007  0.3006 -0.0210  0.0399
 6969W        W26503  11.392   8.802   3.060 -0.2918  0.1853 -0.0836
 6970W        W26504  18.438   7.834   3.527 -0.1517 -0.2535  0.1809
 6971W        W26505  16.695  15.159  11.527  0.1714  0.0429  0.0838
 6972W        W26506   0.323   2.931   1.353  0.2360 -0.2154  0.1863
 6973W        W26507   4.236  11.389  12.104  0.0736  0.0489 -0.1490
 6974W        W26508  10.495   3.133   2.890  0.0731  0.0299 -0.1701
 6975W        W26509  17.286  10.460   0.565  0.2505  0.0603 -0.2342
 6976W        W26510   1.562   1.759   1.415 -0.2052 -0.0384 -0.0436
 6977W        W26511  11.610  17.345   4.344  0.1121  0.2026 -0.6825
 6978W        W26512  12.093  13.443  12.571  0.1436 -0.0603 -0.0080
 6979W        W26513  13.370  11.313  13.585 -0.0565 -0.2277 -0.0805
 6980W        W26514  17.936   6.255   3.621  0.0863 -0.2219  0.0990
 6981W        W26515  19.483  11.556   1.784 -0.1621  0.2900  0.1045
 6982W        W26516   6.612  17.187   0.446  0.3419 -0.0578 -0.2872
 6983W        W26517  16.223  16.160   2.266 -0.1092  0.2765  0.0559
 6984W        W26518  19.095   6.138   1.885 -0.1210 -0.2947 -0.0875
 6985W        W26519  14.726  17.767   3.198 -0.2681 -0.2892  0.0912
 6986W        W26520   8.929  10.708  12.704 -0.1420  0.1879 -0.1769
 6987W        W26521   6.356  18.320  11.978  0.1753 -0.3522  0.2401
 6988W        W26522   8.360   3.108  11.841  0.1914  0.3126  0.2051
 6989W        W26523   2.325   4.015   1.113  0.1627  0.0262  0.0883
 6990W        W26524   4.114  15.065   2.479  0.0659  0.0467 -0.1271
 6991W        W26525  14.023   8.751  11.696  0.0808 -0.0035 -0.1715
 6992W        W26526   7.496   9.399   3.250 -0.0822  0.1230  0.3372
 6993W        W26527  11.843  16.029   0.432  0.0582  0.0497  0.2728
 6994W        W26528   7.857  18.837  10.692  0.0240 -0.0284 -0.1710
 6995W        W26529   2.312   2.501  11.101  0.2592 -0.0819 -0.0064
 6996W        W26530  15.169  11.284  12.152  0.1897 -0.0292 -0.0250
 6997W        W26531   6.417   1.932   2.861  0.2759  0.2206 -0.0846
 6998W        W26532   0.109   2.984   3.086  0.0012 -0.0119 -0.0871
 6999W        W26533  14.266   3.845   3.912  0.2391  0.0222 -0.1547
 7000W        W26534   6.096  16.303  13.341  0.1576  0.4250 -0.0584
 7001W        W26535   6.475   1.991  13.678  0.0449 -0.1115 -0.2688
 7002W        W26536   9.405   9.173   0.407  0.2721 -0.2515  0.0269
 7003W        W26537   3.977   0.282  11.217  0.1296  0.1956 -0.1052
 7004W        W26538   3.421   4.999   0.985  0.0775 -0.2017 -0.2365
 7005W        W26539   0.109   1.982   3.345 -0.1299  0.0816 -0.0626
 7006W        W26540  16.465   2.544  10.663 -0.2527 -0.0745  0.4696
 7007W        W26541   9.349  18.246  10.734  0.2603  0.0636 -0.2632
 7008W        W26542  14.814  16.197   2.077 -0.0509 -0.2873 -0.1821
 7009W        W26543  13.974  16.903   2.184  0.2259 -0.0271  0.0253
 7010W        W26544   4.902   6.095   1.297 -0.0856 -0.1108 -0.6865
 7011W        W26545  15.272   0.444   0.545  0.1652  0.2248  0.0244
 7012W        W26546  11.847   7.112   2.536 -0.0785  0.1596 -0.2139
 7013W        W26547  18.202   5.041  11.142  0.0484  0.0072 -0.0742
 7014W        W26548  15.551  15.921  11.431 -0.3566  0.0217 -0.0028
 7015W        W26549  14.036   8.168   1.228  0.2670 -0.3265  0.2886
 7016W        W26550  19.475  17.159  12.840 -0.2091 -0.1758  0.1854
 7017W        W26551   0.408   6.995   2.726  0.1205  0.0100  0.2881
 7018W        W26552  15.869  17.952   1.376  0.0626 -0.1282  0.5774
 7019W        W26553  13.266   1.735   0.356  0.1911 -0.3675  0.2891
 7020W        W26554   2.909  15.130   1.868 -0.1235 -0.0458 -0.0020
 7021W        W26555  14.208   0.891   1.143  0.0379 -0.1753  0.2003
 7022W        W26556  15.350  10.725   1.856 -0.1166  0.4017  0.1705
 7023W        W26557   5.631   1.824  13.513  0.1052  0.0650 -0.0832
 7024W        W26558   3.597   3.512  11.701  0.3193 -0.0486  0.0713
 7025W        W26559   1.214   6.775  13.656  0.0228 -0.1023 -0.0236
 7026W        W26560  15.102  11.716   0.935 -0.1938  0.2145 -0.0233
 7027W        W26561  13.084  15.267   2.499  0.2224  0.0277 -0.0959
 7028W        W26562   3.761   5.596  10.879  0.0646 -0.0849  0.3245
 7029W        W26563  18.794  12.373   3.317  0.1485 -0.1873 -0.2831
 7030W        W26564   6.684   5.010  12.893  0.1462 -0.1324 -0.0997
 7031W        W26565   9.029   7.709  11.907 -0.0404  0.1021 -0.0346
 7032W        W26566  15.776   6.805   9.322  0.2748 -0.2219 -0.1208
 7033W        W26567  19.352  12.064  11.535  0.1060 -0.0017  0.1673
 7034W        W26568  17.269   6.672   2.798  0.0583 -0.0682 -0.0833
 7035W        W26569   2.942  16.076  13.110 -0.1021 -0.0623 -0.3783
 7036W        W26570   1.417   4.694  13.212 -0.0134  0.1667 -0.0414
 7037W        W26571   4.191   2.848   0.086 -0.1449 -0.0449  0.1272
 7038W        W26572   4.532  11.947  10.593 -0.1215 -0.1245 -0.1815
 7039W        W26573  18.052  10.943   2.343  0.1995  0.0424  0.0944
 7040W        W26574  17.860   2.510   3.158  0.1882  0.1607 -0.1768
 7041W        W26575  19.383  18.129   2.253 -0.0113 -0.1451  0.0917
 7042W        W26576  16.963   6.126  12.214 -0.0462 -0.0544  0.1070
 7043W        W26577   9.425  10.583  11.800 -0.0366  0.1482  0.1046
 7044W        W26578   9.005  17.770   2.969  0.2366 -0.0249 -0.1384
 7045W        W26579   7.889   4.723   2.160  0.0513 -0.0944 -0.1259
 7046W        W26580  13.027   1.199  11.454 -0.1696  0.0309  0.3040
 7047W        W26581   1.790   4.330  14.178  0.2674 -0.0776 -0.3521
 7048W        W26582   3.984   8.616   2.179  0.0029  0.0384 -0.1205
 7049W        W26583  18.689   2.470  11.982 -0.0690  0.2657  0.2725
 7050W        W26584  17.226  17.712   1.094 -0.2135  0.0223 -0.1718
 7051W        W26585  19.431  16.582   0.517 -0.0892 -0.2784 -0.0654
 7052W        W26586   8.857  12.828  12.559 -0.1156 -0.0874  0.1954
 7053W        W26587  17.439  15.075  12.151  0.0763 -0.1046  0.2121
 7054W        W26588  16.163   2.468   1.363  0.2988 -0.0163 -0.0378
 7055W        W26589  11.037   2.062   3.180 -0.2096  0.0373  0.1414
 7056W        W26590  13.961   6.518   3.749  0.2496  0.1043 -0.0490
 7057W        W26591   8.109   2.740   1.998  0.0561  0.0009  0.1624
 7058W        W26592   8.067  14.070   3.907  0.2588 -0.2631 -0.0301
 7059W        W26593   9.253  13.434   1.723  0.0965 -0.1716 -0.1002
 7060W        W26594  10.161   7.082  14.147 -0.0338  0.1772  0.0742
 7061W        W26595  15.096   2.876   1.877 -0.3730 -0.0287 -0.0481
 7062W        W26596   3.042   2.626   3.888 -0.1939 -0.0654 -0.1617
 7063W        W26597  15.988  12.780   4.696  0.3057 -0.1933  0.0339
 7064W        W26598   3.259  18.311   2.673 -0.0209 -0.1780 -0.1764
 7065W        W26599  16.391   5.542   0.927 -0.0588 -0.0672  0.1053
 7066W        W26600  14.849  18.565   3.071  0.0224  0.1745  0.2310
 7067W        W26601  10.101  12.017   0.599  0.1626 -0.1753  0.1876
 7068W        W26602   0.707   1.024   2.884 -0.2163 -0.1566  0.1193
 7069W        W26603   8.288  10.763   1.544  0.1844  0.0507  0.0544
 7070W        W26604   2.451  17.257   1.577 -0.3154 -0.0517 -0.1434
 7071W        W26605  16.138  14.373   2.275  0.2452 -0.0355 -0.2572
 7072W        W26606   2.217  16.427   2.081 -0.2763  0.3602 -0.1825
 7073W        W26607   3.506  16.726  11.936 -0.1840  0.1033  0.0015
 7074W        W26608   7.770  14.261   0.516 -0.3289 -0.1377 -0.1431
 7075W        W26609   5.760  10.483  13.703 -0.1012  0.3308  0.1667
 7076W        W26610  19.370  13.779  13.758 -0.5072 -0.2132  0.0315
 7077W        W26611   1.462  16.898  13.854 -0.1080  0.2844 -0.1297
 7078W        W26612   1.934  12.126  10.592 -0.2447 -0.2910  0.0680
 7079W        W26613  16.037  12.148  13.729 -0.3312  0.0791  0.1860
 7080W        W26614  12.411   9.522  12.357  0.0946  0.0323 -0.3653
 7081W        W26615   7.507   0.580   3.665  0.2392  0.0858  0.1007
 7082W        W26616   5.445   9.155   2.925  0.1085 -0.0827 -0.0397
 7083W        W26617  12.743   3.393   2.477 -0.1174  0.2256 -0.0649
 7084W        W26618   7.715  12.779  13.707  0.0221 -0.0014 -0.0134
 7085W        W26619  18.275  13.293   3.212  0.0711  0.0930  0.0067
 7086W        W26620   9.626   2.472   0.913 -0.0975 -0.0887  0.3306
 7087W        W26621  18.058   6.003   2.388 -0.1139 -0.5202  0.2182
 7088W        W26622  13.756   6.155   3.380  0.3501  0.0969  0.1068
 7089W        W26623   4.975   7.492   9.530  0.2133 -0.0944 -0.2207
 7090W        W26624   4.292  19.490  10.363  0.0317  0.2533  0.1400
 7091W        W26625   6.659   9.898   4.124 -0.0700 -0.0644 -0.2548
 7092W        W26626  15.947  10.143  13.694  0.1135 -0.0365 -0.1535
 7093W        W26627  13.638   4.572  13.868 -0.0855  0.3266 -0.0252
 7094W        W26628   4.249   8.691   3.590 -0.3758 -0.0906 -0.2290
 7095W        W26629  17.432   7.925   3.920  0.1280  0.0772 -0.0305
 7096W        W26630   9.803   2.130  12.805 -0.2682  0.4197  0.4292
 7097W        W26631   6.794   2.774   1.467  0.0752 -0.0604  0.3622
 7098W        W26632  18.068  11.640   0.709  0.0222 -0.0733  0.0594
 7099W        W26633   5.085  10.451   0.226 -0.0166  0.2123 -0.0087
 7100W        W26634   0.876   6.410  13.426  0.1100 -0.1630  0.2736
 7101W        W26635   5.387   4.857  11.660  0.3617  0.4347  0.3067
 7102W        W26636   7.672   0.476  11.041  0.1742  0.0405 -0.0074
 7103W        W26637  18.004  14.151   1.908  0.2056 -0.1550 -0.0033
 7104W        W26638   7.254  13.931   1.896 -0.1812 -0.0820  0.0258
 7105W        W26639   8.069  19.284   0.510  0.0283  0.0641  0.0625
 7106W        W26640   4.273   6.447  10.962  0.0747  0.0528 -0.0393
 7107W        W26641   8.182  15.038   3.336 -0.2307  0.1436  0.2205
 7108W        W26642  17.495  19.438   2.148 -0.1018 -0.1369  0.0186
 7109W        W26643  18.385   0.136   2.051 -0.1184  0.0763  0.3332
 7110W        W26644  11.216   5.781  11.522  0.0582 -0.3193 -0.2292
 7111W        W26645   5.861  16.388   3.424  0.2730  0.1076 -0.0846
 7112W        W26646   5.138   5.290   1.797 -0.1445  0.2039 -0.0291
 7113W        W26647   7.707  18.637  14.245 -0.1066 -0.2864 -0.3112
 7114W        W26648  17.175   4.969   3.746  0.0296  0.1396  0.1256
 7115W        W26649  17.243   6.359   1.425  0.1752  0.1322 -0.0340
 7116W        W26650  12.107  19.469   0.263 -0.0207 -0.3717 -0.2519
 7117W        W26651   4.711   1.590  13.357 -0.2255 -0.0611 -0.3309
 7118W        W26652  10.334   5.565   0.283 -0.0249 -0.2891 -0.0437
 7119W        W26653  15.001  12.038   2.873  0.0811  0.0884  0.2569
 7120W        W26654   3.679  14.421  12.149  0.0751 -0.4197 -0.0819
 7121W        W26655   9.152  14.238   0.219  0.1461  0.0235 -0.0076
 7122W        W26656  13.059   9.290  13.124  0.1611 -0.0426 -0.0219
 7123W        W26657  16.908   0.417  11.776  0.3002 -0.2802 -0.1605
 7124W        W26658  18.424   0.112   3.195  0.1743  0.2957 -0.1945
 7125W        W26659   1.779   6.044  13.978 -0.0775  0.2654 -0.1971
 7126W        W26660  16.338  15.579   4.254 -0.1955 -0.0866 -0.2394
 7127W        W26661   5.726   8.571   3.538 -0.1539 -0.0296 -0.0070
 7128W        W26662  14.128  14.947   3.626  0.1182 -0.2036 -0.0795
 7129W        W26663  15.403   6.645  14.266 -0.0199 -0.1339 -0.0568
 7130W        W26664   3.152   5.737   4.359  0.1470 -0.1321  0.0724
 7131W        W26665  10.619  14.723   3.571  0.3583  0.2416 -0.0211
 7132W        W26666  17.884  14.143  13.024  0.2389 -0.0679  0.2186
 7133W        W26667  15.218   2.365   1.108  0.1260 -0.5078  0.1120
 7134W        W26668   9.939  19.056  14.085  0.2568 -0.0699  0.0290
 7135W        W26669   4.450   8.259   3.813 -0.1226  0.1437  0.0887
 7136W        W26670   1.151   5.536   0.041 -0.0916 -0.4549  0.1460
 7137W        W26671  10.885   7.592   0.100  0.0841  0.0800 -0.0588
 7138W        W26672   7.578   8.330  10.786  0.1557 -0.1328  0.2058
 7139W        W26673  17.202  12.584   2.220  0.1882 -0.0925 -0.0240
 7140W        W26674   7.907   9.005  14.081  0.1998 -0.0918 -0.0082
 7141W        W26675  13.576   4.614   1.563  0.2009 -0.2857  0.0736
 7142W        W26676  11.171  16.721   3.054  0.2708 -0.1222  0.0300
 7143W        W26677   9.871  19.193   0.474 -0.0006  0.2816 -0.0328
 7144W        W26678  17.141  12.360  14.020 -0.2858 -0.2357  0.2019
 7145W        W26679  15.673  15.676  10.815 -0.3490  0.1999 -0.1599
 7146W        W26680  15.372  15.427  10.191  0.1837  0.3494  0.1986
 7147W        W26681   9.789   1.043   3.260  0.2067  0.0897 -0.0221
 7148W        W26682  15.524   8.681  10.596  0.0444  0.1738 -0.1922
 7149W        W26683  13.138   2.486   9.641  0.2245  0.4069  0.0067
 7150W        W26684  17.830  11.655   3.729 -0.3127  0.0223  0.1268
 7151W        W26685  17.090  16.134   1.120 -0.1895  0.3164  0.2693
 7152W        W26686  17.166  10.445  10.270  0.0859  0.0741  0.0833
 7153W        W26687   2.408  12.331   3.081 -0.0379 -0.3432 -0.0746
 7154W        W26688  13.024  12.064  10.221  0.1819  0.2923 -0.3902
 7155W        W26689   1.551   6.959   3.254 -0.1346 -0.2707 -0.1049
 7156W        W26690  12.266   2.642   2.530  0.1824 -0.0545 -0.4457
 7157W        W26691   8.969   8.906  10.653  0.1215 -0.0293 -0.0802
 7158W        W26692  14.151   2.058   0.500 -0.0296 -0.1205 -0.0666
 7159W        W26693  18.107  17.633  13.510 -0.2338  0.0015 -0.1599
 7160W        W26694   0.796   6.689  10.164  0.2921  0.0874  0.0921
 7161W        W26695  16.605  14.385   2.441  0.0828  0.1270 -0.0104
 7162W        W26696   1.795   8.966   0.813 -0.1833  0.2353 -0.0723
 7163W        W26697   5.977  10.975   0.169 -0.0624 -0.2844 -0.0062
 7164W        W26698  17.817   7.064   3.700  0.0530 -0.0168  0.2683
 7165W        W26699   2.339   2.452  10.549  0.0080 -0.0708 -0.0929
 7166W        W26700   6.274  13.074   2.688  0.3432  0.1468 -0.0309
 7167W        W26701  19.239   7.746  12.117  0.1377 -0.2604  0.0309
 7168W        W26702  10.828  13.739   3.552  0.1552 -0.0487 -0.1116
 7169W        W26703   6.272   7.941   4.132 -0.1790 -0.1579 -0.1937
 7170W        W26704  18.490   2.389   0.443  0.2803 -0.0820  0.1178
 7171W        W26705   6.557  16.864  14.334 -0.2038 -0.1957  0.2368
 7172W        W26706   3.994  17.755  12.594 -0.0442  0.3707 -0.1106
 7173W        W26707   5.481   3.938   2.125 -0.0414  0.2225  0.1628
 7174W        W26708  11.470  10.216  11.069 -0.1540 -0.1215 -0.1325
 7175W        W26709   9.055  10.196   1.947  0.0374  0.2622  0.0459
 7176W        W26710   0.283  10.949   2.354  0.0955  0.1080  0.1078
 7177W        W26711  15.742   2.787   0.704  0.0515 -0.2211 -0.1910
 7178W        W26712  12.801  12.327  13.259 -0.0581  0.1244  0.0612
 7179W        W26713  11.633   5.221   1.174 -0.3367  0.0348 -0.1115
 7180W        W26714   6.199   0.782  10.777 -0.4150  0.0077 -0.0411
 7181W        W26715   4.401   8.612   4.639  0.0390  0.0507 -0.0325
 7182W        W26716   9.496   4.952   0.063 -0.1170 -0.0807  0.4974
 7183W        W26717   0.865   7.468  11.083 -0.0063 -0.2516 -0.1812
 7184W        W26718  19.351   8.309   0.994 -0.1071 -0.2048 -0.2336
 7185W        W26719  15.296   2.085   2.737 -0.0921  0.0383  0.4657
 7186W        W26720   6.311  16.280   2.757  0.0353 -0.1789  0.0465
 7187W        W26721  18.163  10.430   3.652  0.4533  0.1930 -0.1576
 7188W        W26722   2.924  13.272   1.384 -0.1589  0.1814  0.0326
 7189W        W26723  16.249  16.475   1.379  0.0696  0.3099 -0.3086
 7190W        W26724   7.106  15.669  12.504 -0.2617 -0.1629 -0.0166
 7191W        W26725  12.922  12.604  10.192 -0.1071 -0.1532  0.0850
 7192W        W26726   3.392   6.068   3.216 -0.2520 -0.0500 -0.2666
 7193W        W26727  11.557  16.191  10.908 -0.1900  0.2456  0.1467
 7194W        W26728   4.069   8.985  11.559  0.0635  0.1723  0.3228
 7195W        W26729  18.433  13.265   2.385 -0.0700 -0.0545  0.3514
 7196W        W26730  15.727  17.638   0.534 -0.1187 -0.1158 -0.5032
 7197W        W26731   6.514   8.360   3.178 -0.3153 -0.0889  0.1558
 7198W        W26732   9.339   3.392   2.870 -0.0044 -0.1070 -0.2316
 7199W        W26733  14.033   3.727  11.038 -0.1978  0.0391 -0.3775
 7200W        W26734   8.336   9.914  14.294  0.1096  0.1183  0.3870
 7201W        W26735  14.264   4.512  12.702 -0.1373  0.1022 -0.2581
 7202W        W26736   0.024   3.586  13.842 -0.1576  0.0532  0.1703
 7203W        W26737   1.856   8.607   1.453  0.2032 -0.1915  0.1430
 7204W        W26738  10.042   6.175   2.484 -0.0091  0.0217  0.1620
 7205W        W26739   8.436  10.074   3.306 -0.1563 -0.0322  0.0338
 7206W        W26740  10.813   1.681  11.743 -0.1154 -0.1463 -0.0078
 7207W        W26741  19.391   5.386   3.852 -0.1006  0.0291  0.0045
 7208W        W26742   8.632   4.847  10.606 -0.2606  0.1601  0.0285
 7209W        W26743  14.375  12.349   1.970 -0.1244 -0.2456 -0.1966
 7210W        W26744  13.421  10.882  10.739 -0.3824 -0.1656 -0.1848
 7211W        W26745  11.936   8.637  14.345  0.2201  0.3124  0.0327
 7212W        W26746  16.434   0.540   0.268  0.2359  0.1476  0.1215
 7213W        W26747   6.842   2.527  11.663 -0.0725 -0.1623  0.2194
 7214W        W26748   7.076  16.437   2.107  0.1245 -0.1660 -0.3486
 7215W        W26749   3.004   4.881   1.568  0.1453  0.2839  0.0035
 7216W        W26750  10.944  14.756  10.667  0.2460 -0.2659  0.0205
 7217W        W26751   9.374  15.569   1.166  0.1138  0.0544 -0.0728
 7218W        W26752  16.201   9.017   0.446 -0.2401  0.1936  0.0356
 7219W        W26753  10.739  19.474   3.619 -0.0571 -0.1769  0.0665
 7220W        W26754   6.757   7.211  13.055 -0.1232 -0.3051  0.0460
 7221W        W26755  13.253   2.936  12.788 -0.0288 -0.1943 -0.3958
 7222W        W26756  18.228  17.482   3.724  0.3785  0.2573  0.2214
 7223W        W26757   8.364   6.547  12.319  0.0280 -0.0874 -0.1423
 7224W        W26758  13.092  15.585  12.966  0.1409 -0.3830 -0.1446
 7225W        W26759   1.049   0.060   0.976 -0.0146  0.1347  0.3097
 7226W        W26760   4.357   8.141   4.399 -0.1977  0.0689  0.1215
 7227W        W26761   5.499   6.524   0.295 -0.2244 -0.0355 -0.0464
 7228W        W26762  12.768  15.966   1.804 -0.3257  0.0491  0.1183
 7229W        W26763  19.304  13.217   3.692 -0.1390  0.0763 -0.0286
 7230W        W26764  13.834   3.648  12.349 -0.1298 -0.5008  0.0045
 7231W        W26765  12.600   6.962  13.759  0.2894  0.1156  0.1916
 7232W        W26766  17.054  16.557  11.360 -0.0736  0.1127  0.2633
 7233W        W26767   2.640  13.756   4.581 -0.0414 -0.1463 -0.0961
 7234W        W26768   9.194  17.255  10.817 -0.0361 -0.0025  0.0823
 7235W        W26769   6.313   2.820   0.216 -0.0339 -0.1331  0.0287
 7236W        W26770   6.575   4.934  13.450  0.1181 -0.2046  0.2036
 7237W        W26771   8.650  10.721  10.573 -0.0438  0.0290 -0.1966
 7238W        W26772  19.493   0.578   2.357  0.0516 -0.1201  0.1498
 7239W        W26773  17.025   7.526   2.956  0.0150 -0.3501 -0.1019
 7240W        W26774   5.372   3.446  11.059  0.4102  0.4423 -0.0524
 7241W        W26775   5.604  18.389   1.970  0.1383 -0.3404 -0.0179
 7242W        W26776   0.313  17.461  12.722  0.0648 -0.1527  0.3120
 7243W        W26777  13.041   0.088  10.541  0.0214  0.1000  0.1575
 7244W        W26778  17.245   0.438   1.863  0.0844 -0.3126  0.0243
 7245W        W26779   3.424   6.290   4.374  0.1499  0.0982  0.1468
 7246W        W26780   9.406  18.765   1.784 -0.1774  0.2269 -0.0530
 7247W        W26781   4.160   9.096  12.530  0.0588 -0.0119 -0.0607
 7248W        W26782  13.092  11.016   3.001  0.1325 -0.0792  0.1775
 7249W        W26783   2.021   3.734  12.213  0.0497  0.1778 -0.0177
 7250W        W26784  15.522   0.304   9.065  0.0442  0.0179 -0.0586
 7251W        W26785  11.436  17.027   0.593 -0.0689 -0.1370 -0.1224
 7252W        W26786  11.530   6.807  12.999 -0.0074 -0.0207  0.0265
 7253W        W26787   0.111   0.774   2.817  0.0198 -0.0130  0.1136
 7254W        W26788   9.146   7.587  10.658  0.1226 -0.0183  0.1742
 7255W        W26789   4.247   2.347   3.325 -0.0818 -0.3474  0.0939
 7256W        W26790   5.511  19.481  14.153  0.1799  0.1304 -0.2340
 7257W        W26791   7.395   9.071  12.627 -0.1248 -0.0541 -0.2835
 7258W        W26792   1.505  15.509   2.352 -0.1139  0.1703 -0.1078
 7259W        W26793  13.152   5.563   2.065 -0.3510 -0.0782 -0.0411
 7260W        W26794   0.531   4.725   5.047 -0.2415 -0.0663 -0.0752
 7261W        W26795  16.619  14.616  13.072 -0.1174 -0.0449 -0.1624
 7262W        W26796  10.811  18.944  13.060 -0.0393 -0.1916 -0.1979
 7263W        W26797   5.409   5.034   0.063 -0.2319  0.2325  0.4023
 7264W        W26798  17.280  11.509  10.219 -0.1410  0.1375  0.3787
 7265W        W26799  13.848   8.403   2.307  0.0018  0.0037  0.1721
 7266W        W26800  12.881   9.744  13.404  0.2371  0.0745  0.3593
 7267W        W26801   3.713   3.650  12.167 -0.0151  0.0453  0.0964
 7268W        W26802   2.843   1.768  13.747  0.0172  0.1811  0.1064
 7269W        W26803  12.419   5.575  13.648  0.0509  0.1169  0.3568
 7270W        W26804   5.872   1.243  10.656  0.1034  0.0686  0.1076
 7271W        W26805   5.299   8.378   0.200 -0.0745 -0.0547  0.2354
 7272W        W26806   8.941  15.307  12.134 -0.2110 -0.3010 -0.1060
 7273W        W26807   0.584  18.795   2.701  0.0277 -0.0649 -0.0327
 7274W        W26808  16.471   9.217  10.536  0.0280  0.1093 -0.0363
 7275W        W26809   1.182   3.299  13.472 -0.0609  0.0920  0.0210
 7276W        W26810  10.130  13.763  11.069  0.0346 -0.1243  0.2860
 7277W        W26811   0.009  12.287   9.854  0.1391 -0.1695  0.0104
 7278W        W26812   5.828  15.960  12.595 -0.1478 -0.1903 -0.0400
 7279W        W26813   8.984   1.120  12.267  0.3505  0.4058 -0.1093
 7280W        W26814   7.780  10.977  13.593  0.0132 -0.1301 -0.0580
 7281W        W26815   4.236   1.089  12.197 -0.1259 -0.1332  0.1141
 7282W        W26816  19.217   7.735   1.666  0.1218 -0.3584  0.0358
 7283W        W26817   9.669   3.262   2.557 -0.2934 -0.1534  0.0848
 7284W        W26818   1.958  12.829  11.294  0.0327 -0.1639 -0.1936
 7285W        W26819  17.803   7.451  14.296  0.2444 -0.1109  0.0475
 7286W        W26820   1.131  18.580   1.058 -0.4040 -0.1676 -0.0558
 7287W        W26821   8.679   3.924  13.954  0.5949  0.0192  0.0894
 7288W        W26822  17.332  15.548   0.659  0.0090  0.2774 -0.1422
 7289W        W26823   6.796   8.693   1.130  0.0976  0.1607 -0.0028
 7290W        W26824   3.546   5.645   2.240  0.0560 -0.2202 -0.2956
 7291W        W26825   5.657  19.380  10.602 -0.3416 -0.1040 -0.1073
 7292W        W26826   9.612  18.859  13.138 -0.1061 -0.0230  0.0792
 7293W        W26827   0.531  14.935  12.806 -0.2301  0.0539 -0.0926
 7294W        W26828   1.968   1.154  10.386 -0.0383  0.0943 -0.0305
 7295W        W26829   3.118  10.242  12.587  0.3751  0.3011  0.3487
 7296W        W26830   2.045   3.291  13.461 -0.1178 -0.1049 -0.0313
 7297W        W26831   5.706   8.735   4.432  0.1645  0.2293  0.1293
 7298W        W26832   0.404   5.558   3.791  0.0716  0.0865  0.1207
 7299W        W26833   3.906  11.812  12.178  0.3107 -0.0518 -0.3198
 7300W        W26834   3.776  13.047  11.375  0.2681 -0.1906  0.0731
 7301W        W26835   7.838   0.898  13.174 -0.0515  0.1077 -0.2102
 7302W        W26836   3.769  12.925  14.026  0.2346 -0.2303  0.1837
 7303W        W26837  19.254   7.958   2.079  0.1476  0.3221  0.3835
 7304W        W26838   7.533   9.606  14.151  0.1905  0.1675 -0.0334
 7305W        W26839  14.461   1.571  11.220 -0.0807 -0.0670  0.2199
 7306W        W26840  12.187  10.862   2.316  0.0047  0.1527  0.1701
 7307W        W26841  15.026  19.511  14.135  0.1536 -0.4074  0.2980
 7308W        W26842  17.516  10.250   0.998  0.1712  0.0817  0.2814
 7309W        W26843  19.371  12.429   0.923 -0.2646  0.0569 -0.0621
 7310W        W26844   5.715  17.339  13.031  0.2144 -0.4932  0.1999
 7311W        W26845   0.066   0.203  12.655  0.0005  0.1237  0.0447
 7312W        W26846   9.258  15.922  13.476 -0.0518 -0.0554  0.0973
 7313W        W26847   1.087   1.551   1.162  0.0210 -0.2143 -0.0153
 7314W        W26848   9.907   5.801   1.467 -0.0272  0.1391  0.1173
 7315W        W26849  12.236   5.190  14.018 -0.0774  0.1782  0.0049
 7316W        W26850  15.985  19.299  10.274  0.1845  0.0397 -0.1434
 7317W        W26851  12.271  13.438  13.146  0.1786 -0.3301  0.0915
 7318W        W26852  17.293  10.133   3.122  0.1981 -0.2197  0.1598
 7319W        W26853   8.303  10.588  12.973 -0.1476 -0.0237 -0.0400
 7320W        W26854  15.861  16.388   2.599 -0.2511  0.0197  0.0474
 7321W        W26855  13.991   2.398   1.385  0.0358  0.2253 -0.1385
 7322W        W26856  16.678  15.721  14.021  0.1955  0.0485  0.1562
 7323W        W26857  14.796  13.811  14.322 -0.2867 -0.1223 -0.4530
 7324W        W26858  17.451  18.019  11.460 -0.2179  0.1493  0.1655
 7325W        W26859   0.315   8.508  11.813  0.2598  0.1385  0.1948
 7326W        W26860   3.946  18.335  10.773  0.2524  0.0052 -0.2394
 7327W        W26861   3.159  17.706  12.845 -0.1901  0.2846 -0.1796
 7328W        W26862   4.112   1.877   0.094  0.1841  0.2929  0.1286
 7329W        W26863  16.891   2.820   0.613  0.3737  0.2670  0.2351
 7330W        W26864  13.921  11.337   2.479 -0.2343 -0.1449 -0.0188
 7331W        W26865  13.097  11.833  11.731  0.0383  0.1385 -0.3153
 7332W        W26866  12.931   9.454   0.168  0.2440 -0.3314  0.1230
 7333W        W26867   4.677  11.484  10.399 -0.1839 -0.1026 -0.3216
 7334W        W26868   0.237   0.841   3.996 -0.0071 -0.0490 -0.1332
 7335W        W26869  10.985   2.728   2.279 -0.3131  0.1850 -0.0895
 7336W        W26870   8.648   5.330   1.744  0.0106  0.1071  0.1174
 7337W        W26871  13.663  11.973   3.174 -0.0831 -0.1286 -0.5337
 7338W        W26872  19.400   6.500  12.832 -0.0898 -0.1912 -0.1533
 7339W        W26873   2.345  10.177   2.426 -0.0723  0.0751  0.1584
 7340W        W26874  10.503  18.966   3.419  0.2832 -0.1741  0.0763
 7341W        W26875   2.687   2.938  12.012 -0.3792  0.0148 -0.4071
 7342W        W26876  10.107  13.291   0.673 -0.2606 -0.1767  0.1272
 7343W        W26877   0.902   3.032   3.389  0.1214 -0.1963 -0.3238
 7344W        W26878   9.689   6.319   1.308 -0.0264  0.2360 -0.0001
 7345W        W26879   0.912   5.334   1.621 -0.0248  0.0128  0.2467
 7346W        W26880   7.054  14.439  10.875 -0.1492  0.0530  0.2090
 7347W        W26881   9.206   7.237   3.128 -0.1558 -0.0649  0.3062
 7348W        W26882  12.989  17.100   2.560  0.1037 -0.3691 -0.1817
 7349W        W26883  13.988  19.203   1.389 -0.0101  0.0880  0.0767
 7350W        W26884  16.360  12.857  10.846 -0.3779  0.1095 -0.0623
 7351W        W26885  14.716   6.078   2.399 -0.0220  0.0944 -0.0578
 7352W        W26886   1.795  18.347   4.176 -0.1332  0.3107 -0.0450
 7353W        W26887  14.015  17.764  13.033  0.1954 -0.0209 -0.0696
 7354W        W26888  12.180   0.152   1.250 -0.0336 -0.0582 -0.1068
 7355W        W26889  10.324   0.810   2.393  0.0156  0.1751  0.1849
 7356W        W26890  15.908  13.240   0.143  0.0422 -0.0491  0.0320
 7357W        W26891  14.679  14.477   3.223  0.5171  0.0571 -0.1337
 7358W        W26892   6.752   2.666   1.962 -0.0013  0.2120  0.0375
 7359W        W26893   6.060  14.833   0.061  0.0843 -0.0968 -0.1015
 7360W        W26894   1.631   5.162   3.281  0.1408  0.0579  0.0755
 7361W        W26895  17.718  17.636   0.137  0.0619  0.0401  0.0972
 7362W        W26896   1.550  15.813   0.231 -0.0957  0.0814 -0.3161
 7363W        W26897   5.290  18.935   1.823  0.3783 -0.2435  0.1198
 7364W        W26898   9.221  12.949   1.609 -0.0320 -0.0081 -0.1934
 7365W        W26899   7.016   4.679  10.584  0.1930 -0.1380  0.0260
 7366W        W26900  14.234  14.238  12.953  0.2644 -0.1030 -0.1410
 7367W        W26901  15.784  19.521  12.617  0.1034  0.0193  0.1544
 7368W        W26902   3.272   1.067  11.385  0.2164  0.0500  0.1521
 7369W        W26903   1.494   4.757   9.525  0.1720 -0.1663 -0.0643
 7370W        W26904  19.438  15.154   1.040  0.1267 -0.1570 -0.0894
 7371W        W26905   8.646   7.561  11.597 -0.3531 -0.2701  0.2438
 7372W        W26906   8.962  17.205   0.320 -0.0957  0.1503  0.0128
 7373W        W26907  14.925   8.496  11.288  0.2718 -0.2706  0.0463
 7374W        W26908   2.520  19.189  12.858 -0.0937  0.2012 -0.1979
 7375W        W26909   0.566   5.984   4.215  0.2766 -0.2057  0.3831
 7376W        W26910   6.392  11.509  12.786 -0.0772  0.0642 -0.0373
 7377W        W26911  17.297  13.922  13.196  0.2391  0.0719  0.2398
 7378W        W26912  11.801  14.428  13.518 -0.1884 -0.2020  0.1300
 7379W        W26913  14.599   2.306  13.954  0.0609  0.1352 -0.0601
 7380W        W26914  14.379  16.167   1.721  0.0778  0.0008  0.0302
 7381W        W26915  12.617   8.236  13.328 -0.0019  0.1225  0.3872
 7382W        W26916   8.090   6.146  10.035  0.2251  0.4939  0.1759
 7383W        W26917   8.935   4.597  13.407 -0.0731 -0.0528  0.0739
 7384W        W26918  18.372   8.929  13.523 -0.0984 -0.4892  0.3015
 7385W        W26919  12.355   9.531  13.376 -0.0582  0.2131 -0.2832
 7386W        W26920  14.541  12.969   2.768 -0.1206 -0.2446 -0.2315
 7387W        W26921   7.201   4.221  14.236 -0.1561 -0.3639  0.2115
 7388W        W26922   1.401  10.717  10.863 -0.0354 -0.2531 -0.1785
 7389W        W26923  11.900  16.888   0.472  0.0046  0.0292  0.0052
 7390W        W26924   2.622  16.678   3.599  0.1592  0.1234  0.1412
 7391W        W26925   0.999  15.622  10.178  0.0143 -0.0715 -0.2457
 7392W        W26926  14.670   8.731  12.459 -0.1703  0.1579 -0.4114
 7393W        W26927  13.177  15.269   4.209  0.2066  0.1926 -0.1486
 7394W        W26928  12.422  10.126   9.971  0.0851 -0.1472 -0.0008
 7395W        W26929  16.895   5.560  11.550  0.1558  0.3239  0.1930
 7396W        W26930   2.431  16.605  11.605  0.1353 -0.4796  0.1860
 7397W        W26931  18.962  10.046   4.213 -0.1179 -0.3053  0.2822
 7398W        W26932   2.693   9.573   1.973 -0.1061  0.2295 -0.0811
 7399W        W26933   4.584  16.386   4.010  0.0773 -0.0273 -0.3043
 7400W        W26934  16.014   5.826   4.077  0.2185  0.1893  0.2275
 7401W        W26935   5.948   4.265   3.681  0.1953 -0.1235 -0.1944
 7402W        W26936   0.390   2.009  12.296 -0.2464  0.1589  0.1269
 7403W        W26937   1.257   8.152  11.487  0.1312 -0.0485 -0.2640
 7404W        W26938   9.632  11.059  13.195  0.0885 -0.0674  0.1160
 7405W        W26939   2.594  15.358  13.845  0.2549  0.0829 -0.0318
 7406W        W26940   4.465  18.984  11.194 -0.3811  0.0190 -0.2266
 7407W        W26941  12.625   3.615   3.043 -0.1138  0.0608 -0.1488
 7408W        W26942  17.249  14.966  10.798  0.3206 -0.2819 -0.1810
 7409W        W26943  10.535  13.033   2.109 -0.1662 -0.3509 -0.1132
 7410W        W26944   4.454   3.350  11.484 -0.2195 -0.2864  0.1705
 7411W        W26945   5.640   4.824   1.593  0.3250 -0.1923  0.1626
 7412W        W26946   3.817  12.815  10.485  0.1539 -0.1214  0.0507
 7413W        W26947   0.902   0.474  13.476  0.0238 -0.1113  0.0329
 7414W        W26948  14.957  12.500   1.702 -0.0454 -0.3033  0.0112
 7415W        W26949  12.232   2.308   4.870  0.0645 -0.0745 -0.0304
 7416W        W26950   3.238  14.166   0.415 -0.2099  0.2781 -0.3149
 7417W        W26951   1.728   2.696   0.708 -0.0267 -0.0790 -0.1785
 7418W        W26952   4.465   7.888   2.519 -0.0867 -0.0421 -0.0180
 7419W        W26953   1.330  16.429  12.152  0.0114  0.0789  0.4124
 7420W        W26954  16.202  16.783   1.802  0.1034 -0.3505  0.2660
 7421W        W26955  14.767  15.917  12.902 -0.0417 -0.1588 -0.1204
 7422W        W26956   6.854  12.234  13.261 -0.1835 -0.1296 -0.2309
 7423W        W26957   9.630   9.434  14.082 -0.1860  0.1105  0.2090
 7424W        W26958  17.386   7.883   2.988 -0.0699  0.0936  0.2037
 7425W        W26959   3.940  13.918  13.391  0.2276  0.0564  0.0216
 7426W        W26960  16.814  12.866   0.261  0.1993  0.0321  0.1449
 7427W        W26961  18.068   3.152  14.107 -0.2712 -0.1638 -0.2820
 7428W        W26962  10.268  11.840  11.874 -0.0693 -0.0007  0.3937
 7429W        W26963   6.592  12.401   3.126 -0.1627  0.0524 -0.0154
 7430W        W26964  12.308   9.057   2.267 -0.1067 -0.2004  0.1435
 7431W        W26965  11.199  16.553  10.254  0.1612 -0.4036 -0.1693
 7432W        W26966   5.618  15.775  11.707 -0.0667  0.0213  0.2856
 7433W        W26967   0.322  16.570   0.305  0.0205  0.1694 -0.0646
 7434W        W26968  18.410  16.562   3.567 -0.0747 -0.0326  0.0027
 7435W        W26969   6.025  10.220   3.303  0.0707  0.1635 -0.0282
 7436W        W26970  13.830  14.858   1.743  0.1751  0.1327  0.1977
 7437W        W26971   4.187  10.385   1.818 -0.2660  0.0134 -0.0087
 7438W        W26972  15.402   1.611   2.445  0.0640 -0.1790 -0.1951
 7439W        W26973  11.984   1.678   2.362  0.5472  0.3269 -0.3064
 7440W        W26974  13.631   5.063  11.088  0.0657  0.3023  0.3154
 7441W        W26975   2.048   6.198   1.274  0.1837 -0.1012 -0.2243
 7442W        W26976  10.208   8.500   0.803 -0.3541 -0.0721  0.1152
 7443W        W26977  11.105  17.475  12.410 -0.1652  0.0399  0.0308
 7444W        W26978   6.016  14.528  11.312  0.3110  0.2192  0.1988
 7445W        W26979   8.508   9.187   2.910  0.0363  0.0436 -0.0842
 7446W        W26980  16.593  11.205   0.253 -0.4296  0.1446  0.1342
 7447W        W26981  10.693  11.100   9.966  0.0058 -0.1229  0.1271
 7448W        W26982   7.700  11.088   0.260 -0.0397  0.0020 -0.0268
 7449W        W26983  15.675   1.631  11.181 -0.0241 -0.1222 -0.1313
 7450W        W26984  10.715  16.002  10.412  0.3224  0.0694  0.0209
 7451W        W26985   2.308  14.883   2.124 -0.2924 -0.2091 -0.1444
 7452W        W26986   4.846  18.763   3.270  0.1819 -0.0484  0.2944
 7453W        W26987  17.415  12.129  14.341 -0.1917 -0.1677 -0.1054
 7454W        W26988   2.760   7.675   0.690  0.3630 -0.4922 -0.4896
 7455W        W26989  11.842   3.851   3.824  0.1518 -0.0150  0.1605
 7456W        W26990   6.127  11.428  10.815 -0.1659  0.0298  0.1530
 7457W        W26991   6.143   9.587  11.906 -0.0455  0.2107  0.2830
 7458W        W26992   3.602   2.888   1.847 -0.0099  0.0766  0.0500
 7459W        W26993   9.725   1.908   3.658 -0.0363 -0.2944  0.1473
 7460W        W26994   5.884   4.948   2.002 -0.0986 -0.4195 -0.1208
 7461W        W26995  15.777  10.938   1.805 -0.0112  0.0252 -0.5253
 7462W        W26996  10.690  13.300   3.344  0.0930  0.0555  0.0709
 7463W        W26997  15.923   3.232  11.114  0.2879 -0.0316  0.3588
 7464W        W26998  11.517  14.609  11.945 -0.0949  0.1842  0.0661
 7465W        W26999   0.398  12.666  11.043  0.1310  0.0899 -0.0668
 7466W        W27000  17.986  15.611  11.853 -0.3548  0.2874  0.0862
 7467W        W27001  14.067  11.945  12.054  0.1068  0.1649 -0.1132
 7468W        W27002   4.372  15.714   8.982 -0.0575 -0.0647  0.1206
 7469W        W27003  17.432   7.180  12.984  0.0303 -0.1273 -0.1582
 7470W        W27004   4.890   7.150  13.692 -0.1966 -0.1341 -0.1089
 7471W        W27005   5.799  11.490   3.804  0.1466 -0.0467 -0.1125
 7472W        W27006   7.672   5.763   1.432  0.3305 -0.2465  0.0326
 7473W        W27007  13.023  15.401  12.376 -0.3013 -0.0442 -0.2564
 7474W        W27008   9.007   1.021  10.246  0.4046 -0.1825 -0.0164
 7475W        W27009  12.609  10.585   1.999 -0.0824 -0.1764  0.0823
 7476W        W27010  13.780  13.684   2.690  0.0386  0.0028  0.1030
 7477W        W27011   9.873   5.461   0.080  0.0958  0.2137  0.1216
 7478W        W27012  14.005   8.479   3.972 -0.2934  0.0552 -0.1319
 7479W        W27013  16.870  14.635   0.415  0.1524 -0.0442  0.0398
 7480W        W27014   4.892   5.176  10.438 -0.0991 -0.0760  0.0752
 7481W        W27015  12.312   8.862   0.273 -0.2450  0.0260  0.0871
 7482W        W27016   2.106  14.217   3.876 -0.2049  0.1624  0.0131
 7483W        W27017   8.062  15.832   3.010 -0.0229  0.0483  0.0510
 7484W        W27018   8.732  10.716   4.740  0.0684 -0.0510 -0.2520
 7485W        W27019   3.999  18.170   1.193 -0.1407 -0.2602  0.0216
 7486W        W27020  14.598  11.541  13.468  0.1065  0.1216  0.1418
 7487W        W27021  10.398   1.553  12.700 -0.1406 -0.3710  0.0066
 7488W        W27022  14.932   8.861   3.796  0.2175 -0.1102 -0.0046
 7489W        W27023   6.313   1.812   3.478  0.1846  0.1625  0.0165
 7490W        W27024   2.615   3.217   1.677 -0.5754  0.1857 -0.1168
 7491W        W27025   3.878   0.695  12.447  0.0771  0.0543 -0.1616
 7492W        W27026   8.974   3.007  14.262 -0.0225  0.0645  0.0158
 7493W        W27027   0.949   8.364  10.584 -0.2684 -0.2115  0.0422
 7494W        W27028  11.345  15.878  13.393 -0.0267 -0.0812 -0.0978
 7495W        W27029   9.338  18.540  12.106 -0.2305  0.1206 -0.0614
 7496W        W27030  14.804   9.202  10.754  0.1673 -0.2510 -0.3392
 7497W        W27031   8.523  16.496  14.205  0.0838 -0.0394 -0.0715
 7498W        W27032  13.633  16.942  14.070 -0.0667  0.0930  0.1135
 7499W        W27033   5.386  12.611   9.598 -0.0627 -0.1317 -0.0070
 7500W        W27034   8.068   6.216   0.722 -0.0927  0.1405  0.1662
 7501W        W27035   7.872  13.855  13.176 -0.3595 -0.2679 -0.0041
 7502W        W27036  10.383   6.519  12.023  0.1049  0.1133  0.2288
 7503W        W27037  15.541   8.077   0.204  0.0536  0.0312  0.0028
 7504W        W27038  13.310   0.774   3.674  0.1724 -0.0129 -0.1760
 7505W        W27039   2.860  15.462  13.387 -0.1842  0.1927 -0.0106
 7506W        W27040   7.203  11.967  11.275  0.1274  0.2114  0.0387
 7507W        W27041  15.912   4.724  12.239  0.1998  0.2967 -0.0893
 7508W        W27042  19.442   3.890   4.014 -0.2596 -0.2238 -0.1766
 7509W        W27043  17.818  16.631  13.063  0.1227 -0.0405  0.0353
 7510W        W27044  13.958   8.683  13.977  0.0025 -0.3231 -0.0856
 7511W        W27045  10.483  16.953  13.323 -0.1499 -0.2436  0.3080
 7512W        W27046  16.505   7.260  13.764  0.1481 -0.1289 -0.2440
 7513W        W27047   7.345  10.780   1.536  0.3423  0.1081  0.4966
 7514W        W27048  13.608   2.061  10.356  0.1909  0.0416 -0.0697
 7515W        W27049   1.812  12.455   3.055  0.2343 -0.3149 -0.1056
 7516W        W27050  15.129   8.808   2.152 -0.0209 -0.2394  0.0261
 7517W        W27051  18.161  15.205  10.365  0.1865  0.1346  0.0479
 7518W        W27052   0.417  18.880   1.095  0.0345  0.2806  0.0597
 7519W        W27053  18.536  15.169   0.628  0.0579 -0.2636 -0.1325
 7520W        W27054   8.311   0.390   3.146 -0.1764 -0.0034  0.1542
 7521W        W27055  14.710   2.828   4.724 -0.1389  0.0792  0.3985
 7522W        W27056  17.836   0.079  13.222 -0.1174 -0.0574 -0.2560
 7523W        W27057  11.980   5.684  11.064 -0.2915  0.1491 -0.1156
 7524W        W27058  14.292   9.365  13.124 -0.1580 -0.1453  0.0566
 7525W        W27059   5.488   2.203   2.030  0.1720  0.0685 -0.2026
 7526W        W27060   2.956  16.888  12.997 -0.0409  0.0388  0.1057
 7527W        W27061  14.867  14.459   1.269  0.1898 -0.1241  0.0843
 7528W        W27062   8.417  12.742  12.860 -0.1894 -0.1365  0.3694
 7529W        W27063   1.610   4.325   2.347 -0.0165 -0.2021  0.0239
 7530W        W27064   0.252  18.415   2.605  0.0611 -0.1023  0.1759
 7531W        W27065   1.115   1.386   3.706 -0.1545 -0.1855  0.1355
 7532W        W27066  11.921  10.425  10.879 -0.0105  0.0448 -0.2248
 7533W        W27067   2.721   6.988   1.951 -0.1172  0.0213 -0.1473
 7534W        W27068   3.480  12.994  12.102  0.3448  0.0584 -0.1583
 7535W        W27069   0.792  18.567   3.146 -0.0842  0.0601  0.0526
 7536W        W27070   0.107   5.143   2.448 -0.1056 -0.0489  0.1688
 7537W        W27071   9.559  16.159  10.466 -0.1232  0.0904 -0.0561
 7538W        W27072   2.556   0.773  12.079 -0.0044  0.1702 -0.1500
 7539W        W27073  15.911   6.694   1.441  0.1131  0.2000  0.3463
 7540W        W27074  15.417   9.990   0.896  0.2284 -0.3415 -0.1301
 7541W        W27075  18.412  16.659  10.657 -0.1131  0.1397 -0.1580
 7542W        W27076   7.493   3.064  10.422  0.1061  0.0993 -0.1974
 7543W        W27077  15.566  12.022  13.339 -0.1146 -0.0492 -0.1165
 7544W        W27078   2.102  12.330  11.175  0.3909 -0.1269 -0.1913
 7545W        W27079   7.018   7.606   0.390  0.0616  0.1028  0.2743
 7546W        W27080  11.537   9.218   1.825  0.2397  0.0742  0.4299
 7547W        W27081  17.532  15.597  11.992  0.0851  0.0064 -0.2872
 7548W        W27082  18.595  11.129   9.173  0.0205 -0.1133  0.1122
 7549W        W27083  16.985   0.202  12.764  0.1144 -0.2244  0.0508
 7550W        W27084   6.595   7.091   1.079 -0.2709  0.0540  0.1562
 7551W        W27085   3.253   9.362  12.261  0.0456  0.1640  0.0166
 7552W        W27086   5.586  17.264   2.437 -0.2678 -0.0146  0.1979
 7553W        W27087  15.415   5.886  12.926 -0.1267 -0.0358  0.2426
 7554W        W27088  16.858  12.871   1.075 -0.1038  0.3135 -0.0843
 7555W        W27089  12.704   8.495   0.298 -0.0962  0.0522 -0.1985
 7556W        W27090  14.484   9.325   2.036  0.0749  0.5213 -0.1699
 7557W        W27091  16.044  10.773  12.019 -0.0255  0.0348  0.1058
 7558W        W27092   4.690  18.703   1.061 -0.1141  0.1769 -0.0808
 7559W        W27093   6.568   3.301  12.374 -0.1596 -0.1587 -0.0880
 7560W        W27094   5.751  10.019  12.427  0.1151 -0.2002 -0.0465
 7561W        W27095   7.467   5.045  10.649  0.2103 -0.1830 -0.2656
 7562W        W27096   6.789  13.550  11.571  0.1745  0.1064 -0.2747
 7563W        W27097   5.253   6.638   3.654 -0.0185  0.3610  0.1348
 7564W        W27098  15.365  17.624   5.161 -0.2628 -0.1840 -0.1326
 7565W        W27099  12.767   4.194   1.390  0.0308  0.0237 -0.0537
 7566W        W27100  14.648  16.863  11.046  0.1387 -0.0190 -0.3514
 7567W        W27101   6.170   0.597   4.188  0.1220  0.0089  0.3078
 7568W        W27102  17.091   4.289   0.569 -0.1920 -0.0986 -0.1412
 7569W        W27103   9.060   5.986   3.916 -0.2292  0.1698 -0.1921
 7570W        W27104  10.740  12.161  11.130 -0.0674 -0.0711 -0.2162
 7571W        W27105  17.797   6.607   1.453 -0.1221  0.0976 -0.0941
 7572W        W27106   5.240   6.121   0.286  0.0057 -0.0313  0.0091
 7573W        W27107   4.579  16.373   1.082  0.0335  0.2334  0.2258
 7574W        W27108   6.252  15.329  13.809 -0.1372 -0.0841 -0.3483
 7575W        W27109   5.291  16.109  12.640  0.0847  0.1150  0.1349
 7576W        W27110   4.040   9.117   1.361  0.0162  0.0451  0.1624
 7577W        W27111  18.924  17.999   4.945 -0.1683  0.4936 -0.1342
 7578W        W27112  14.247   6.802  14.171  0.1377  0.0969  0.0255
 7579W        W27113   6.151   9.903   3.710  0.1503 -0.0360  0.1587
 7580W        W27114   2.568   0.081   0.097 -0.2545 -0.0675  0.2397
 7581W        W27115  12.779  19.527  11.028  0.1069  0.1187 -0.3194
 7582W        W27116   4.720   1.617  10.643  0.2256  0.1573  0.4912
 7583W        W27117   6.724   0.354  13.605  0.0819  0.1651 -0.1605
 7584W        W27118   4.558  15.130   0.894  0.0400 -0.0214  0.4140
 7585W        W27119   4.503   1.471   1.259 -0.1260 -0.4934  0.1749
 7586W        W27120   9.580   4.972   1.842  0.2346  0.1046 -0.1241
 7587W        W27121  10.623  13.777  11.238 -0.2805 -0.1026 -0.0444
 7588W        W27122   7.818  12.270  10.981 -0.0976  0.0249  0.2321
 7589W        W27123   5.301  17.547  10.738 -0.4094  0.1956  0.1895
 7590W        W27124  17.404   7.273  12.255 -0.2071 -0.0953 -0.1356
 7591W        W27125  11.517   5.450  10.497  0.1053  0.2659  0.2449
 7592W        W27126  18.965  12.954  10.110  0.0238 -0.0927  0.0019
 7593W        W27127  13.452  11.558   1.448  0.0858  0.0444  0.2100
 7594W        W27128  19.414   8.370   3.429  0.2195  0.0473 -0.2801
 7595W        W27129  13.946   3.069   2.839  0.0580 -0.0349  0.0798
 7596W        W27130  12.344  17.894  11.031  0.2969  0.1614 -0.1589
 7597W        W27131   6.067   4.095   2.141 -0.0681 -0.0602  0.1379
 7598W        W27132   6.854  11.764   1.398 -0.1537 -0.2176  0.3853
 7599W        W27133   2.646   0.998   3.592 -0.1772  0.2232 -0.1448
 7600W        W27134   1.330   8.841   4.277  0.0629  0.0216 -0.0167
 7601W        W27135   0.403   5.401   4.275 -0.3092 -0.0341 -0.0487
 7602W        W27136   1.166   6.339  13.933 -0.0552  0.0217  0.4746
 7603W        W27137  18.705   3.297  12.871 -0.1222  0.2094 -0.4294
 7604W        W27138   6.266  11.787   3.716  0.0695  0.0494  0.2780
 7605W        W27139  16.639   9.601   2.062  0.1248  0.1898  0.1726
 7606W        W27140   4.571  18.512   2.770 -0.2363 -0.2314  0.0598
 7607W        W27141  17.195   3.071   2.073 -0.2347 -0.4337  0.2547
 7608W        W27142  19.172  14.981  12.832  0.2818  0.0255 -0.0592
 7609W        W27143   4.192   5.639   3.575 -0.2080  0.1851  0.1913
 7610W        W27144   8.275  18.440   0.779 -0.1555 -0.3429  0.2214
 7611W        W27145   9.891  19.528  10.536  0.2648 -0.0129  0.1314
 7612W        W27146   6.806   0.878  12.301  0.2074 -0.1903 -0.1349
 7613W        W27147  19.138  12.653   9.120  0.0379  0.2709 -0.0093
 7614W        W27148   3.574  15.674   0.675  0.0250  0.0451 -0.1250
 7615W        W27149   6.159   2.826  13.525  0.1123 -0.0541 -0.2213
 7616W        W27150  19.154   6.227  11.930  0.0782  0.0786  0.2633
 7617W        W27151   4.428   4.199   0.351  0.0438  0.4505  0.1099
 7618W        W27152  16.315   3.880   0.724 -0.0503 -0.1495  0.1628
 7619W        W27153   5.795  12.291   0.195 -0.0808  0.5565 -0.1731
 7620W        W27154  16.610  17.824   3.062 -0.0437  0.0055 -0.1300
 7621W        W27155   1.650  10.266  12.910 -0.0195  0.0929 -0.0476
 7622W        W27156   8.735   1.719   3.625  0.0522  0.1018 -0.2520
 7623W        W27157   8.939  11.110   3.607 -0.1602  0.0050  0.1943
 7624W        W27158  13.531   9.115   2.792  0.0507 -0.3539 -0.0824
 7625W        W27159   3.502   3.422  11.179  0.3928  0.3889 -0.1472
 7626W        W27160   8.826   8.366   0.585 -0.1340 -0.2871 -0.1284
 7627W        W27161   8.657  10.839  11.315  0.1754  0.1029  0.1015
 7628W        W27162   4.267   6.472   2.207 -0.2810  0.1748  0.0746
 7629W        W27163  17.229  16.883  12.513  0.0741  0.0860 -0.1738
 7630W        W27164  17.817  10.751   3.876  0.4355  0.0667 -0.1207
 7631W        W27165  17.653  11.466   1.441 -0.1701  0.1567 -0.0546
 7632W        W27166  11.703  19.462  12.471  0.0908  0.0380 -0.2274
 7633W        W27167   1.392  17.046   2.812  0.0057 -0.0253  0.0963
 7634W        W27168   1.384  10.966  10.040  0.1374  0.1443 -0.1930
 7635W        W27169   8.422  10.527  11.650  0.2083  0.1492  0.1829
 7636W        W27170   0.195  15.342   4.338 -0.6368  0.3430 -0.0426
 7637W        W27171  18.246   1.906   0.250  0.3574 -0.4423 -0.0410
 7638W        W27172   2.753  11.614   0.728 -0.2216 -0.1636 -0.1863
 7639W        W27173  16.678  18.774  10.478  0.3664  0.2032  0.3179
 7640W        W27174   4.018   0.588   1.887  0.0423 -0.5544  0.0333
 7641W        W27175   5.019   1.385   2.726 -0.0095 -0.1354  0.0339
 7642W        W27176  19.046  10.893  13.842  0.4740  0.2708  0.0589
 7643W        W27177  13.507   7.975  13.201 -0.0276  0.2035  0.0765
 7644W        W27178  13.859   4.124  11.452  0.1096  0.0819 -0.1499
 7645W        W27179  11.469   7.097   1.086  0.0194  0.0857 -0.2475
 7646W        W27180  19.188  14.593  11.235 -0.1088  0.0536  0.0656
 7647W        W27181  18.031  11.840  12.287  0.3442 -0.1836  0.2434
 7648W        W27182  14.464  12.902  13.364  0.2471  0.2055  0.0719
 7649W        W27183   1.159  18.083   2.921  0.1923 -0.0842 -0.1553
 7650W        W27184   9.711   9.311  13.491 -0.0172  0.2573 -0.1316
 7651W        W27185   9.163  19.034  13.424 -0.0251  0.0026  0.0572
 7652W        W27186  15.900   3.316   0.599 -0.3349 -0.1618  0.2622
 7653W        W27187   4.202  11.421   0.525  0.2452 -0.3580  0.3010
 7654W        W27188   2.412  16.883  12.108  0.1251  0.0865 -0.2342
 7655W        W27189   2.202  10.092  13.496 -0.2638 -0.3679  0.0273
 7656W        W27190  16.354   3.340  13.912  0.0088  0.1062  0.0673
 7657W        W27191   3.102   1.652   4.107  0.1549 -0.1317  0.0032
 7658W        W27192   1.013  15.491   4.984  0.0533 -0.0995 -0.0041
 7659W        W27193   0.058   2.373  13.649  0.0824  0.1324 -0.1973
 7660W        W27194  15.293   1.598  12.207  0.2041 -0.0685  0.0168
 7661W        W27195  12.833  13.587  10.388 -0.5022  0.3995  0.1081
 7662W        W27196   0.956   7.366   0.163 -0.3175  0.1856  0.0672
 7663W        W27197  14.508  19.441  14.168  0.0381  0.0250  0.0803
 7664W        W27198  19.314   4.087  11.455  0.0729 -0.2438  0.0167
 7665W        W27199  10.073  11.844   1.264 -0.0922  0.1329  0.0816
 7666W        W27200  17.755  12.849   1.605  0.2266  0.1624 -0.0726
 7667W        W27201  11.126  14.004   0.670 -0.0044  0.0550  0.1297
 7668W        W27202   4.131   6.316   0.627 -0.1971  0.0315 -0.2077
 7669W        W27203  11.119  12.167  10.714  0.1136  0.1015 -0.0064
 7670W        W27204   8.730   8.284   3.973 -0.0836  0.1542 -0.2317
 7671W        W27205  12.255   8.518  12.347  0.1182 -0.3799 -0.1229
 7672W        W27206  17.370   6.804  13.744  0.1684  0.1398 -0.0410
 7673W        W27207  13.334  13.170  11.167 -0.2589  0.2016  0.0215
 7674W        W27208  10.896  10.214   0.236 -0.0642  0.3933  0.2346
 7675W        W27209   0.258  17.334   1.980 -0.0232 -0.1172 -0.2061
 7676W        W27210   2.363   1.036  10.874 -0.0282 -0.1644  0.1008
 7677W        W27211   0.157  18.481   4.437 -0.2660 -0.0590 -0.1988
 7678W        W27212   8.504  12.765   0.304  0.1418 -0.0131  0.1480
 7679W        W27213   4.407   8.557   1.569 -0.0407  0.3317  0.1926
 7680W        W27214  16.494   5.797   3.397  0.0380  0.1773 -0.0535
 7681W        W27215  15.166   6.394  11.611  0.6323 -0.2157 -0.0593
 7682W        W27216  18.506   6.543  14.230  0.0928 -0.1761 -0.2417
 7683W        W27217  15.505  11.367   0.571 -0.1203 -0.0917  0.0273
 7684W        W27218   0.256  18.033  11.464 -0.2001 -0.0378  0.3441
 7685W        W27219  10.962  16.179  12.100 -0.0317 -0.2407 -0.1103
 7686W        W27220  18.352   8.055   3.025  0.0382 -0.0895 -0.1130
 7687W        W27221   9.885   1.278   0.764 -0.0039 -0.3412  0.0032
 7688W        W27222  13.925  13.009  13.204  0.0655 -0.1119  0.1220
 7689W        W27223   0.341  16.513   2.023 -0.1685 -0.0790  0.3276
 7690W        W27224  11.399  12.855   0.082 -0.1000  0.0306  0.1225
 7691W        W27225   9.183  13.592  10.790  0.2423  0.1734 -0.0283
 7692W        W27226  15.484   5.177   4.267  0.2069 -0.1599 -0.2870
 7693W        W27227   5.124   1.873   0.594  0.0510  0.1506  0.0902
 7694W        W27228   8.634   6.571  11.902  0.2604  0.0504  0.4403
 7695W        W27229   4.306  10.273  13.509  0.1083 -0.1583  0.0202
 7696W        W27230   5.645   2.285  14.305  0.2608  0.0106 -0.2849
 7697W        W27231   4.693   6.311   3.117 -0.1768  0.1698  0.3944
 7698W        W27232   2.203   9.425   1.429  0.1937 -0.1183  0.6156
 7699W        W27233  14.057   1.407   3.093 -0.3662  0.0755 -0.5953
 7700W        W27234  15.074   2.953   3.599  0.0874  0.0097  0.0571
 7701W        W27235   3.261  13.655  10.545 -0.2232 -0.0687  0.1877
 7702W        W27236  12.585   6.845  14.284 -0.0786  0.0232  0.0828
 7703W        W27237   8.560   4.349  11.276 -0.0837  0.0348 -0.0429
 7704W        W27238   2.345  16.763   0.382 -0.3371 -0.1705  0.0707
 7705W        W27239   5.353   4.771  10.449  0.1111  0.1808 -0.0012
 7706W        W27240   9.879  13.371   3.293 -0.1424  0.1225  0.1296
 7707W        W27241  14.793   0.994   2.341  0.2709 -0.0448  0.3442
 7708W        W27242  12.709  14.397   3.716  0.1631 -0.0092  0.3136
 7709W        W27243  10.572   9.240  13.638 -0.1069 -0.1589  0.3006
 7710W        W27244   3.966  17.737   2.523  0.1026  0.0578  0.2832
 7711W        W27245   1.853  14.948   2.229  0.2758  0.2495 -0.0324
 7712W        W27246  14.212   3.944  14.236  0.0159 -0.0078 -0.0902
 7713W        W27247   2.143  14.112   2.605 -0.1386  0.2580 -0.1219
 7714W        W27248   1.196  12.414   3.818 -0.1505  0.0099 -0.0290
 7715W        W27249   8.579  17.871   1.855  0.1044 -0.1664 -0.1514
 7716W        W27250  11.477   5.405  13.056  0.0351 -0.2010 -0.0645
 7717W        W27251   3.821   6.360  12.717  0.1719 -0.2226 -0.2816
 7718W        W27252   7.266   1.024   3.663 -0.0008 -0.0473 -0.1985
 7719W        W27253  18.778  15.260   4.017 -0.1714  0.0031 -0.0195
 7720W        W27254   4.482  17.054   0.528 -0.2386  0.0224  0.3752
 7721W        W27255  14.848  12.467  11.798 -0.1992  0.0772  0.1621
 7722W        W27256   6.926   9.114   2.227 -0.3874  0.2057 -0.0216
 7723W        W27257  16.225   5.879   0.039 -0.2559  0.1254 -0.0128
 7724W        W27258  14.759   2.510  11.152  0.1542 -0.2781  0.0492
 7725W        W27259  13.678  12.696   3.745  0.1049 -0.0859  0.0011
 7726W        W27260   6.108  19.314  13.292  0.0123 -0.0758 -0.1434
 7727W        W27261  17.932   1.483   2.935  0.2026 -0.2828 -0.2604
 7728W        W27262  10.178   0.883   3.518 -0.1847  0.2480 -0.3632
 7729W        W27263   7.449   2.374  11.102  0.0671 -0.0492  0.1880
 7730W        W27264   8.287   3.329   3.897  0.2198  0.1648 -0.0484
 7731W        W27265  12.451   5.957  11.618 -0.1200 -0.1096 -0.0394
 7732W        W27266  18.767   4.236   9.990 -0.0205  0.3632 -0.2473
 7733W        W27267  17.344   6.375  11.982 -0.1305 -0.0199  0.2320
 7734W        W27268   5.252  10.613   4.194  0.0465  0.1683 -0.2271
 7735W        W27269   3.699   1.240  13.759 -0.0989 -0.0344  0.0529
 7736W        W27270   5.937  17.837   3.560  0.1012  0.1767 -0.0696
 7737W        W27271  16.650  17.317   0.513 -0.2013 -0.0770  0.1684
 7738W        W27272  10.578  11.731   2.931 -0.1041  0.0971 -0.2284
 7739W        W27273  12.610   8.091   1.966 -0.1961 -0.0436  0.0216
 7740W        W27274  16.672  14.576   4.655 -0.0746  0.2937 -0.1022
 7741W        W27275   9.754  13.285   2.020  0.1646 -0.0948  0.0980
 7742W        W27276   7.464   8.233   2.035  0.2531 -0.1414 -0.0473
 7743W        W27277   0.334  14.900  12.273 -0.1057 -0.0136  0.0895
 7744W        W27278  14.729  13.250  12.043 -0.1479  0.2096  0.1927
 7745W        W27279  15.927   4.061  14.319  0.0721  0.0071 -0.2466
 7746W        W27280   4.640   8.597  11.294  0.2116 -0.1092  0.0448
 7747W        W27281  16.791   7.185  12.510 -0.1775 -0.2182 -0.0765
 7748W        W27282   0.619   9.987  12.064 -0.2540 -0.1292 -0.1964
 7749W        W27283   1.179  17.489   2.864  0.0867 -0.1574 -0.2036
 7750W        W27284   2.944   9.869   3.664  0.0577 -0.2374  0.2297
 7751W        W27285   0.802  17.650  12.665  0.2568 -0.1282  0.2224
 7752W        W27286   6.907  15.963  14.067 -0.1758 -0.0570 -0.0470
 7753W        W27287  12.012  10.022   5.122 -0.1487  0.2018  0.0196
 7754W        W27288   7.745   9.409  12.496 -0.0252 -0.1298 -0.0777
 7755W        W27289   1.832   1.980   3.697  0.4794  0.1006  0.0013
 7756W        W27290   0.199   8.528   1.326  0.1752  0.0192  0.0396
 7757W        W27291   5.225  13.354   3.422  0.0032  0.1763 -0.1275
 7758W        W27292  15.416  11.746  12.860  0.1277 -0.1522  0.0065
 7759W        W27293  12.283   3.328   0.392  0.0086  0.4001  0.0847
 7760W        W27294  11.519   0.502  11.918  0.2152 -0.0979  0.0174
 7761W        W27295   8.559   2.160   3.933  0.0542  0.3205 -0.3070
 7762W        W27296   2.883   2.435   0.920 -0.2493 -0.1443  0.1552
 7763W        W27297   2.845   0.024  12.482  0.0706  0.0805 -0.0328
 7764W        W27298   5.550   6.662   4.060  0.1689 -0.0622  0.2354
 7765W        W27299   6.190   3.919   1.271 -0.0279  0.0070 -0.2173
 7766W        W27300   2.895   1.755   5.042 -0.0106  0.0060  0.0159
 7767W        W27301   2.103  14.481   3.440 -0.0020 -0.3865 -0.2070
 7768W        W27302  15.084   3.108   4.984 -0.2534 -0.2227 -0.1594
 7769W        W27303  12.859  13.025  11.338  0.0492 -0.0965  0.4460
 7770W        W27304   2.215   4.501  12.633  0.0181 -0.1596  0.0474
 7771W        W27305  15.965  12.845   2.035 -0.0729 -0.0367  0.2566
 7772W        W27306  16.125   0.921   2.251  0.1396 -0.0957  0.2426
 7773W        W27307   7.742  14.802  13.946 -0.1726  0.6363  0.0884
 7774W        W27308  12.452   4.673   4.089 -0.1483  0.3920  0.0122
 7775W        W27309   1.632  12.180  11.010  0.0900 -0.3528 -0.2921
 7776W        W27310   0.101   3.334   1.190 -0.1351  0.1729 -0.0558
 7777W        W27311   6.068   1.339  12.207  0.2120 -0.0241 -0.0516
 7778W        W27312  10.437   7.792  11.454 -0.2766  0.0155 -0.2309
 7779W        W27313  18.742   6.292   4.218 -0.0850  0.0352  0.1000
 7780W        W27314  12.180   0.368  13.741 -0.0875 -0.0705  0.2026
 7781W        W27315   5.313  11.074  13.691 -0.2833  0.2008  0.0907
 7782W        W27316   2.914   8.145   0.509 -0.1484  0.0604  0.0405
 7783W        W27317   2.611  14.710   2.567 -0.4059 -0.2046 -0.1249
 7784W        W27318   5.718   9.061   3.362  0.3097 -0.0053  0.1485
 7785W        W27319   3.235   8.458   1.738  0.0728  0.0493  0.4091
 7786W        W27320  15.039  13.267   1.032 -0.0522 -0.2485 -0.2116
 7787W        W27321  12.286   9.429   3.902 -0.2803 -0.2058  0.0679
 7788W        W27322   3.059   5.506  13.412  0.0872  0.2371 -0.1849
 7789W        W27323   9.806  19.464  11.841  0.0347  0.1529  0.1493
 7790W        W27324   5.079   1.144  12.639  0.1197  0.1036 -0.0159
 7791W        W27325  12.303   6.579   4.121 -0.0463 -0.0737 -0.1583
 7792W        W27326  14.348   8.052  12.182 -0.2981 -0.2019 -0.1200
 7793W        W27327   2.541  10.708  10.786 -0.0160  0.3504  0.0304
 7794W        W27328  17.376  19.154   1.270  0.1349 -0.0024 -0.1497
 7795W        W27329   7.380  11.710   1.317 -0.1818  0.0383 -0.0060
 7796W        W27330  11.543  12.817  11.106  0.0357 -0.0004  0.2476
 7797W        W27331  16.219  16.399   0.694 -0.3708  0.0064 -0.2402
 7798W        W27332   0.088   7.096  11.617  0.2041 -0.2383  0.0052
 7799W        W27333   3.760  13.683   1.156  0.3370 -0.4334 -0.2972
 7800W        W27334   1.576   8.539  11.994 -0.0647 -0.1206 -0.3533
 7801W        W27335  18.879   1.081  12.051  0.0469 -0.1899 -0.1794
 7802W        W27336   9.522   7.626  10.245  0.0815 -0.2040  0.1258
 7803W        W27337   6.965   4.369   3.357 -0.0606  0.2967 -0.4703
 7804W        W27338  14.432  12.518   3.135  0.1690 -0.1408  0.1323
 7805W        W27339  10.603   6.297  13.262  0.3595 -0.1378  0.1523
 7806W        W27340   0.179  17.025   0.454  0.0461  0.0698 -0.0270
 7807W        W27341   4.847  14.262  12.076  0.2311 -0.2028  0.2503
 7808W        W27342   6.132   5.931   3.621 -0.1379 -0.1446  0.0548
 7809W        W27343  18.984  11.444   9.172 -0.1468  0.4081 -0.1975
 7810W        W27344  12.924  15.199   3.256  0.1833 -0.1386  0.1006
 7811W        W27345   0.484  10.018   1.450 -0.0719 -0.0487  0.0275
 7812W        W27346  16.936  13.763  10.657  0.2587  0.3355 -0.0331
 7813W        W27347   5.459   5.594  13.918 -0.2450  0.0835 -0.0207
 7814W        W27348   0.970  15.859   1.965  0.1091 -0.1776  0.3049
 7815W        W27349  11.164  19.355   1.085  0.0818 -0.1814  0.0661
 7816W        W27350  14.881   4.915  13.133 -0.0484 -0.2863 -0.1908
 7817W        W27351  16.959  19.443   3.649 -0.0235 -0.1196  0.1929
 7818W        W27352  17.850  10.422  10.823 -0.0182  0.1200 -0.0041
 7819W        W27353   2.975   0.018   3.332  0.1074  0.2546 -0.0401
 7820W        W27354  17.468  18.909  10.567 -0.1095  0.0245 -0.0007
 7821W        W27355  16.656  10.038  10.555  0.1369 -0.0072 -0.0278
 7822W        W27356  13.341  12.567   0.765 -0.1469 -0.0358 -0.4155
 7823W        W27357   7.761   9.861  12.017 -0.0510 -0.0387 -0.4262
 7824W        W27358  16.325  14.485   0.351 -0.4529  0.0752 -0.0297
 7825W        W27359  10.131   6.028   3.079 -0.0373  0.1784  0.2375
 7826W        W27360  14.041  11.422   0.117 -0.0040  0.1046  0.0143
 7827W        W27361   9.492  16.372  11.868 -0.0203  0.0062  0.0977
 7828W        W27362  14.344  14.846  10.891  0.1667  0.0944 -0.1114
 7829W        W27363  10.214   3.872   3.601  0.0088  0.0181  0.0009
 7830W        W27364   9.182   0.429   1.201 -0.1322  0.2405  0.2249
 7831W        W27365   0.284   0.765  11.977 -0.0252  0.2944  0.3256
 7832W        W27366  18.530  17.925   1.451 -0.0283 -0.1307 -0.0118
 7833W        W27367   0.680  15.494   1.818  0.1070 -0.1302 -0.2070
 7834W        W27368  13.004   4.703  10.640  0.1838  0.0165  0.2895
 7835W        W27369   7.818   4.386  11.711 -0.1863  0.1913  0.0805
 7836W        W27370  18.865   7.495   1.370  0.1103 -0.3411  0.1401
 7837W        W27371   0.473   0.583   0.473  0.0026  0.1086  0.0870
 7838W        W27372   5.359   1.516   0.235  0.0393 -0.1168  0.0567
 7839W        W27373  18.816   5.972  12.308  0.0560  0.1648  0.2492
 7840W        W27374  17.245  15.755  11.588 -0.0587  0.0402 -0.2416
 7841W        W27375   9.472   8.154   2.892  0.0524 -0.0251 -0.1759
 7842W        W27376   0.657   8.016   3.397 -0.0432 -0.3775 -0.0545
 7843W        W27377  12.678  18.352   2.622  0.4046  0.0925  0.5465
 7844W        W27378   6.430  17.793   0.952  0.0953  0.2380  0.2024
 7845W        W27379   2.450  10.204   1.457 -0.0307  0.1450 -0.3164
 7846W        W27380   6.253   3.291  14.295  0.2275  0.1027  0.1740
 7847W        W27381   7.628   1.203   1.367 -0.0564  0.2161 -0.1256
 7848W        W27382   8.047   4.623   0.159 -0.0137  0.0288 -0.1648
 7849W        W27383  10.783  18.537  12.313 -0.0633  0.0826  0.2538
 7850W        W27384   8.711  16.053   1.556  0.2066  0.0156  0.0870
 7851W        W27385   2.496   1.421   0.833  0.0993  0.2795 -0.5154
 7852W        W27386   3.708   3.163  12.110 -0.0447  0.1454 -0.2173
 7853W        W27387   4.155   9.254  11.981  0.1461  0.1771 -0.0883
 7854W        W27388  17.979  10.738   8.939 -0.1183  0.3845 -0.1218
 7855W        W27389  14.330   3.057   3.168 -0.0141  0.0990  0.1938
 7856W        W27390   5.951   7.562   2.281 -0.0361 -0.2999  0.0947
 7857W        W27391   2.515  16.783  10.667 -0.0232 -0.1646  0.1842
 7858W        W27392   7.722  18.884   3.969 -0.1937  0.1436 -0.2594
 7859W        W27393  14.366   8.970  12.807 -0.0771 -0.1221 -0.0755
 7860W        W27394  11.644   7.513  12.680  0.1153  0.1804 -0.2314
 7861W        W27395   9.433  10.134   2.292 -0.2164  0.1898 -0.1536
 7862W        W27396   0.089   7.329  13.017 -0.1230 -0.2915  0.3506
 7863W        W27397  13.494   1.323   0.151  0.2803  0.2021 -0.1506
 7864W        W27398  10.648  15.295  10.709  0.3414 -0.0170  0.0737
 7865W        W27399  18.568   1.741  13.310 -0.2168 -0.0141 -0.1006
 7866W        W27400   0.543   0.795  13.524 -0.0286 -0.1895 -0.1494
 7867W        W27401  10.968  10.314  11.019  0.2767 -0.0495 -0.2196
 7868W        W27402   1.432  15.280   0.294 -0.1081  0.2690 -0.0875
 7869W        W27403  15.986   2.140   0.955 -0.2591  0.1430 -0.0971
 7870W        W27404  14.104   8.591   1.598  0.0565  0.1328  0.1164
 7871W        W27405  13.097   7.191   2.633 -0.4066 -0.0327  0.0722
 7872W        W27406  11.381   5.259   3.463  0.0872  0.1571  0.0440
 7873W        W27407  18.891   0.920  11.078 -0.1066  0.1614  0.0749
 7874W        W27408  16.262  14.102   0.879 -0.0763 -0.0310 -0.1062
 7875W        W27409  19.010  10.311   1.918 -0.0380  0.0915 -0.0882
 7876W        W27410  13.238  10.623  13.141  0.1305 -0.0380 -0.4043
 7877W        W27411  10.066  16.487   2.746  0.1301 -0.2067 -0.0115
 7878W        W27412   8.668   2.924   3.392  0.0444 -0.1071  0.1223
 7879W        W27413  16.609  10.698  12.581  0.2717  0.1599 -0.0155
 7880W        W27414   4.261  16.213   8.898 -0.0062  0.3334  0.0982
 7881W        W27415   2.134  10.608   1.526 -0.1387  0.1181 -0.3076
 7882W        W27416  11.267   7.857  12.817  0.2027  0.1253 -0.1577
 7883W        W27417   7.143   8.497   0.481 -0.0781  0.0941 -0.2366
 7884W        W27418   6.986   0.335  12.312 -0.2751 -0.0991 -0.0308
 7885W        W27419   6.211   7.159   2.331  0.2743  0.0825 -0.2262
 7886W        W27420  13.337   1.897  12.384 -0.0306  0.1101 -0.1728
 7887W        W27421  16.136  11.091   2.942 -0.3703 -0.1516 -0.3347
 7888W        W27422  15.607  19.071  12.769  0.0959  0.0968  0.0975
 7889W        W27423   0.891   0.549   9.993  0.3408  0.2197 -0.0511
 7890W        W27424  18.869  16.803   3.302 -0.1724  0.4103 -0.1739
 7891W        W27425   7.668   1.075  11.594  0.0469 -0.0121  0.2481
 7892W        W27426   4.003   5.404  10.475  0.1640 -0.2009 -0.0898
 7893W        W27427  17.213   4.407  10.286 -0.0961  0.0429 -0.2525
 7894W        W27428   4.397  13.960   1.743  0.1266 -0.0965 -0.2502
 7895W        W27429   3.390  18.039   1.729 -0.1977 -0.0448 -0.0754
 7896W        W27430  17.544  17.863   2.229  0.0775  0.2560 -0.0478
 7897W        W27431   4.911   9.959   0.721 -0.1295 -0.0925  0.0362
 7898W        W27432  15.589  14.778  12.781  0.0353 -0.2886 -0.2850
 7899W        W27433   6.987   2.144  10.907 -0.1977 -0.3669  0.1507
 7900W        W27434  10.935  10.317  12.239  0.1487  0.0910  0.0785
 7901W        W27435   7.204  17.408   1.693 -0.2378  0.1964 -0.1253
 7902W        W27436   1.575   2.027   2.284  0.1271 -0.1848  0.1166
 7903W        W27437   9.449  11.165  12.630  0.0542  0.1675  0.0377
 7904W        W27438   7.036   3.539   3.362  0.0741  0.0774  0.1631
 7905W        W27439  13.663  17.132   3.555 -0.2171  0.0479 -0.2702
 7906W        W27440  13.792  14.948  13.417 -0.0061 -0.0622  0.1422
 7907W        W27441  15.813   1.952  12.168  0.0236 -0.0131  0.1133
 7908W        W27442  16.486  11.397  10.668 -0.2086 -0.3623  0.2601
 7909W        W27443  16.056   9.006   1.237 -0.1539 -0.3490 -0.1763
 7910W        W27444   2.919  11.248   2.640 -0.1189  0.0319 -0.0999
 7911W        W27445  18.436  13.455  10.883  0.1318 -0.1843  0.0241
 7912W        W27446  11.350  14.780  11.008  0.0442 -0.2692 -0.0876
 7913W        W27447   6.788   9.065  11.357 -0.0553  0.1000  0.0896
 7914W        W27448  12.847   6.803  11.236  0.1944  0.2179 -0.1602
 7915W        W27449  15.378   2.723   0.133  0.0229 -0.0825  0.0011
 7916W        W27450  15.770  19.286   3.099  0.1898  0.0726  0.1109
 7917W        W27451   5.987  15.993   3.716 -0.2715 -0.0453 -0.2982
 7918W        W27452  14.757   9.627  13.218 -0.2020  0.0024  0.1103
 7919W        W27453  17.641   6.086  11.187 -0.2411 -0.1171  0.0102
 7920W        W27454   5.006  14.926   0.120 -0.2700  0.2099 -0.1168
 7921W        W27455  12.101  18.657   1.390  0.0849  0.0593  0.0393
 7922W        W27456  19.076  14.788  10.588  0.1384  0.1788 -0.0023
 7923W        W27457   5.416  14.452   0.876 -0.0885 -0.0029  0.1068
 7924W        W27458  19.037   9.438   3.652 -0.1029  0.0385  0.1560
 7925W        W27459  18.640   9.997   2.062 -0.4018 -0.1821  0.1019
 7926W        W27460   3.303  15.792  12.480  0.2445  0.1509  0.1094
 7927W        W27461  11.300   7.536  11.165  0.2599  0.1831  0.0541
 7928W        W27462   2.582  16.712  12.600 -0.3388 -0.2974 -0.1535
 7929W        W27463  12.033   0.565  11.521 -0.2337  0.4414  0.2040
 7930W        W27464  10.357  17.532   0.653 -0.1066 -0.0659  0.1261
 7931W        W27465   0.008   4.828  10.891  0.0185 -0.2061 -0.0175
 7932W        W27466   0.159  15.544  10.851  0.2513 -0.1950  0.1554
 7933W        W27467   0.175   0.789  13.898  0.0997 -0.0358  0.3394
 7934W        W27468  10.745   7.855  12.139  0.0058  0.1112 -0.0293
 7935W        W27469   1.274   3.601   0.914 -0.1804 -0.1034  0.2891
 7936W        W27470  10.034   8.970   1.929  0.5131  0.0794  0.2816
 7937W        W27471   2.152  18.826  12.909  0.0830  0.1865 -0.0135
 7938W        W27472  16.519   0.246   4.045 -0.2163 -0.0464 -0.1147
 7939W        W27473  19.167   0.317  12.276 -0.0300  0.1623 -0.2389
 7940W        W27474  14.711  14.775   1.702 -0.2787  0.1122 -0.2051
 7941W        W27475  17.135  11.175   3.263  0.0531 -0.1106 -0.1370
 7942W        W27476  18.070  11.457   0.225 -0.2787 -0.2129  0.1141
 7943W        W27477  12.926   8.783   0.630  0.1320  0.1832  0.1275
 7944W        W27478  16.768  18.088   3.511  0.2219 -0.1566  0.2317
 7945W        W27479   8.021   8.460   0.008 -0.1533  0.1114 -0.0342
 7946W        W27480  16.430   9.338  12.775  0.1657  0.2000  0.0749
 7947W        W27481   8.285  11.168   3.738  0.0809 -0.2173 -0.0098
 7948W        W27482  11.135   5.245   0.301  0.0002  0.1565  0.0089
 7949W        W27483   1.777   8.031  13.048  0.2427 -0.0752  0.2341
 7950W        W27484  13.974   2.454   0.300 -0.3079 -0.0766 -0.0352
 7951W        W27485   2.394  11.842   1.084  0.3167  0.1742  0.3160
 7952W        W27486  11.631  17.219  14.153  0.1564 -0.1786 -0.2693
 7953W        W27487   9.961   9.497  12.662  0.1913  0.1068 -0.0674
 7954W        W27488  17.798  10.167   1.895  0.1941 -0.0672 -0.0347
 7955W        W27489  17.007  19.138  10.702 -0.0395  0.0733  0.0961
 7956W        W27490   4.301   7.864  13.092  0.3488 -0.3832 -0.5150
 7957W        W27491  14.533  13.113   0.482 -0.2805  0.3499  0.2335
 7958W        W27492  14.889   6.909  12.941  0.0712  0.0396 -0.0048
 7959W        W27493  13.187  14.615  13.745 -0.2345 -0.0257  0.0951
 7960W        W27494  15.515  10.966  12.039 -0.2642 -0.5491 -0.3441
 7961W        W27495  17.133   3.523   0.729 -0.2337  0.1665  0.1944
 7962W        W27496   4.373  18.930   2.615 -0.0581 -0.0268  0.0770
 7963W        W27497   8.951  10.819   0.071 -0.2529 -0.3250 -0.2187
 7964W        W27498  17.768  19.067   3.339 -0.0532 -0.4332  0.3767
 7965W        W27499  11.945  12.576  10.864  0.2053 -0.0761  0.0203
 7966W        W27500  11.300   8.969   1.144 -0.2344 -0.0069 -0.0521
 7967W        W27501  14.398  17.393   2.651  0.0643 -0.1046 -0.0075
 7968W        W27502   1.424   3.769   3.817 -0.0468 -0.3233  0.1285
 7969W        W27503  14.150   9.598   0.217 -0.2263  0.0037 -0.3050
 7970W        W27504   7.443   1.078  13.462 -0.1826  0.3568  0.2690
 7971W        W27505  16.411   4.081   1.942  0.0893  0.0261  0.1663
 7972W        W27506  18.097   5.906   2.864 -0.4993 -0.0326  0.0194
 7973W        W27507  16.805  19.408   0.606 -0.0758 -0.0996 -0.0992
 7974W        W27508   5.892   4.210   4.198 -0.2715  0.2219  0.0289
 7975W        W27509  12.869  12.512  12.322  0.1541 -0.0860  0.1780
 7976W        W27510  16.846  14.705  10.819 -0.1355  0.0125  0.0422
 7977W        W27511   7.660  11.539  12.008  0.0728  0.0959  0.6011
 7978W        W27512   8.608  16.094  11.647  0.0983  0.2923  0.2206
 7979W        W27513   3.085  11.065  13.360  0.2439 -0.1172 -0.0812
 7980W        W27514   4.194  15.914   1.913 -0.1258 -0.0493 -0.0623
 7981W        W27515  13.238  10.674   3.838 -0.2251 -0.0216  0.2362
 7982W        W27516   2.202  16.400  10.052  0.0243  0.0487  0.0628
 7983W        W27517  15.900   3.849   0.417 -0.1115  0.0631 -0.0121
 7984W        W27518  14.784  16.459  11.704  0.2328  0.0903 -0.2270
 7985W        W27519  13.030   3.719  10.307 -0.1986  0.1065  0.3395
 7986W        W27520   7.752   1.300   0.416 -0.0807  0.1129  0.2405
 7987W        W27521  15.924  15.179   2.398  0.0962 -0.0643 -0.5114
 7988W        W27522   1.661  10.061   1.004  0.2215 -0.3933 -0.1713
 7989W        W27523   9.514  15.423  11.282 -0.1417  0.0402  0.0183
 7990W        W27524   0.905   6.920  12.941  0.0703 -0.2959 -0.2166
 7991W        W27525   3.654   4.928   0.503  0.2482 -0.0283 -0.1919
 7992W        W27526  14.330  18.312  10.331  0.0867  0.0407  0.2635
 7993W        W27527   1.366  14.544   4.006 -0.1033 -0.0880  0.0729
 7994W        W27528   0.616  18.885   1.775  0.2339 -0.2315 -0.1345
 7995W        W27529  11.336  12.296  11.135  0.3389  0.0364 -0.0349
 7996W        W27530  16.792  14.195   0.154  0.0644  0.0604  0.0242
 7997W        W27531  10.011   5.116   1.468  0.1333  0.1927  0.0189
 7998W        W27532   7.485   3.568  11.781  0.0892  0.1593  0.0601
 7999W        W27533  19.008  14.072  10.446 -0.0130 -0.1030  0.0140
 8000W        W27534   4.193   7.123   3.360  0.3186  0.1826  0.0066
 8001W        W27535   8.921  13.402   1.273  0.0977 -0.1063  0.2626
 8002W        W27536  12.643  10.882   2.505 -0.0650 -0.3270 -0.1527
 8003W        W27537  12.576  10.141   1.746 -0.3088  0.0743 -0.1610
 8004W        W27538   4.536   9.150   3.744  0.2804  0.2151 -0.2543
 8005W        W27539  16.059   2.933  10.654 -0.1397 -0.1361 -0.1286
 8006W        W27540   7.533   3.660   4.036 -0.0721  0.0181 -0.1447
 8007W        W27541   2.557   0.937   0.635 -0.3402  0.2766  0.1623
 8008W        W27542   4.517  19.207   2.238 -0.0792 -0.0976  0.1140
 8009W        W27543  16.217   5.836  11.531  0.0463  0.1896  0.0129
 8010W        W27544   9.324  18.162   2.892  0.3248 -0.1647 -0.0024
 8011W        W27545   8.111   1.635   3.770  0.0007  0.0932 -0.2173
 8012W        W27546  13.821  16.679   1.363  0.3069  0.0078 -0.1249
 8013W        W27547  16.748  17.140   9.110 -0.1361 -0.0755  0.1861
 8014W        W27548  11.895  15.812   4.974 -0.1054  0.1733 -0.0919
 8015W        W27549   0.108   1.378   1.332 -0.2697 -0.0175 -0.0127
 8016W        W27550  13.884  11.647   0.541  0.0744  0.1174 -0.0376
 8017W        W27551  15.084   3.887  14.022 -0.0089 -0.0091 -0.3916
 8018W        W27552  15.507  17.292  13.703  0.3560  0.0128  0.0120
 8019W        W27553   2.800   4.447   1.684 -0.2607  0.1185 -0.4099
 8020W        W27554   9.794  12.494  13.687 -0.0565 -0.1539  0.0117
 8021W        W27555  19.098   1.244  11.539 -0.0629  0.0586  0.1199
 8022W        W27556   0.292  17.961   2.441  0.1165  0.0315  0.1451
 8023W        W27557   1.974  16.101  13.343  0.2595 -0.0372 -0.1872
 8024W        W27558   4.918  15.188  11.723  0.0855 -0.2735 -0.2006
 8025W        W27559  11.694   7.581   0.296 -0.0068  0.2308 -0.1682
 8026W        W27560   5.201   7.071   3.416  0.0517  0.1010  0.3331
 8027W        W27561  19.214  19.326  12.700 -0.0912 -0.2014 -0.2034
 8028W        W27562  10.629  10.682   0.519  0.1763 -0.2173 -0.1828
 8029W        W27563  18.469  10.371  11.138  0.1385 -0.1526 -0.1171
 8030W        W27564   8.259  10.171  13.419  0.0926 -0.1967 -0.0848
 8031W        W27565  14.143   7.233  13.242 -0.0163  0.1506 -0.0745
 8032W        W27566   9.134  15.611   2.628  0.0475  0.1771  0.0707
 8033W        W27567   4.337  18.966  12.875 -0.3264  0.0652 -0.0296
 8034W        W27568  14.241   1.141  12.043  0.4200 -0.1299  0.0428
 8035W        W27569   9.747   0.784   0.548  0.0753 -0.2367  0.0853
 8036W        W27570  13.987  12.869  14.103 -0.3162  0.1563  0.2510
 8037W        W27571  18.230   4.756   3.096  0.1752  0.2246 -0.0557
 8038W        W27572  13.099  18.511  14.292  0.2796 -0.0981  0.2563
 8039W        W27573   3.166   7.828  10.219 -0.1532  0.0232  0.1935
 8040W        W27574  15.608  10.403   3.058  0.0822  0.1250 -0.0773
 8041W        W27575   4.045   3.006  12.476  0.0300 -0.3293  0.0107
 8042W        W27576  19.161   2.012  11.095 -0.0640 -0.0079  0.1738
 8043W        W27577   7.717   4.603   3.570  0.2139 -0.2003  0.1130
 8044W        W27578  12.288  11.269   1.408  0.0501 -0.0524 -0.1120
 8045W        W27579   5.903   4.205   3.188  0.1459  0.0471 -0.1000
 8046W        W27580  10.000   7.793   0.628 -0.4574  0.0082  0.1432
 8047W        W27581  13.739  10.814   1.977 -0.0147  0.1751  0.0702
 8048W        W27582   6.234   6.636  13.274 -0.3475 -0.0218 -0.1544
 8049W        W27583   3.817  14.323   3.261 -0.0295 -0.2644  0.2608
 8050W        W27584   0.709   4.550  13.977 -0.1068  0.1341 -0.0783
 8051W        W27585  15.071   9.653   1.746  0.1522 -0.1318 -0.1303
 8052W        W27586   4.144  10.456  11.674  0.1615 -0.1985  0.0478
 8053W        W27587  14.683   0.971  12.052 -0.0091 -0.2054  0.0422
 8054W        W27588  19.279  12.456  11.108  0.3545 -0.1772 -0.0260
 8055W        W27589  14.793  14.863  12.276  0.1060  0.2475  0.2450
 8056W        W27590   5.373   7.215   4.951 -0.2158 -0.1576 -0.1115
 8057W        W27591  17.959  14.873  10.997  0.0195 -0.0515 -0.0538
 8058W        W27592   7.203   7.499   2.288 -0.0345 -0.0781 -0.3036
 8059W        W27593   0.141   3.054   3.952  0.0329 -0.3873  0.2670
 8060W        W27594   4.498  15.280   3.848 -0.1917  0.0045  0.1211
 8061W        W27595   3.968  18.138  11.235  0.1593 -0.1333 -0.0718
 8062W        W27596   6.807   3.707   4.771  0.0640 -0.1477 -0.0386
 8063W        W27597   4.694   5.254   0.577  0.0683  0.0634  0.3740
 8064W        W27598  17.430  17.258   0.311  0.2116  0.0241  0.0723
 8065W        W27599  15.174  12.234   0.952  0.3261  0.2471 -0.1873
 8066W        W27600   8.366  13.080   3.403  0.0789  0.0652 -0.0157
 8067W        W27601  12.470   7.658   2.696  0.0558 -0.0695  0.1145
 8068W        W27602   3.494   7.549  10.524 -0.2970  0.3278  0.1134
 8069W        W27603   5.878   3.669   0.330  0.1536 -0.2163  0.1482
 8070W        W27604   2.334   1.489  11.034 -0.1616  0.0901  0.0782
 8071W        W27605  11.743  17.176   3.846  0.1596  0.0289 -0.1828
 8072W        W27606   7.390   6.606   4.066 -0.1207  0.1850  0.1917
 8073W        W27607  16.046   8.484   2.146  0.0544  0.0236 -0.4101
 8074W        W27608   7.864  13.271  13.471  0.3017 -0.0216  0.1629
 8075W        W27609   7.425   7.976   1.260 -0.0339  0.0894  0.2873
 8076W        W27610  18.351  14.163   2.771  0.0357 -0.2188 -0.3927
 8077W        W27611  18.796   2.951   1.803 -0.2891  0.0338 -0.3339
 8078W        W27612   1.247   7.769  12.242  0.0533  0.2643  0.0994
 8079W        W27613  17.744  12.447  13.168  0.0465  0.0060 -0.0061
 8080W        W27614  18.321   8.843   0.133 -0.1498 -0.5298  0.0542
 8081W        W27615   4.369  11.676  13.344  0.0664 -0.2609 -0.0112
 8082W        W27616   5.027   3.098  13.178 -0.1880  0.0482 -0.0806
 8083W        W27617   0.686   0.060   2.534 -0.1749 -0.2361 -0.0950
 8084W        W27618  13.281  13.568  13.946 -0.2164 -0.1170  0.0970
 8085W        W27619  10.120  11.003   1.519  0.2377  0.1629  0.0272
 8086W        W27620  15.296  11.832  13.831 -0.2485  0.3928 -0.2226
 8087W        W27621   6.250  17.976  13.398 -0.1822 -0.1625 -0.1974
 8088W        W27622  19.324   0.803  12.876  0.0662 -0.2271 -0.3029
 8089W        W27623   6.909   5.128   3.384 -0.0716  0.0582 -0.2246
 8090W        W27624  16.725   3.610  14.337 -0.0324 -0.0497 -0.1489
 8091W        W27625  19.042   7.054  12.323  0.3587 -0.1694  0.1143
 8092W        W27626   0.927   8.659   1.988  0.0557 -0.2792 -0.0891
 8093W        W27627   8.234   8.710   4.923  0.0247  0.2101 -0.1332
 8094W        W27628  15.808  16.393   0.242 -0.2840 -0.2609 -0.3296
 8095W        W27629   0.340   1.701   3.003  0.2855 -0.1002 -0.0774
 8096W        W27630   9.451   7.234  12.534 -0.0010  0.1934 -0.0424
 8097W        W27631   6.990   0.177  10.949 -0.0069  0.3034 -0.0039
 8098W        W27632   6.669  14.787   2.099  0.0104 -0.0757  0.0430
 8099W        W27633   0.586  18.979  10.065 -0.2268  0.0400 -0.3694
 8100W        W27634   4.349  15.988   0.374 -0.3034 -0.2178  0.1472
 8101W        W27635  15.944  11.885  11.204 -0.0154  0.1123 -0.0024
 8102W        W27636   4.746   9.099   3.275  0.0316 -0.0786  0.2016
 8103W        W27637   5.906   8.992  14.095 -0.0091 -0.0398 -0.0923
 8104W        W27638   4.339  16.965  10.467  0.0110  0.0596  0.2452
 8105W        W27639  17.808  11.798   1.124  0.1421 -0.1637 -0.0139
 8106W        W27640   7.830   0.109   3.189 -0.0540  0.2594 -0.2676
 8107W        W27641   2.534   9.081   0.506 -0.0842  0.1455 -0.0108
 8108W        W27642   2.159   0.992   2.547 -0.1785 -0.0746 -0.2581
 8109W        W27643  18.203   9.344  14.263  0.2985 -0.2883 -0.0312
 8110W        W27644   7.151   8.554   4.155 -0.1702 -0.0604 -0.0024
 8111W        W27645   5.914   8.947  10.226 -0.2641 -0.3611  0.0762
 8112W        W27646   1.861   4.408  12.989  0.1710  0.0118 -0.0215
 8113W        W27647   1.690   0.429  13.261  0.0830 -0.1261  0.0935
 8114W        W27648   5.238   6.295   2.305  0.0129  0.0950 -0.0022
 8115W        W27649  11.468  15.517  13.738 -0.0761  0.0567 -0.4523
 8116W        W27650   0.086  16.126  12.222 -0.0872  0.3123  0.1197
 8117W        W27651  12.172   7.791   1.755  0.0117  0.0795  0.0916
 8118W        W27652   8.427  12.373  12.523 -0.0779 -0.0732  0.2056
 8119W        W27653  12.643  19.217  10.664 -0.1365  0.1961  0.1396
 8120W        W27654  15.492  16.515  14.226  0.4452  0.3598  0.1963
 8121W        W27655   7.018   3.796   0.081  0.0993 -0.2949 -0.1257
 8122W        W27656   9.531   3.707   1.301 -0.2045  0.2272 -0.3478
 8123W        W27657   4.851   1.265  10.964  0.0040 -0.0819  0.1200
 8124W        W27658   4.853   4.939  13.539  0.1886 -0.0281 -0.0640
 8125W        W27659  10.935   9.228   0.289  0.0936  0.1628 -0.1206
 8126W        W27660   6.155   7.353  11.184  0.0794  0.0366  0.0359
 8127W        W27661  18.795  10.781   2.057 -0.1649  0.0498  0.3328
 8128W        W27662   9.459  19.504   2.956  0.2510  0.4798  0.2418
 8129W        W27663   0.690  15.572  10.611  0.0492 -0.2181  0.0823
 8130W        W27664  13.439  11.357   1.943  0.0764  0.0885  0.3295
 8131W        W27665  12.402   3.886  13.540  0.2110  0.1358  0.1390
 8132W        W27666  17.889  18.870  11.566 -0.0703 -0.0787 -0.3728
 8133W        W27667   6.424  18.711  11.632 -0.4013 -0.1856 -0.0449
 8134W        W27668  16.652  15.933   3.557 -0.0379 -0.0551 -0.1447
 8135W        W27669   4.117  17.991   2.085  0.1640  0.0119  0.2090
 8136W        W27670  17.535  18.306  13.514  0.1262 -0.1263  0.2305
 8137W        W27671  18.581   9.173   2.515 -0.2668 -0.3523  0.2945
 8138W        W27672  16.001  15.980   0.312 -0.1612  0.0607  0.0121
 8139W        W27673   1.615  19.156   3.158  0.1887 -0.3127 -0.0662
 8140W        W27674  16.792  12.866   2.123 -0.3013 -0.1954  0.0607
 8141W        W27675  17.257   5.314  11.160 -0.3019 -0.1882  0.1215
 8142W        W27676  17.719  17.787   1.799  0.1202  0.2393 -0.1736
 8143W        W27677  10.101  14.824   3.579 -0.1891 -0.0052  0.1112
 8144W        W27678   4.223  17.788   1.026 -0.0012 -0.0912 -0.3642
 8145W        W27679  12.214  14.249  13.730  0.3878  0.4908  0.1190
 8146W        W27680  11.397   2.851   1.287 -0.0244 -0.3840 -0.0965
 8147W        W27681   4.090  15.544   0.319 -0.0658  0.3335  0.0877
 8148W        W27682   3.854  16.001   0.434 -0.0714  0.1836  0.1629
 8149W        W27683   8.544   3.601   1.187  0.1475 -0.1158  0.1027
 8150W        W27684  16.831   9.212  11.649 -0.0870 -0.1414 -0.0327
 8151W        W27685  11.843   6.141   3.382 -0.2615 -0.0666  0.1977
 8152W        W27686   2.792  17.258   2.703 -0.2175  0.0545 -0.2575
 8153W        W27687   5.431  15.229  11.006  0.2615  0.1520 -0.3694
 8154W        W27688  11.936  10.464   3.171  0.1609 -0.0060  0.1376
 8155W        W27689  16.074   1.031  12.677  0.0652  0.2272  0.3780
 8156W        W27690   9.862  10.580   1.452 -0.1003  0.2721 -0.1300
 8157W        W27691  14.889   4.232   0.543 -0.3793 -0.1466 -0.3314
 8158W        W27692   0.727  13.348   0.158  0.0514 -0.0358  0.0384
 8159W        W27693   4.908   9.454   3.585  0.1476  0.0720  0.1282
 8160W        W27694  17.575   0.505  12.212  0.1127 -0.1729  0.3940
 8161W        W27695   0.211  19.399  13.479  0.0577 -0.0995 -0.2702
 8162W        W27696   0.978  15.145   0.496 -0.1516 -0.4803 -0.2928
 8163W        W27697  18.313  14.502   3.450  0.0977 -0.1029 -0.2490
 8164W        W27698  14.521  16.030   2.906  0.1360  0.0740  0.1425
 8165W        W27699  14.638  16.108  10.139  0.1238  0.0014 -0.0228
 8166W        W27700  11.290  19.449  13.906 -0.1130 -0.0458 -0.0987
 8167W        W27701  15.869   3.765   0.946 -0.1969  0.2820 -0.2177
 8168W        W27702   5.485  18.102   3.614 -0.0341  0.1005 -0.3139
 8169W        W27703  12.132   1.414  11.956  0.0917 -0.1527  0.0864
 8170W        W27704  15.695   7.147  11.861  0.0585 -0.0272  0.3500
 8171W        W27705   2.216   4.883   0.993 -0.3587 -0.0030  0.1469
 8172W        W27706  15.748  17.143   0.823  0.1136  0.3365  0.0418
 8173W        W27707   1.869  16.971  13.586 -0.2353 -0.2952 -0.1353
 8174W        W27708  14.899  12.625  11.339 -0.1044 -0.1411  0.3503
 8175W        W27709   4.833   7.875   4.426  0.0945  0.0193 -0.3331
 8176W        W27710  16.973  15.757   2.885 -0.3716  0.0923  0.0190
 8177W        W27711  15.291   0.132   9.552 -0.1005  0.0025 -0.0531
 8178W        W27712  16.230   1.055   5.240  0.1252  0.1073  0.0873
 8179W        W27713  16.096   6.129  12.436 -0.4112  0.3164 -0.1126
 8180W        W27714   2.467   9.265  13.436  0.2207  0.0990  0.0361
 8181W        W27715   4.175   3.440  12.051 -0.0125  0.1707  0.2375
 8182W        W27716  13.281   9.294   3.993 -0.3371  0.0451 -0.2533
 8183W        W27717  11.742  10.296  13.317 -0.1472  0.1279 -0.0193
 8184W        W27718  14.899  17.205   2.396 -0.0386  0.1066  0.0817
 8185W        W27719  18.898  15.280  11.423 -0.1543  0.2327 -0.2236
 8186W        W27720   4.582  13.158   1.044  0.0341 -0.1812 -0.2128
 8187W        W27721  12.840   1.983  10.888  0.0261  0.2410  0.1438
 8188W        W27722   4.763  12.271   2.862 -0.0119  0.2916  0.0457
 8189W        W27723   9.989   7.612  10.428 -0.1781  0.1760 -0.4168
 8190W        W27724   3.871   2.383   4.365 -0.1119  0.2753  0.0425
 8191W        W27725  19.469  17.735   1.631  0.3363 -0.0375  0.1887
 8192W        W27726   4.682  13.864  11.809 -0.1558 -0.0744 -0.4949
 8193W        W27727  19.411  18.529  13.244  0.1805  0.3086  0.0258
 8194W        W27728   7.587   2.578  12.677 -0.2968  0.0145 -0.0221
 8195W        W27729  17.725   4.789  13.585 -0.0128  0.1692 -0.1676
 8196W        W27730   2.509   5.453  11.424  0.4068  0.3092  0.0237
 8197W        W27731   3.398  18.821  12.642  0.3292  0.1175 -0.0282
 8198W        W27732   4.353   7.301  13.740 -0.0298 -0.1478  0.2273
 8199W        W27733  17.840  15.326  13.444  0.2899 -0.1043 -0.1608
 8200W        W27734  19.486  18.069   1.200  0.1138  0.0093  0.0740
 8201W        W27735  13.837   6.859   4.151 -0.0219 -0.1830  0.1124
 8202W        W27736   7.501  17.197   2.754 -0.2800 -0.0490 -0.0827
 8203W        W27737  17.810   2.590  13.020 -0.0222  0.0222 -0.0643
 8204W        W27738   5.789   5.051  11.328 -0.0767  0.2272 -0.1495
 8205W        W27739   9.304  18.631   3.049  0.2168 -0.2855 -0.1936
 8206W        W27740  14.167   4.516   1.140  0.0615 -0.1226  0.0034
 8207W        W27741   3.425   3.832  13.169 -0.1727 -0.2115 -0.3214
 8208W        W27742   2.533   3.001   1.146  0.2958 -0.0465 -0.0417
 8209W        W27743  15.732   1.216   4.618  0.0362  0.2399 -0.0815
 8210W        W27744   2.486  12.029   0.600  0.1701  0.0618 -0.0728
 8211W        W27745   7.327   4.706   0.763 -0.0950  0.1708 -0.1277
 8212W        W27746   7.174   7.348   1.766  0.0076  0.0156 -0.0720
 8213W        W27747  10.102  19.058  13.197 -0.2357  0.1505 -0.2544
 8214W        W27748  16.818   9.197   3.029 -0.1627  0.4180 -0.0454
 8215W        W27749  16.008  11.836  11.957  0.1455 -0.0219 -0.0751
 8216W        W27750   5.036   9.575  11.472 -0.2695 -0.0475 -0.3282
 8217W        W27751  14.861   8.175  11.633  0.0883 -0.1996 -0.1019
 8218W        W27752  17.327   4.794   3.239  0.4181  0.0255  0.1254
 8219W        W27753  11.346  10.018  12.471  0.0325 -0.0702  0.0635
 8220W        W27754   6.350   2.051   2.318 -0.3054 -0.2155  0.0772
 8221W        W27755  11.871   5.990  11.682  0.0681  0.0672  0.2104
 8222W        W27756  15.620   9.907   3.623  0.0692 -0.2634  0.1432
 8223W        W27757   6.897   4.134  11.765  0.2343  0.0832 -0.0536
 8224W        W27758   7.150  17.882   1.117  0.0160  0.0354  0.1208
 8225W        W27759   8.407   3.104   3.027  0.0440  0.3320 -0.1020
 8226W        W27760  14.877  18.730  11.454 -0.0899  0.2143 -0.0447
 8227W        W27761  10.700   0.795   3.176 -0.0579 -0.0733 -0.1788
 8228W        W27762  10.488   0.442  12.339  0.2148 -0.0984  0.0229
 8229W        W27763  11.827  11.268   1.634  0.0228 -0.1178 -0.2069
 8230W        W27764   9.460   1.166  12.990  0.0031  0.1755 -0.1027
 8231W        W27765  12.219   2.770   9.804 -0.1883 -0.4228 -0.3645
 8232W        W27766  12.369   2.086   2.470  0.0924 -0.0170  0.1792
 8233W        W27767   6.086  17.152  10.378  0.0495 -0.4388 -0.0233
 8234W        W27768   0.785  12.976  11.199  0.1681  0.1626  0.0368
 8235W        W27769  16.763   7.608  10.832  0.1373  0.0130 -0.2759
 8236W        W27770   5.625  13.011   2.803  0.0000  0.0468  0.4840
 8237W        W27771  13.457  15.423   0.700 -0.1310  0.0071 -0.0345
 8238W        W27772   1.413   9.621  12.140  0.2167  0.0895 -0.0488
 8239W        W27773   9.804   3.002   3.922  0.1095  0.0176 -0.5275
 8240W        W27774  17.683  13.696   2.958 -0.1795  0.0857  0.0183
 8241W        W27775  12.742   8.169  14.295 -0.0709  0.0995  0.1870
 8242W        W27776   8.498   8.622   2.397 -0.0063 -0.1822  0.2512
 8243W        W27777  19.536  15.836   2.955 -0.3175  0.1253  0.1483
 8244W        W27778   8.832  12.265  11.226  0.2415  0.0934  0.0103
 8245W        W27779   0.775  13.183  11.796 -0.3896 -0.0412 -0.1530
 8246W        W27780   2.780   8.487  10.669 -0.2301 -0.0457 -0.4209
 8247W        W27781   9.054   3.129   1.953 -0.4624 -0.2482 -0.0633
 8248W        W27782   7.397   6.474  12.774 -0.0120  0.0450 -0.2909
 8249W        W27783   0.633  12.244  12.395 -0.0359 -0.1076  0.1530
 8250W        W27784  12.056  10.402  11.834 -0.0239  0.1715 -0.3789
 8251W        W27785  10.077  15.992   1.602  0.4495 -0.0037  0.1151
 8252W        W27786  17.524  10.989  12.706 -0.2680  0.0430  0.0160
 8253W        W27787   9.654  11.705   2.045 -0.2260  0.2475 -0.2557
 8254W        W27788   7.607   2.319   1.797  0.1091  0.2550 -0.1957
 8255W        W27789   1.556  17.125  12.162  0.0101 -0.0822 -0.0748
 8256W        W27790  16.854   0.881   3.616 -0.0771 -0.1157  0.1416
 8257W        W27791   3.461   0.627  11.690  0.0608 -0.0814  0.0350
 8258W        W27792   2.596  17.443  10.303  0.1440  0.1399 -0.4053
 8259W        W27793  12.592  15.136  10.701 -0.1955 -0.2545  0.2159
 8260W        W27794   1.494  11.225   3.683 -0.0043  0.1781 -0.0963
 8261W        W27795  14.419  14.505   9.924 -0.1123  0.0761 -0.0369
 8262W        W27796   4.674  17.736  14.283 -0.1107 -0.1492  0.1081
 8263W        W27797   8.199   8.139   3.855  0.3615  0.0160  0.1677
 8264W        W27798   5.256  13.124  10.985  0.2138  0.1730  0.0377
 8265W        W27799  11.334  16.478  12.273  0.1992  0.0631  0.1223
 8266W        W27800  10.616  17.298  11.314 -0.3868  0.0779  0.0482
 8267W        W27801   8.639  10.533  12.078 -0.1593  0.2276  0.0575
 8268W        W27802   0.885  14.958   3.309  0.2709 -0.0243 -0.2173
 8269W        W27803  10.352  13.733  14.302  0.1377  0.2108  0.1238
 8270W        W27804   5.911  10.461  12.321 -0.2799  0.2230 -0.0568
 8271W        W27805   8.745  14.844  12.256  0.1432 -0.1807  0.0489
 8272W        W27806   7.756  10.958   3.012  0.1190  0.0939  0.0934
 8273W        W27807  10.933   8.584   1.015 -0.3834 -0.0823 -0.0020
 8274W        W27808  14.618   7.903   0.026 -0.0894  0.3911  0.1637
 8275W        W27809  15.156   9.672   0.520  0.2686  0.1773  0.2673
 8276W        W27810  13.237  14.836   9.560  0.1221 -0.0024  0.2098
 8277W        W27811  10.433  16.319  13.677 -0.1289  0.0493  0.0329
 8278W        W27812  11.609  14.269   1.418  0.0117 -0.0507  0.1575
 8279W        W27813  18.299  16.982   3.791 -0.0394 -0.0533  0.2474
 8280W        W27814   0.139  10.934  10.136 -0.1216 -0.1984  0.0128
 8281W        W27815  17.189  17.052  11.433 -0.0359  0.1199  0.2518
 8282W        W27816   2.570   0.138  10.620 -0.0191 -0.0369 -0.0657
 8283W        W27817  12.578   1.054  11.642  0.2936  0.1336  0.1328
 8284W        W27818   4.070   3.165  13.316 -0.1624 -0.3219  0.2932
 8285W        W27819  14.365   2.143   1.085 -0.3183 -0.2449  0.3675
 8286W        W27820   1.349   0.464  13.655 -0.0454 -0.1526  0.0413
 8287W        W27821  17.767  13.345  12.711 -0.1271 -0.0080  0.0213
 8288W        W27822  15.440   4.554   1.604  0.2343 -0.2117 -0.0979
 8289W        W27823  17.923   7.218  12.025  0.4828  0.4318  0.1774
 8290W        W27824  17.899   0.335   1.030  0.2544  0.0564 -0.0603
 8291W        W27825  11.644  15.167  14.086  0.0559  0.1398 -0.0203
 8292W        W27826  17.620   9.335   2.078  0.1511 -0.2433  0.0658
 8293W        W27827  10.104  11.818   0.097 -0.2698 -0.0241 -0.2364
 8294W        W27828   7.943  15.706   3.572  0.0561 -0.0928 -0.0036
 8295W        W27829   6.541   0.776   1.096  0.0270  0.3038  0.1081
 8296W        W27830  16.368  10.131  12.099  0.0172  0.3703  0.0403
 8297W        W27831   3.030  14.787   1.446 -0.2603 -0.1268 -0.0500
 8298W        W27832  17.491  18.865  12.255 -0.2132 -0.0945  0.1049
 8299W        W27833  15.381  10.952   2.273  0.2639  0.0327 -0.0890
 8300W        W27834   5.004  19.354   2.481  0.2760 -0.0351 -0.1101
 8301W        W27835   7.685  10.390  12.194  0.1821 -0.0367 -0.2294
 8302W        W27836  18.134  18.527  10.694 -0.3828 -0.0104  0.2020
 8303W        W27837   2.480  14.448  11.495  0.1196 -0.3506 -0.0725
 8304W        W27838  17.789   8.580  12.344 -0.0340  0.1465  0.1040
 8305W        W27839   2.371  10.433   0.161  0.0400  0.2917  0.0289
 8306W        W27840  11.089   0.713  13.169  0.5131  0.0202  0.1664
 8307W        W27841  15.352  16.836  12.433 -0.1716  0.1593  0.1941
 8308W        W27842   6.218  18.656   1.882 -0.1658  0.0123 -0.0107
 8309W        W27843   3.302   4.102  10.489  0.1062  0.4647  0.2587
 8310W        W27844  18.457   8.915   4.120  0.2282  0.1693 -0.3024
 8311W        W27845   7.748  17.095   3.251 -0.1038  0.0287 -0.0359
 8312W        W27846   5.281   1.954   0.048  0.1125 -0.3807 -0.1965
 8313W        W27847   9.538   9.869   1.646 -0.3621 -0.2609  0.5000
 8314W        W27848   1.097   9.996  12.360  0.0300  0.1339 -0.3347
 8315W        W27849   1.266  10.153   2.866  0.1295  0.0081 -0.0582
 8316W        W27850  15.774  11.505   4.456  0.0168 -0.0429 -0.1170
 8317W        W27851  15.068  11.932  13.300  0.2477 -0.3308  0.2802
 8318W        W27852   3.384  12.129  10.994 -0.0879  0.0355  0.0840
 8319W        W27853   0.753  10.782   0.836 -0.0828  0.1168 -0.1084
 8320W        W27854   0.025  16.744  12.014 -0.0355  0.1046 -0.1831
 8321W        W27855  17.720  16.279  10.967 -0.1886  0.2013  0.4107
 8322W        W27856  10.192   2.528   4.931 -0.2243 -0.0946  0.3000
 8323W        W27857   6.932  16.212   4.049 -0.2522 -0.2917 -0.4075
 8324W        W27858   7.426  15.137  12.472 -0.0074  0.0448  0.1648
 8325W        W27859  14.454  15.099  12.616  0.4519  0.1036  0.3026
 8326W        W27860  17.865  17.138   0.557  0.2215  0.2008 -0.0991
 8327W        W27861  12.500  19.067   0.581  0.0056  0.0359 -0.4204
 8328W        W27862  14.762   0.581  12.397  0.1038 -0.0630  0.0308
 8329W        W27863   4.457  12.901   1.572  0.0654  0.2973  0.0946
 8330W        W27864  10.351  10.008   3.852  0.0119  0.0580 -0.3524
 8331W        W27865  11.319  10.507   0.685 -0.2449 -0.3287  0.2550
 8332W        W27866   8.472   7.788  11.127 -0.1160 -0.2367 -0.1672
 8333W        W27867  15.984  18.601   0.390 -0.3007 -0.0231 -0.0693
 8334W        W27868   7.440  14.549   2.780  0.2565  0.1730 -0.3793
 8335W        W27869   5.551   9.529   2.015  0.2089  0.2295 -0.1442
 8336W        W27870   7.036  13.116   3.879  0.3371  0.0485  0.0038
 8337W        W27871  13.492   4.760  11.556 -0.0156  0.0284 -0.2865
 8338W        W27872   3.749  11.478  14.234 -0.1368  0.2329 -0.1916
 8339W        W27873   3.985   6.105   1.244  0.0216  0.0933 -0.1495
 8340W        W27874   4.745  18.111  13.325 -0.2551  0.4640 -0.0154
 8341W        W27875  18.698   1.889   0.494  0.2656 -0.0362  0.1519
 8342W        W27876   5.849   6.228   3.845  0.4060  0.2426 -0.2030
 8343W        W27877  18.236   5.648   1.141 -0.1260 -0.1695  0.2264
 8344W        W27878   2.717  17.691  10.723 -0.1768 -0.1513  0.1184
 8345W        W27879  15.774  12.386   3.882  0.2218  0.1931  0.3738
 8346W        W27880  12.553  10.487   0.634  0.0005 -0.0015  0.1751
 8347W        W27881  17.452   4.464   1.001 -0.2088 -0.0076 -0.0169
 8348W        W27882   9.175  14.636   3.173 -0.0366  0.0132 -0.1333
 8349W        W27883   2.689  18.479   1.129  0.2422  0.0080  0.0642
 8350W        W27884   6.270   8.381   0.334 -0.2583 -0.1632 -0.1833
 8351W        W27885   3.346   6.974  11.473  0.0428  0.0508  0.0533
 8352W        W27886   5.231   2.894   0.666 -0.0591 -0.3568 -0.2709
 8353W        W27887  12.434  16.852   0.589 -0.3338 -0.1423 -0.3979
 8354W        W27888   3.542  12.505  12.762  0.0023  0.1156  0.1927
 8355W        W27889   7.214  13.945  10.734 -0.0348 -0.1568 -0.0931
 8356W        W27890  16.511  18.138   1.061 -0.0565 -0.0487 -0.0889
 8357W        W27891   3.281   0.713   1.101  0.0727 -0.1552  0.1337
 8358W        W27892  13.814  13.777   1.817 -0.1203 -0.0980  0.1760
 8359W        W27893   2.577  10.182   9.664 -0.0580  0.0792 -0.0694
 8360W        W27894   8.205  11.305   2.372 -0.0793  0.0976 -0.1148
 8361W        W27895  17.108  13.012  11.260  0.0355  0.2622  0.2190
 8362W        W27896  16.190   5.829  12.010 -0.0317  0.0909 -0.0177
 8363W        W27897  15.766  12.106  12.867 -0.2995 -0.1940  0.0478
 8364W        W27898  17.474  17.393   1.996 -0.2784  0.1239  0.0049
 8365W        W27899   4.699  12.054  13.148  0.1490 -0.2147 -0.2546
 8366W        W27900  13.586  19.027  13.071  0.2009 -0.1456 -0.1181
 8367W        W27901   3.459  16.392  10.807 -0.0249  0.0373 -0.1131
 8368W        W27902   4.874   5.427  12.240  0.0373 -0.0085 -0.1032
 8369W        W27903   8.320   0.370   4.135  0.0145 -0.0676 -0.1111
 8370W        W27904   7.123  12.454   3.254  0.0315 -0.0208  0.2364
 8371W        W27905   8.533  13.561   3.382  0.0062  0.1977 -0.3077
 8372W        W27906   6.255  14.200  13.171  0.1855  0.0266  0.0112
 8373W        W27907  12.759   6.609  11.765  0.3904  0.0710  0.1162
 8374W        W27908  11.381   7.992  10.916  0.2821 -0.0707  0.0997
 8375W        W27909   5.313  14.434  13.796  0.2630  0.0793  0.1055
 8376W        W27910   4.281  18.509  11.287 -0.0300 -0.1342  0.1293
 8377W        W27911   4.673   1.013  14.317 -0.0672 -0.2406 -0.2496
 8378W        W27912  13.145  12.233   2.430  0.0511 -0.3482 -0.1880
 8379W        W27913  11.934   2.130   2.673  0.1032 -0.1129  0.0824
 8380W        W27914   4.482  18.168   1.237 -0.1735 -0.2158 -0.0529
 8381W        W27915  14.944   6.711   4.429 -0.0581 -0.3569  0.1464
 8382W        W27916  10.424  17.316  14.032  0.2415  0.0770  0.0538
 8383W        W27917   1.333   3.129   2.992  0.1689 -0.1564  0.3316
 8384W        W27918  15.278  17.931  11.077  0.1908 -0.3983  0.0470
 8385W        W27919   3.530   8.652   0.304  0.0015  0.1959  0.1143
 8386W        W27920  14.697   1.419   1.387 -0.2720 -0.0800 -0.1940
 8387W        W27921   3.375  15.527   1.953 -0.0953 -0.2343 -0.0493
 8388W        W27922  10.913  11.327   0.946  0.2010  0.0424  0.1989
 8389W        W27923   0.434  13.965   2.568 -0.1790 -0.0737 -0.1649
 8390W        W27924  18.380  17.069   1.117 -0.0711 -0.0358 -0.1019
 8391W        W27925   9.386   8.942   2.530 -0.1739 -0.3208  0.1092
 8392W        W27926  15.922   3.422   1.421  0.0358  0.1759  0.1608
 8393W        W27927   1.500  10.412   0.269 -0.0881  0.1445  0.1448
 8394W        W27928  12.669   7.821  12.833  0.2123 -0.0867 -0.0347
 8395W        W27929   3.282  12.738   2.450  0.2528  0.0500 -0.2698
 8396W        W27930  14.619   8.773   1.874  0.1341  0.2406 -0.1994
 8397W        W27931  10.182   1.728   1.863 -0.0670  0.2750  0.2434
 8398W        W27932   7.571   0.969   4.030  0.0592  0.1805  0.0630
 8399W        W27933  19.446   4.739   1.129 -0.0507  0.0104  0.5203
 8400W        W27934   2.152  14.209  14.304 -0.1616 -0.0634 -0.1838
 8401W        W27935  15.965  18.542   1.860  0.4358 -0.1124 -0.3073
 8402W        W27936   4.449  17.967   3.256  0.4471 -0.0058 -0.0153
 8403W        W27937   7.791   3.187   3.999 -0.2883 -0.1080  0.2215
 8404W        W27938   9.910  11.694   3.554  0.1535 -0.2390 -0.0247
 8405W        W27939  10.369  11.728  13.733  0.0137  0.0389  0.1139
 8406W        W27940  18.745  13.292   3.572  0.3624  0.0681 -0.1417
 8407W        W27941  11.993  14.617  11.862 -0.0820  0.2627  0.0167
 8408W        W27942   6.236  14.031   0.954  0.1740  0.0791  0.0131
 8409W        W27943  15.976  16.439  14.091  0.0866  0.1532 -0.2926
 8410W        W27944   2.942   3.590   0.021  0.0254  0.0633  0.0264
 8411W        W27945  15.960  15.966  10.204 -0.1479  0.1246  0.0627
 8412W        W27946   9.778  15.749   3.612  0.1567 -0.0231  0.0959
 8413W        W27947   4.863   6.596  12.582 -0.1018 -0.2474  0.1419
 8414W        W27948   3.848  15.987   5.092  0.0065  0.0846  0.3647
 8415W        W27949  12.327  16.534   3.556 -0.2058 -0.0491 -0.0252
 8416W        W27950  18.809   6.856   3.438  0.2822  0.0570 -0.2122
 8417W        W27951   8.868  13.536  11.740  0.2965  0.1569 -0.1857
 8418W        W27952  12.048   2.125   3.809  0.2542 -0.3130 -0.1193
 8419W        W27953   3.163   9.206  13.120  0.0580 -0.4019  0.1756
 8420W        W27954   4.620  13.170  13.645  0.1479  0.0632 -0.0488
 8421W        W27955  11.827  18.895  10.876 -0.0936  0.0374 -0.0813
 8422W        W27956  14.719  16.092   0.394 -0.2045 -0.1607  0.0914
 8423W        W27957   6.350  19.484   2.287  0.1329  0.1147 -0.0420
 8424W        W27958   6.332   7.640  13.255 -0.1306  0.0107 -0.2086
 8425W        W27959   1.289   0.924  14.346 -0.1642  0.0115 -0.3008
 8426W        W27960  12.130   1.976  10.270 -0.1734 -0.3064  0.2242
 8427W        W27961   8.281   0.765   2.738 -0.0798  0.0487  0.0318
 8428W        W27962   3.264   0.790   4.399  0.1582  0.0489  0.2461
 8429W        W27963   9.438  10.790  11.362 -0.1668  0.1052 -0.1133
 8430W        W27964   1.551   2.208   3.314 -0.0801  0.2497 -0.3595
 8431W        W27965   2.662  16.728  11.176 -0.1263  0.1602 -0.0249
 8432W        W27966   0.280   1.024   1.039  0.2326  0.3432 -0.0449
 8433W        W27967  13.039  16.499  11.462 -0.3346 -0.0636 -0.1110
 8434W        W27968  10.749  13.640  11.831 -0.0504 -0.3885  0.2682
 8435W        W27969  11.906  13.639   2.351  0.0162  0.0600 -0.0341
 8436W        W27970  12.498  10.897   9.824 -0.2839  0.0831 -0.3458
 8437W        W27971   4.524  16.499   3.179  0.1375 -0.2083  0.3380
 8438W        W27972   5.740  18.098  13.757 -0.0084 -0.2566  0.0208
 8439W        W27973   2.926  14.590  13.097 -0.0871  0.1764 -0.3686
 8440W        W27974  15.390  14.728   0.056  0.1493  0.1245 -0.1313
 8441W        W27975  16.238  18.638   1.386 -0.1928 -0.2586  0.0496
 8442W        W27976   5.796  15.882  14.211  0.5133 -0.0869  0.0528
 8443W        W27977  16.859   4.151  12.507 -0.1869  0.1804 -0.0910
 8444W        W27978  18.783   8.150  13.521 -0.0174 -0.0781 -0.0938
 8445W        W27979  11.683   0.933   4.195 -0.3922  0.3323  0.0811
 8446W        W27980   8.285  17.413  13.033  0.5056  0.1681  0.1346
 8447W        W27981  13.585   3.178   0.696  0.0846 -0.0587 -0.2011
 8448W        W27982   3.777   6.165  11.827  0.0657 -0.1708  0.1273
 8449W        W27983  11.948  12.020   0.684 -0.2425  0.2006  0.1575
 8450W        W27984  11.179   2.916  13.499 -0.0707  0.2227  0.1481
 8451W        W27985   7.320  19.290   0.440 -0.1762 -0.0570 -0.1973
 8452W        W27986   7.118   6.150  11.130  0.0595 -0.2351  0.2443
 8453W        W27987   9.424  10.191   1.049  0.1054  0.0961 -0.0309
 8454W        W27988  13.713  12.140  13.570  0.3461  0.1550  0.1723
 8455W        W27989   9.424   5.826  11.171 -0.0402  0.1586 -0.1892
 8456W        W27990   6.452   1.443   0.196  0.0448  0.1890  0.2259
 8457W        W27991   0.233  11.250   1.428 -0.1088  0.0336 -0.0263
 8458W        W27992   3.420  10.728  13.762  0.3903 -0.0513 -0.0265
 8459W        W27993   2.694  10.004  13.713  0.1006  0.3744 -0.1288
 8460W        W27994  12.529   4.492  10.866 -0.1711  0.0314 -0.1080
 8461W        W27995  15.565  12.541  10.806  0.2647 -0.0435  0.0973
 8462W        W27996  11.112  12.147  11.536  0.0332 -0.0085  0.1056
 8463W        W27997   4.186  13.526  11.391  0.1468  0.1436  0.3200
 8464W        W27998  10.224   1.876   2.389 -0.0864  0.0517  0.0043
 8465W        W27999   8.458  11.532  11.004 -0.1705  0.2105 -0.2063
 8466W        W28000  16.640   7.848  10.212 -0.0037 -0.1352 -0.2001
 8467W        W28001   0.444  17.515  11.650 -0.1337 -0.1367  0.0206
 8468W        W28002   3.904   1.986  10.671 -0.1861  0.2295  0.2562
 8469W        W28003   7.606   4.338  11.307 -0.0711  0.5661  0.3932
 8470W        W28004   8.337   7.839  13.381 -0.3145  0.0037  0.2350
 8471W        W28005   4.202  15.759  12.978 -0.1158 -0.0607 -0.1317
 8472W        W28006  10.042   8.023  13.460 -0.2125 -0.3578 -0.0900
 8473W        W28007  10.952  10.741   0.939  0.2352 -0.0249 -0.0182
 8474W        W28008  14.787  13.915  12.356 -0.2239 -0.0335 -0.2201
 8475W        W28009   5.424  14.775   1.328  0.1767 -0.0046 -0.2435
 8476W        W28010   1.024  11.326   9.999 -0.0526 -0.3813 -0.2332
 8477W        W28011  15.164  14.760   1.494 -0.1452  0.1934 -0.0300
 8478W        W28012  10.447  16.317   2.503  0.0972 -0.1154  0.0076
 8479W        W28013  19.494   6.914  11.100 -0.0296 -0.0033 -0.2474
 8480W        W28014  15.157   4.782  12.715  0.1039 -0.1336 -0.3092
 8481W        W28015  14.764   6.895  10.740  0.0141  0.2118 -0.2406
 8482W        W28016  19.230  12.244   9.420 -0.0441 -0.0569 -0.3876
 8483W        W28017   9.348   0.291   3.552 -0.0502 -0.0795 -0.0581
 8484W        W28018   1.189   4.088   2.664  0.1188 -0.3322 -0.3679
 8485W        W28019   9.570   8.381  13.446 -0.0310  0.0037  0.2107
 8486W        W28020   0.119   6.906   1.593 -0.2681 -0.1589  0.0325
 8487W        W28021   6.900  16.046  12.230 -0.0201  0.2062  0.2331
 8488W        W28022   3.047  17.910   4.156 -0.1759  0.3129 -0.1212
 8489W        W28023   4.406  15.904   3.973 -0.0563  0.0556  0.0549
 8490W        W28024   4.299   3.463   9.637 -0.0414  0.2125  0.2667
 8491W        W28025  17.747  11.786  10.303  0.2399 -0.1696 -0.1219
 8492W        W28026  17.739  17.850   1.151  0.1113 -0.1351 -0.1806
 8493W        W28027   1.906   4.183  11.911 -0.1008 -0.0650  0.2276
 8494W        W28028  14.414   0.275   0.193 -0.0240 -0.1046  0.0433
 8495W        W28029  11.419   0.012  11.991  0.3548 -0.1335 -0.0596
 8496W        W28030  13.324  18.820  11.406  0.3544  0.1887 -0.1140
 8497W        W28031   0.762   6.361   0.182 -0.1505  0.0787 -0.2544
 8498W        W28032  10.395   3.702   0.096 -0.4565 -0.0297 -0.0618
 8499W        W28033   9.482  19.188   0.098 -0.0699 -0.1883 -0.4111
 8500W        W28034   1.628  10.535  11.805 -0.0600  0.0577 -0.3983
 8501W        W28035   0.859  11.121   3.014 -0.0493 -0.1668 -0.0081
 8502W        W28036  12.754   6.293   3.674 -0.3131  0.1313 -0.3911
 8503W        W28037   9.098   2.439  13.262 -0.0887  0.2329  0.2124
 8504W        W28038   2.519   7.724  12.691  0.3892  0.1410 -0.1964
 8505W        W28039   0.807   5.684  12.466 -0.0814  0.1501 -0.2616
 8506W        W28040   0.838  10.553  13.854 -0.0751  0.2901 -0.1439
 8507W        W28041  18.395   2.989   0.977 -0.0089 -0.0980  0.1430
 8508W        W28042   7.677   3.116   3.368  0.0568 -0.1690  0.0392
 8509W        W28043   8.392   9.701  10.427 -0.0927  0.1809 -0.0026
 8510W        W28044   2.882   1.401  14.107 -0.0545 -0.4282  0.1989
 8511W        W28045   4.278  11.681   1.729 -0.3763 -0.4925 -0.1132
 8512W        W28046  18.332  19.093  13.732 -0.1680  0.0286  0.2393
 8513W        W28047  13.924   2.165   2.301 -0.0863  0.1600  0.0216
 8514W        W28048  14.312  13.619   1.806  0.0749  0.1495 -0.1648
 8515W        W28049   6.338   5.754  11.739 -0.0907  0.1833 -0.1161
 8516W        W28050   0.536  14.596   1.934  0.1600 -0.0634 -0.0387
 8517W        W28051   3.379   5.511   3.140 -0.0500 -0.3357 -0.0968
 8518W        W28052  13.885  19.469  10.937 -0.1992  0.2903  0.1737
 8519W        W28053  13.402   0.171   9.673  0.1158 -0.3596  0.0658
 8520W        W28054  15.878  11.133   1.339  0.1198 -0.2381  0.1877
 8521W        W28055  16.185  14.332  11.409  0.1360  0.1718 -0.1801
 8522W        W28056  13.856   0.477   0.223  0.2745  0.2097 -0.2510
 8523W        W28057   1.202   9.274  11.139 -0.0443 -0.2353  0.1455
 8524W        W28058   2.147  18.546   3.694  0.3963 -0.0992 -0.2232
 8525W        W28059   6.024   0.080  12.349  0.1927 -0.0473 -0.1216
 8526W        W28060   2.780  17.359  12.971 -0.0038  0.0748 -0.1060
 8527W        W28061  16.914   0.592  14.117  0.0122  0.0410 -0.1436
 8528W        W28062   0.016  18.805   3.562 -0.0517  0.3723 -0.0333
 8529W        W28063  10.268   9.668  10.751 -0.0212  0.0287 -0.0264
 8530W        W28064  15.902  10.012  11.431  0.2689  0.2492 -0.0412
 8531W        W28065   6.980   3.424   1.449 -0.1517  0.1601 -0.1100
 8532W        W28066  15.103  17.921  10.569 -0.3645  0.3224 -0.0671
 8533W        W28067   4.494  19.177  12.471  0.0884  0.0475  0.0531
 8534W        W28068  15.786  12.085  10.763  0.0876  0.0960 -0.1721
 8535W        W28069  16.858  16.762  13.802 -0.0890 -0.0694 -0.1048
 8536W        W28070  15.437  15.121   1.170  0.2228  0.1479 -0.0052
 8537W        W28071   6.079  15.542   1.277 -0.0645 -0.2136 -0.0397
 8538W        W28072   5.540  11.116   2.493 -0.2277 -0.3538 -0.0082
 8539W        W28073  16.224   2.696  13.400 -0.2135 -0.3455  0.2041
 8540W        W28074   3.606  17.115   3.214  0.0000  0.0235 -0.1244
 8541W        W28075  15.538  13.534   1.386  0.0859  0.2787 -0.3331
 8542W        W28076  14.712   0.105   1.168  0.1191  0.0283 -0.1519
 8543W        W28077  11.749   3.196   2.063  0.0766  0.0088  0.2100
 8544W        W28078  11.134  11.338   9.275  0.3352 -0.0896 -0.1398
 8545W        W28079  13.623  14.230  13.653 -0.2954  0.1779 -0.0706
 8546W        W28080   9.136   6.695  13.391 -0.0613  0.0444 -0.0345
 8547W        W28081   6.993  19.231   3.493 -0.0475 -0.2163  0.3814
 8548W        W28082  12.133   7.416   0.533 -0.2424  0.0442 -0.0769
 8549W        W28083   3.280  10.322   3.813  0.1432 -0.0983 -0.0528
 8550W        W28084   0.750  16.968  13.531 -0.0605 -0.0434  0.3164
 8551W        W28085   1.983  17.916   2.824 -0.4044 -0.3968 -0.0748
 8552W        W28086   5.435   9.535  10.645 -0.2770  0.1439 -0.4539
 8553W        W28087  15.112  18.291   3.910  0.2301  0.4230  0.2585
 8554W        W28088  10.045   2.233   3.894  0.1182 -0.1369 -0.2692
 8555W        W28089  13.886   2.922   1.214  0.1968 -0.3055  0.3730
 8556W        W28090  16.325  12.817   0.799  0.0713  0.0497 -0.1318
 8557W        W28091  17.611   0.452   9.209 -0.3558  0.4059 -0.4159
 8558W        W28092   5.617   3.615  12.374  0.0959  0.0909  0.2141
 8559W        W28093  13.653  16.422   0.269 -0.1173  0.1489 -0.5281
 8560W        W28094   9.839  16.589  10.454 -0.1775 -0.2781  0.1270
 8561W        W28095  12.279   9.618  11.000  0.1441  0.1057 -0.0280
 8562W        W28096   3.182   7.159   1.913 -0.0174 -0.0755  0.2651
 8563W        W28097   1.309  14.301  12.916 -0.0684  0.0640  0.1583
 8564W        W28098   4.122  14.593   0.230  0.0554  0.0606  0.1269
 8565W        W28099   6.018  12.812  14.208  0.0123 -0.0921  0.2655
 8566W        W28100   4.118  18.327  14.296 -0.1163  0.0853  0.0848
 8567W        W28101   2.647  10.610   1.124 -0.0718  0.1536 -0.1879
 8568W        W28102  10.361   5.355   2.657  0.3475 -0.0721 -0.0941
 8569W        W28103  19.176   0.822   0.065  0.0245 -0.3393  0.0455
 8570W        W28104   0.161  18.691   1.725  0.2890  0.2090  0.2157
 8571W        W28105   8.566   4.294   0.728 -0.1832  0.0422 -0.2622
 8572W        W28106  17.057  13.184   3.582  0.0628  0.1103 -0.1980
 8573W        W28107   9.627   7.245  10.608  0.0840 -0.1364 -0.4131
 8574W        W28108   5.583   1.106   0.053 -0.1821 -0.1088 -0.1392
 8575W        W28109   2.645  13.652  12.789  0.0446 -0.2739 -0.3019
 8576W        W28110   7.390   6.159   2.852  0.0647  0.0470  0.2597
 8577W        W28111  10.542   4.572   1.094 -0.1742  0.1741 -0.0750
 8578W        W28112   1.530   7.079  11.281 -0.1823  0.4643 -0.2627
 8579W        W28113   5.538   4.787  10.961  0.0082 -0.2691 -0.0579
 8580W        W28114  16.019  19.093  13.749 -0.0481 -0.0668 -0.2496
 8581W        W28115   5.074  13.301  10.559 -0.0605 -0.0505  0.0111
 8582W        W28116   0.706  11.627   3.297 -0.3449 -0.1732 -0.3974
 8583W        W28117   9.615   6.204   3.217 -0.0695 -0.1310  0.0548
 8584W        W28118  15.087   3.351  14.039 -0.0641 -0.2621 -0.1475
 8585W        W28119  15.331   9.891   2.236 -0.0730 -0.1848  0.2843
 8586W        W28120  19.503  12.823   1.283  0.1106 -0.0254  0.3291
 8587W        W28121   2.303   6.274  11.904 -0.2478  0.0656 -0.3080
 8588W        W28122  11.471  18.928  11.541  0.1434 -0.2260  0.2727
 8589W        W28123  17.622   1.470  11.713 -0.2933  0.2830 -0.0602
 8590W        W28124  16.597   4.683  11.166  0.1488  0.0969 -0.1043
 8591W        W28125  14.060  17.835  10.412 -0.1802  0.4014 -0.1455
 8592W        W28126  12.741   0.800   3.810 -0.3117  0.1880  0.3156
 8593W        W28127  16.482  10.591  11.813 -0.2729 -0.0323 -0.0811
 8594W        W28128   7.763  13.881  10.587 -0.3901 -0.1382 -0.2653
 8595W        W28129  11.812   5.258   3.101  0.2105 -0.0915  0.1097
 8596W        W28130  11.084  15.526   2.877 -0.1020  0.1443 -0.2501
 8597W        W28131   6.575  16.193  13.724 -0.0981 -0.0165  0.0712
 8598W        W28132  16.610  14.711   2.869 -0.0730 -0.3327 -0.1266
 8599W        W28133   5.051  11.261   2.337 -0.0403 -0.4522  0.3436
 8600W        W28134   1.593   6.611   2.383  0.1353  0.2814 -0.0726
 8601W        W28135   4.371   5.810   4.416 -0.0770  0.1100  0.0587
 8602W        W28136  14.365  18.464   0.191  0.0377  0.1297  0.4104
 8603W        W28137  11.492   3.609  13.184  0.1651 -0.3401  0.0262
 8604W        W28138   6.121  16.710   2.104 -0.0726  0.2255  0.4369
 8605W        W28139   0.780  16.125   3.204 -0.3296  0.1610  0.1595
 8606W        W28140  10.667   1.505   1.984  0.1510 -0.2508 -0.0018
 8607W        W28141  14.075  12.852  11.486  0.1763  0.1988 -0.3522
 8608W        W28142  15.180  16.846  13.522  0.1603  0.1442  0.3921
 8609W        W28143  16.451   9.564   9.661  0.3265 -0.0702  0.1660
 8610W        W28144   0.587   2.837   0.936 -0.4205 -0.0369  0.0054
 8611W        W28145   7.756   1.053   3.386 -0.1500 -0.0338 -0.2435
 8612W        W28146  17.641  19.517   1.544 -0.2135 -0.0440 -0.1463
 8613W        W28147   6.919   8.216   3.867  0.0451 -0.5709  0.3700
 8614W        W28148  12.503   0.669  10.803  0.2195  0.0416  0.1117
 8615W        W28149  15.626   0.374  13.965 -0.0182  0.2618  0.4912
 8616W        W28150   5.937   7.853  14.008 -0.1867  0.1020  0.0123
 8617W        W28151   9.439  17.073   4.684  0.0298  0.0689  0.0725
 8618W        W28152   6.740   8.415   0.077  0.3352 -0.6157 -0.0155
 8619W        W28153   0.687  17.115  11.559 -0.1178  0.2684 -0.0459
 8620W        W28154   2.383  14.610  14.307 -0.1584 -0.1854 -0.0226
 8621W        W28155  14.921  11.444   3.826 -0.1795 -0.2160  0.2431
 8622W        W28156  12.820  13.717  13.144  0.0209 -0.0519  0.1446
 8623W        W28157  11.957   3.061  11.185  0.2020 -0.2315 -0.0401
 8624W        W28158  16.006   8.052  12.018 -0.2873  0.1948 -0.2390
 8625W        W28159  10.649  10.164  13.337  0.0812  0.0562 -0.0384
 8626W        W28160   5.393   5.716   2.581  0.1206 -0.0909 -0.0232
 8627W        W28161   1.159   8.098   1.385  0.2178  0.2315  0.0172
 8628W        W28162   4.033   6.276  13.960 -0.1020  0.0274  0.4170
 8629W        W28163   1.103   5.869   3.285 -0.1854 -0.1570  0.1081
 8630W        W28164  18.397  12.282  13.392 -0.0424 -0.0896 -0.1852
 8631W        W28165   3.610   9.823   0.237 -0.1036  0.2496 -0.0426
 8632W        W28166  13.609   1.056  10.123  0.1549  0.0215 -0.1152
 8633W        W28167   6.012  15.775   2.222 -0.1559  0.0210  0.0298
 8634W        W28168   3.365   9.282  13.791  0.0163  0.2299 -0.1106
 8635W        W28169   5.361   6.151   3.903  0.2400  0.2391  0.0087
 8636W        W28170  12.441   6.986  11.564 -0.1912  0.0514  0.1816
 8637W        W28171   8.475   7.409  12.429  0.5809  0.0856  0.1958
 8638W        W28172  19.077  11.321   3.121  0.3800 -0.0233 -0.0749
 8639W        W28173   8.670   8.731   3.832 -0.0341  0.3125  0.1564
 8640W        W28174  11.638  10.301   2.734 -0.1605  0.0096 -0.4082
 8641W        W28175  16.669  11.273   1.652 -0.1487 -0.3124  0.0623
 8642W        W28176   0.374  18.812   4.051 -0.1168  0.0378 -0.0498
 8643W        W28177   4.473   9.652   0.648  0.3047  0.3586  0.5314
 8644W        W28178   7.567  14.342   1.420  0.2893  0.2535  0.0982
 8645W        W28179   8.164   4.279   2.392 -0.5047  0.1581  0.2486
 8646W        W28180  16.958   5.356  14.047 -0.0291  0.4794  0.1045
 8647W        W28181   5.130   2.184   3.253  0.0334 -0.0490  0.0586
 8648W        W28182  18.284  16.739  13.574 -0.1358 -0.1481 -0.2225
 8649W        W28183  12.628  16.452  12.795 -0.1986 -0.0465 -0.1194
 8650W        W28184   1.725   4.248  11.345  0.0142  0.0022 -0.1584
 8651W        W28185   1.618   6.047   1.587 -0.0587 -0.1295 -0.3342
 8652W        W28186   5.375  13.841   3.642  0.1834  0.2445  0.2585
 8653W        W28187  12.347   8.555   2.706 -0.2552  0.1096  0.0487
 8654W        W28188   4.477   3.713  14.246 -0.0802 -0.0108  0.0285
 8655W        W28189  12.313  17.877   9.796  0.3551  0.1119  0.0369
 8656W        W28190   2.432   7.458   3.151  0.0764 -0.0512 -0.3029
 8657W        W28191  16.071   3.344  12.867 -0.0935 -0.1862 -0.1632
 8658W        W28192   9.321  19.014   2.718  0.0181 -0.1203  0.2385
 8659W        W28193   1.697   6.944   1.957  0.1694  0.0251  0.0826
 8660W        W28194  12.278  14.049  12.473  0.1738 -0.1171  0.2095
 8661W        W28195  10.999   6.632  14.117 -0.0788 -0.3115  0.2814
 8662W        W28196  18.848   0.657  12.335  0.0195  0.1693 -0.1518
 8663W        W28197   1.049  14.928  10.129  0.0553 -0.0922  0.2306
 8664W        W28198  18.844  16.886  13.303  0.3351  0.1835 -0.1548
 8665W        W28199  14.265   3.464  11.534  0.2373  0.0726  0.2495
 8666W        W28200   6.324  15.657  10.513 -0.3531 -0.1233  0.1912
 8667W        W28201  15.005  15.949   3.883  0.1098 -0.1193  0.1447
 8668W        W28202   8.837   3.031   2.756 -0.2019  0.1358  0.1066
 8669W        W28203   9.831   9.454  10.893 -0.0242  0.0386 -0.0819
 8670W        W28204  17.719  16.445   0.925  0.3079  0.0386 -0.2919
 8671W        W28205   2.975   5.792   1.273 -0.0133  0.2645  0.0005
 8672W        W28206   8.107  15.252   1.666 -0.2157  0.2116 -0.1760
 8673W        W28207  11.864   8.674  13.351  0.4277 -0.1414 -0.0493
 8674W        W28208  13.553   8.249   2.676  0.0452  0.0435 -0.0081
 8675W        W28209   5.140   2.548   1.688 -0.0540 -0.0422  0.1415
 8676W        W28210  13.391   4.002  11.631 -0.1335  0.2505 -0.2236
 8677W        W28211  12.823   6.724   4.062  0.1034  0.2419 -0.0099
 8678W        W28212  17.915   4.294   1.122  0.0201 -0.1031 -0.2440
 8679W        W28213   1.838   1.672  14.167 -0.0197 -0.3233 -0.0679
 8680W        W28214  16.280   1.784   0.883 -0.0205  0.3114 -0.2311
 8681W        W28215  13.505   5.268   9.611 -0.0698  0.0753 -0.1504
 8682W        W28216   3.753   9.531  10.839 -0.2436  0.2071  0.1537
 8683W        W28217   6.219  10.617  12.742  0.0845  0.1300  0.1025
 8684W        W28218   8.764   8.229  12.935 -0.2371  0.0898  0.0442
 8685W        W28219  14.875  17.759   2.664  0.1771  0.1553  0.1517
 8686W        W28220   4.978   9.670  12.422  0.2753  0.1512 -0.1189
 8687W        W28221   1.523   9.794  13.659  0.1934 -0.0540  0.0351
 8688W        W28222   3.814  10.165   3.760  0.0196  0.1171  0.0203
 8689W        W28223  18.936   9.996   2.913 -0.2503  0.0913 -0.0194
 8690W        W28224   7.555   3.279  13.685  0.2370 -0.1857  0.2087
 8691W        W28225  14.047   8.391   3.507 -0.2693  0.1353  0.1728
 8692W        W28226   7.177  18.077  13.911  0.0342  0.1779 -0.1316
 8693W        W28227   3.957  16.653  10.556  0.3228  0.0696  0.1096
 8694W        W28228  16.055   1.700   1.997  0.3904 -0.2720 -0.2876
 8695W        W28229   8.594  12.816  10.476 -0.0107 -0.0214 -0.2090
 8696W        W28230   0.091   9.545   0.387 -0.2254 -0.1147 -0.1857
 8697W        W28231   7.580   9.930   0.974 -0.1637 -0.0513 -0.1281
 8698W        W28232   8.803  18.273   1.629  0.1313  0.4054  0.0536
 8699W        W28233  10.987  11.272   2.238 -0.1419  0.2432 -0.0450
 8700W        W28234  11.589  18.468   2.440  0.1001 -0.1614 -0.0356
 8701W        W28235   3.215  13.810  11.490 -0.1451 -0.1203  0.0422
 8702W        W28236   8.374  15.541  10.760 -0.0447 -0.0944 -0.0056
 8703W        W28237   5.531  11.861  11.635 -0.5008 -0.0746 -0.1078
 8704W        W28238   5.198   5.767   1.098  0.2155 -0.1515  0.3437
 8705W        W28239  17.337   3.800  12.378  0.2195 -0.3307  0.1316
 8706W        W28240  18.050   4.925  10.629  0.2168 -0.1592 -0.0042
 8707W        W28241   1.999  13.264   2.950  0.4445  0.0106  0.3241
 8708W        W28242  13.354  19.280   1.197  0.1161  0.2494  0.1272
 8709W        W28243   8.294   0.884  13.632 -0.0127 -0.1029 -0.2458
 8710W        W28244   0.090  10.024   2.315 -0.3014  0.0579  0.0270
 8711W        W28245  15.556  14.974   9.937  0.0019 -0.2088  0.2070
 8712W        W28246  10.190   2.155   3.420 -0.0280  0.0073 -0.1801
 8713W        W28247   6.654   0.757  13.935 -0.2824  0.0645 -0.1852
 8714W        W28248   4.664   9.713   1.108  0.2592 -0.0978  0.1995
 8715W        W28249  12.187   4.672   0.293  0.1271 -0.4291 -0.1701
 8716W        W28250  10.995   5.300  13.854 -0.1163  0.0944  0.0830
 8717W        W28251  13.924   3.105   4.089 -0.0140  0.2256  0.2053
 8718W        W28252   2.181  16.763  13.934  0.1033  0.2106 -0.3608
 8719W        W28253   2.239   6.657  12.246  0.2456 -0.2245  0.1442
 8720W        W28254   5.661  10.981   0.602 -0.0905  0.2235  0.1164
 8721W        W28255   7.711  11.064   2.279 -0.1134 -0.0656  0.0338
 8722W        W28256  10.440   3.065  11.764  0.0187 -0.0890 -0.0217
 8723W        W28257   8.384  13.561  12.043  0.0134  0.1930  0.0334
 8724W        W28258  12.415  11.126  10.962  0.0436  0.0956 -0.0181
 8725W        W28259  15.521   7.618  12.795 -0.2826  0.0420 -0.4598
 8726W        W28260   1.987  11.438  13.363 -0.1252 -0.1014 -0.1489
 8727W        W28261   5.210  14.562   1.812 -0.0180  0.1703  0.0061
 8728W        W28262  18.820  14.718   2.426  0.1807 -0.1822  0.0029
 8729W        W28263   2.841   2.468   3.459  0.4561 -0.1321 -0.0554
 8730W        W28264   6.287  16.375  10.054 -0.2683 -0.0226 -0.1694
 8731W        W28265   1.708   9.364  11.369 -0.1224 -0.2665  0.0519
 8732W        W28266   3.533   5.663  10.425 -0.0017  0.0363  0.1089
 8733W        W28267  15.604  18.883   2.020 -0.0571 -0.1353 -0.2732
 8734W        W28268   5.352   7.410   0.224 -0.0359  0.0630  0.0154
 8735W        W28269   8.149  17.123   2.876  0.3271  0.2231 -0.3434
 8736W        W28270  16.124   2.766   4.222  0.0573 -0.1945 -0.0826
 8737W        W28271  17.148   2.494   0.346 -0.1205 -0.0957  0.2754
 8738W        W28272  10.878   0.077   9.674  0.2921 -0.0120 -0.0481
 8739W        W28273   8.326   6.759   3.708 -0.3546 -0.1167  0.3858
 8740W        W28274   7.889   5.918  13.820 -0.0057  0.0182 -0.4642
 8741W        W28275   0.176  18.100  13.336  0.0092 -0.0247 -0.2253
 8742W        W28276   0.719   7.767  13.413 -0.0073 -0.1692 -0.0537
 8743W        W28277   3.480   0.892  10.001  0.2251  0.2745 -0.1553
 8744W        W28278  10.285  17.312  12.139 -0.1654 -0.1054  0.0672
 8745W        W28279  15.001  16.489  10.853  0.1959  0.2469  0.0880
 8746W        W28280   9.983   0.204   2.320 -0.2921 -0.0622 -0.1250
 8747W        W28281   9.354  17.417  13.064  0.0815  0.0399  0.2184
 8748W        W28282  10.179   0.776   4.003 -0.0350  0.0715 -0.2155
 8749W        W28283  12.248  14.882   1.660  0.0707 -0.0089  0.1421
 8750W        W28284   9.511  14.681  10.669 -0.1850 -0.0091 -0.0643
 8751W        W28285   3.766  14.948  12.199  0.1182 -0.0193  0.0639
 8752W        W28286   8.533   5.081  11.021 -0.3409  0.1009 -0.1466
 8753W        W28287   5.899  18.576  14.058 -0.1588 -0.3266  0.1893
 8754W        W28288  15.986   0.035   2.673  0.0610  0.0005  0.0412
 8755W        W28289  12.016  16.458   0.703 -0.0474 -0.0104 -0.0730
 8756W        W28290  15.435  17.675   1.617 -0.3476 -0.1004  0.0701
 8757W        W28291  10.715  17.605  10.426  0.2332  0.1838 -0.0431
 8758W        W28292  18.822   3.006   1.235  0.0760 -0.1158 -0.2773
 8759W        W28293   1.105   6.258   0.700  0.0026 -0.1248 -0.0338
 8760W        W28294   2.525  11.920  13.602  0.2953 -0.1376  0.1014
 8761W        W28295  15.951   5.286   3.891  0.0856  0.3207 -0.4169
 8762W        W28296  10.921   9.406   4.078 -0.0577  0.0946 -0.3950
 8763W        W28297   3.665   6.680  11.684 -0.0705  0.3329 -0.0845
 8764W        W28298   4.692  14.452  10.224 -0.1318  0.0294 -0.1240
 8765W        W28299   3.841   5.966  13.171 -0.0099 -0.3137  0.0147
 8766W        W28300   6.373   1.087   2.651 -0.1346  0.2674 -0.1320
 8767W        W28301  11.022   6.483   3.458 -0.1053  0.2848  0.0866
 8768W        W28302  11.863   2.388   1.251 -0.3663  0.1205  0.2392
 8769W        W28303   2.201   2.113  11.443 -0.0218 -0.2703 -0.1879
 8770W        W28304  11.029   4.859  13.065 -0.0842  0.4290 -0.0491
 8771W        W28305   6.542   4.077  12.982 -0.1444 -0.0976  0.3052
 8772W        W28306  13.900   8.151  12.897 -0.0126 -0.0840 -0.1947
 8773W        W28307  16.227   8.719   0.873 -0.1035 -0.0472  0.2962
 8774W        W28308  13.337   0.115  11.779  0.0430 -0.0203  0.1703
 8775W        W28309   3.191   5.402  10.874  0.1335  0.0054  0.1191
 8776W        W28310   8.649   2.428  10.221 -0.1412  0.1325  0.2177
 8777W        W28311   4.829   3.668   1.054  0.3545 -0.2038 -0.2132
 8778W        W28312  13.505  16.364  11.252 -0.3017 -0.1185 -0.1613
 8779W        W28313   8.316  17.209  11.942  0.0986 -0.3110  0.3573
 8780W        W28314  10.877   1.688  12.611 -0.1021 -0.2265 -0.1506
 8781W        W28315  15.991  11.336  10.802  0.0993  0.0439 -0.3384
 8782W        W28316  13.303   4.819   9.798 -0.0225  0.1566 -0.2014
 8783W        W28317  17.382   4.121  11.621 -0.0450  0.1465 -0.2629
 8784W        W28318   2.750   5.977  12.970 -0.0288  0.1230  0.3223
 8785W        W28319  15.599   9.706   0.402  0.0559  0.0843 -0.3399
 8786W        W28320  11.839   4.426   3.611 -0.0138 -0.1242 -0.3582
 8787W        W28321   9.530   3.018   3.513 -0.0921  0.1927 -0.0995
 8788W        W28322  18.768  13.191  10.602  0.1564 -0.0762  0.1234
 8789W        W28323  11.934  13.855  13.488 -0.2533  0.3035  0.0944
 8790W        W28324  19.278   2.987   2.649  0.5854  0.0581 -0.0682
 8791W        W28325   4.669   6.827   1.307 -0.1106 -0.1536 -0.1963
 8792W        W28326   3.523   2.135   2.672  0.1204  0.0755  0.2886
 8793W        W28327  12.478  18.158  12.604  0.0605  0.1718 -0.1852
 8794W        W28328  11.945  18.791  11.464 -0.0043  0.2083  0.0203
 8795W        W28329  13.685  13.121  11.777  0.0146 -0.1990 -0.1728
 8796W        W28330   2.490  14.962  10.790  0.1658 -0.0198 -0.2139
 8797W        W28331   9.857  14.565   9.096  0.0784  0.2429  0.0807
 8798W        W28332   8.890   4.706  12.709 -0.2015  0.0304  0.3624
 8799W        W28333  15.656  18.999   3.970  0.0195  0.1117  0.0517
 8800W        W28334   4.294   3.263  12.821  0.3735  0.0236 -0.0065
 8801W        W28335   0.575  10.466   0.067 -0.1679 -0.1768  0.1632
 8802W        W28336   5.551  12.630   0.630  0.1205  0.0557  0.3363
 8803W        W28337  16.667   8.401  13.734 -0.0772  0.1993 -0.3320
 8804W        W28338   5.044  17.833   3.505  0.2540 -0.2609  0.0229
 8805W        W28339  17.638   1.477  13.749  0.2669 -0.0038 -0.1010
 8806W        W28340   2.965  11.146   3.477  0.1613  0.1136  0.1171
 8807W        W28341  13.775   0.963  12.076  0.2540 -0.2144  0.1036
 8808W        W28342   9.153  15.023   2.862  0.0517 -0.1467  0.0910
 8809W        W28343  17.949   2.288   0.411 -0.0898  0.0728 -0.2730
 8810W        W28344   7.580   6.137  14.214 -0.1148 -0.2375  0.1762
 8811W        W28345   5.896  13.204  10.310 -0.0979 -0.2379  0.1783
 8812W        W28346  10.851  10.807  13.961  0.0603 -0.0262  0.3250
 8813W        W28347  16.838  12.480   2.539  0.4868 -0.0612  0.0567
 8814W        W28348  17.647  14.092   1.010  0.0376  0.1055 -0.1090
 8815W        W28349   7.406  14.076  10.099 -0.0339 -0.1954 -0.0287
 8816W        W28350   3.857  12.159  11.823  0.0729  0.0699 -0.1098
 8817W        W28351   2.417   3.033  12.434  0.0465  0.0924 -0.0408
 8818W        W28352  10.892   6.736   4.043  0.5377 -0.0565  0.0619
 8819W        W28353   9.893  13.014  14.125 -0.2862  0.4225 -0.0059
 8820W        W28354  15.292   8.874   0.398 -0.3982  0.1249  0.1588
 8821W        W28355   1.363   0.617   0.645  0.5809 -0.1466 -0.3314
 8822W        W28356  10.983  10.209   2.101  0.0743 -0.1873 -0.0621
 8823W        W28357   5.287  15.482   1.914 -0.0120  0.2968  0.1326
 8824W        W28358   3.595  13.497   1.991 -0.0963 -0.0222  0.0688
 8825W        W28359   7.871  17.508   1.963 -0.1160 -0.0814 -0.1653
 8826W        W28360   0.623   7.073  11.265 -0.0486  0.0794 -0.2427
 8827W        W28361  15.527   5.727   1.297 -0.0067  0.1327  0.2588
 8828W        W28362   4.572  15.158  13.542  0.1941 -0.3672 -0.2484
 8829W        W28363   7.076  18.828  12.287  0.2203 -0.0935  0.1251
 8830W        W28364   1.535  17.772  10.938 -0.3124  0.0187  0.0474
 8831W        W28365  15.690  18.586  13.872 -0.3558  0.3414 -0.0967
 8832W        W28366  18.108   2.657   1.238 -0.2173 -0.3221 -0.0570
 8833W        W28367  13.731   3.637  11.494  0.0576 -0.1394 -0.0049
 8834W        W28368  14.978   4.529   1.824 -0.4497 -0.0513 -0.4175
 8835W        W28369   8.489   7.805  12.758 -0.1689 -0.0033 -0.0382
 8836W        W28370  18.525  13.077  12.257 -0.3240  0.1096 -0.1008
 8837W        W28371  17.583   2.676   0.441  0.2099 -0.0253  0.3656
 8838W        W28372   4.270   0.156   2.045 -0.0769 -0.2276 -0.1677
 8839W        W28373   8.203  10.573   9.725 -0.0582  0.0440  0.0981
 8840W        W28374  16.017  18.185  13.936 -0.0926  0.0401 -0.5297
 8841W        W28375   7.379  13.662  12.795  0.1275 -0.2436 -0.0232
 8842W        W28376  14.511  16.543   2.537  0.0346 -0.2125 -0.2394
 8843W        W28377  16.289  13.744   4.673 -0.2256  0.3800 -0.1099
 8844W        W28378  19.029  14.970   3.714 -0.2120 -0.0866 -0.1696
 8845W        W28379  13.724   0.695   1.203 -0.0962 -0.3404 -0.0578
 8846W        W28380   9.660   4.303  11.428 -0.2542  0.3221  0.1162
 8847W        W28381   3.571  12.073  13.513  0.0565  0.3237  0.2030
 8848W        W28382   7.588   9.296  11.307  0.1719 -0.5179  0.0519
 8849W        W28383  10.679  10.991   0.082  0.2100  0.2361 -0.0127
 8850W        W28384   1.365  17.507   4.362  0.2592  0.0978  0.0417
 8851W        W28385  10.135   3.231   0.766 -0.0476 -0.2194  0.0290
 8852W        W28386   1.991  14.997  10.670 -0.0146  0.3522 -0.2156
 8853W        W28387  13.986   1.930   1.747  0.0082 -0.0793 -0.0181
 8854W        W28388   5.360  12.128   0.518 -0.1413  0.1080  0.0260
 8855W        W28389   4.956  19.030  13.504  0.0081  0.3593 -0.1318
 8856W        W28390  17.717  10.024  11.636 -0.2998 -0.4820  0.0691
 8857W        W28391   7.528   6.396   1.659 -0.0388 -0.1768  0.1554
 8858W        W28392   8.497   8.721   0.876 -0.0052  0.0323  0.2910
 8859W        W28393   8.588   0.068   4.758 -0.0755  0.0501 -0.1393
 8860W        W28394  13.763  16.117   1.079 -0.3416  0.0743 -0.3066
 8861W        W28395  18.167   7.696  11.361 -0.1461 -0.0404  0.1679
 8862W        W28396   7.938  11.858   1.279 -0.2951  0.0671  0.0654
 8863W        W28397   5.867  12.631   3.280  0.1201  0.1258  0.0299
 8864W        W28398  12.415  19.247  13.749 -0.1969  0.0044 -0.1215
 8865W        W28399  17.873  15.364   3.155 -0.0947 -0.0228 -0.1508
 8866W        W28400  15.313  13.691   0.911 -0.4627  0.5796 -0.0239
 8867W        W28401   8.574  11.211  13.435 -0.3471  0.0664  0.2671
 8868W        W28402   6.407  10.536   3.409  0.2100 -0.0255 -0.2714
 8869W        W28403  19.280  14.330   3.682  0.0725 -0.1197  0.2676
 8870W        W28404  15.480  17.653   0.132 -0.1082 -0.0736 -0.1417
 8871W        W28405  10.201  12.680   1.242  0.1575  0.1170  0.0446
 8872W        W28406  14.719  15.386   4.099 -0.2317 -0.0464  0.0350
 8873W        W28407   2.151   5.982   0.054  0.1468  0.1076  0.2511
 8874W        W28408  17.729   5.642   0.533 -0.2660 -0.0293  0.1011
 8875W        W28409  12.022  10.237  12.845  0.1209 -0.0568  0.1200
 8876W        W28410   2.749   6.499  12.142 -0.3207  0.3846 -0.1326
 8877W        W28411  11.513  18.561  13.609 -0.1116  0.1268  0.1632
 8878W        W28412  14.528   3.258  11.879  0.0902  0.1921 -0.1787
 8879W        W28413   6.492   6.555   2.693  0.2473  0.1645  0.0976
 8880W        W28414  19.482  10.489   2.081  0.0784  0.0169 -0.0347
 8881W        W28415  14.676  18.221   2.639 -0.1194 -0.1671 -0.1506
 8882W        W28416   0.520   2.282   3.648 -0.1566 -0.1528 -0.1076
 8883W        W28417   0.058   6.213  10.678 -0.0208  0.1087  0.2613
 8884W        W28418   6.871   5.169   0.102  0.0264 -0.0119  0.0953
 8885W        W28419   2.852  12.728  10.565  0.0579 -0.1944 -0.1416
 8886W        W28420  14.422   0.876   2.688  0.0090  0.2146  0.3647
 8887W        W28421  11.836  16.288   3.440  0.3399 -0.2113  0.2612
 8888W        W28422  13.425  17.311   0.813  0.0118  0.0166  0.0949
 8889W        W28423  12.855   1.362  11.899  0.1116 -0.1834  0.1041
 8890W        W28424  14.457   3.022  14.238 -0.3572 -0.2463  0.1580
 8891W        W28425  14.843   8.679   0.889 -0.1554 -0.1144  0.1329
 8892W        W28426   0.372   3.073   2.575  0.0755 -0.0623 -0.1211
 8893W        W28427  18.672  14.325  12.405 -0.1405  0.1911  0.0388
 8894W        W28428  14.325   8.052  10.348 -0.0772  0.0244  0.1631
 8895W        W28429   4.449  19.166  13.436 -0.0093  0.1208 -0.0665
 8896W        W28430  17.156   6.358   1.967  0.0799 -0.1783  0.1991
 8897W        W28431   9.254  10.845   3.947 -0.0054  0.5327  0.1498
 8898W        W28432  11.301   4.483   0.694 -0.0519 -0.1451 -0.1365
 8899W        W28433   1.007   2.737  10.817  0.1777  0.3168  0.0902
 8900W        W28434  15.443   1.554   5.516  0.3811  0.0007  0.3043
 8901W        W28435  13.946   7.097   2.841  0.0140  0.1243 -0.5089
 8902W        W28436  19.466  17.373  10.347 -0.2639 -0.0295  0.0097
 8903W        W28437  10.862  12.011  12.848  0.3911 -0.3074 -0.1513
 8904W        W28438  13.850   8.082  12.341 -0.3552 -0.0361  0.1516
 8905W        W28439   1.437  18.749   0.331  0.1331  0.2273  0.3723
 8906W        W28440  15.585   2.229   0.708 -0.0260 -0.3595  0.0332
 8907W        W28441   1.666   6.966   0.577  0.1299 -0.0912  0.1532
 8908W        W28442  13.218   2.878  11.543 -0.1188  0.3139 -0.0640
 8909W        W28443  15.211  15.025  12.515 -0.0137  0.3385 -0.1648
 8910W        W28444  16.262   7.579   2.822  0.2082  0.1605 -0.2130
 8911W        W28445   2.356  13.354   4.453  0.1119  0.0794  0.1943
 8912W        W28446   6.387  12.824   5.238 -0.0326 -0.0278 -0.4617
 8913W        W28447  11.024   8.477  10.766  0.0111 -0.2381  0.2395
 8914W        W28448  14.122   0.633   1.507  0.0443  0.1681 -0.1230
 8915W        W28449  14.906  15.505   1.061 -0.1593  0.0848 -0.0748
 8916W        W28450  16.421   4.056  13.585  0.1393 -0.0368  0.3114
 8917W        W28451   6.883   3.700   4.010 -0.3921  0.2191 -0.0609
 8918W        W28452   4.763  10.047  13.613  0.1394  0.1184  0.1788
 8919W        W28453  13.177  11.795   2.221  0.1448 -0.0176  0.1229
 8920W        W28454  11.133  17.580   4.400  0.2232  0.2923 -0.1127
 8921W        W28455  18.069   4.297   2.180  0.1006  0.2406 -0.2262
 8922W        W28456   0.882  15.567   0.772 -0.0219 -0.1812 -0.4091
 8923W        W28457  12.451   1.090  13.133 -0.0114  0.2417 -0.3028
 8924W        W28458   2.237   6.835   3.444 -0.0256 -0.3098 -0.2488
 8925W        W28459  19.103   7.076  11.453 -0.3497 -0.3214  0.0552
 8926W        W28460   8.212  15.519  10.297 -0.1694 -0.2802 -0.1463
 8927W        W28461  19.298  10.180   0.708 -0.0052 -0.2374 -0.0035
 8928W        W28462  18.521   9.797   4.216  0.0812  0.0219  0.0476
 8929W        W28463  11.927   0.427   4.061 -0.2219  0.0063 -0.1003
 8930W        W28464   9.487  13.107  12.563 -0.1518  0.1921  0.4115
 8931W        W28465   6.358   4.928  10.538 -0.1685 -0.0030 -0.1762
 8932W        W28466  12.117   6.016  14.169  0.0155 -0.3824  0.1214
 8933W        W28467   7.458  11.433  14.324 -0.3241 -0.1075 -0.1413
 8934W        W28468  15.627  11.714  10.507  0.1376 -0.0384  0.2403
 8935W        W28469  16.036   4.902  13.789 -0.0020 -0.1169  0.0233
 8936W        W28470   9.104  15.195  11.434  0.1091  0.0201  0.2304
 8937W        W28471  18.718  16.235  12.719 -0.3008  0.1205  0.2002
 8938W        W28472  19.316   7.749   4.247  0.0714  0.1527  0.0458
 8939W        W28473   8.189  12.754  12.024 -0.2269 -0.1460 -0.0191
 8940W        W28474   4.316  12.935  14.152  0.1981 -0.2819  0.1486
 8941W        W28475   2.124  15.851   3.987  0.3623  0.1031 -0.1653
 8942W        W28476  14.816   7.748   1.578 -0.0576 -0.0495  0.1537
 8943W        W28477  18.994  13.866  13.371 -0.1984 -0.1490  0.0113
 8944W        W28478   5.609  14.581  11.677  0.2069 -0.2180 -0.0469
 8945W        W28479   3.917   5.019   1.790 -0.0184  0.0718  0.0011
 8946W        W28480   6.929  16.441  13.507  0.1388 -0.0990  0.5507
 8947W        W28481  12.188  15.936   3.263  0.3316 -0.0505  0.0327
 8948W        W28482  15.480  19.433  11.695  0.0609  0.0934  0.2657
 8949W        W28483   9.625   7.769  10.739 -0.2342 -0.0934 -0.0546
 8950W        W28484   7.962  13.322   3.278 -0.0369  0.2431 -0.2214
 8951W        W28485  18.693   3.987   0.692  0.2724  0.3015 -0.0891
 8952W        W28486   1.096   7.359  12.519  0.0694 -0.0118 -0.1881
 8953W        W28487   6.331   5.324  12.726  0.2817  0.0374 -0.1111
 8954W        W28488  10.924  11.084   0.452 -0.3002 -0.1082  0.0318
 8955W        W28489  19.124   5.223   0.433  0.0130 -0.4581  0.0937
 8956W        W28490   0.717  14.688  12.071 -0.3212 -0.2064  0.1378
 8957W        W28491   5.592   6.304   1.840  0.0124 -0.0779  0.0637
 8958W        W28492  14.081   7.406  12.774  0.0752  0.1170  0.0971
 8959W        W28493   8.241   7.564  10.542  0.1579 -0.2194 -0.0728
 8960W        W28494  10.713   2.242  12.322  0.0296 -0.3071 -0.2698
 8961W        W28495  15.125   3.754   0.188  0.2619 -0.2666 -0.0272
 8962W        W28496  16.741  10.324   3.072 -0.2950 -0.2186  0.0298
 8963W        W28497  14.261  18.940   0.923 -0.0216 -0.1216 -0.2067
 8964W        W28498  12.485  18.244  11.382  0.3575 -0.0241  0.0527
 8965W        W28499  18.683   0.848  14.304  0.3544  0.0717 -0.1663
 8966W        W28500  18.511   4.305   3.053  0.1952  0.0548 -0.2616
 8967W        W28501   9.065   8.625  14.011  0.2085  0.2254  0.2054
 8968W        W28502  12.454  16.926  12.868  0.1902 -0.1445  0.1896
 8969W        W28503   2.854  17.286  13.949  0.0202  0.2787  0.0552
 8970W        W28504   2.156   0.665   0.850  0.0222 -0.1224 -0.1272
 8971W        W28505   3.572  15.282   9.396 -0.0639 -0.2816  0.3632
 8972W        W28506  18.141   9.239   9.841  0.0275  0.2361 -0.3778
 8973W        W28507   1.567  14.827   1.631  0.4736 -0.0737 -0.2576
 8974W        W28508  15.578   0.672   0.175 -0.2795  0.0086  0.0450
 8975W        W28509   2.520   5.836   4.219  0.1897  0.1688 -0.0804
 8976W        W28510  18.419   6.161  10.675 -0.0601  0.0724  0.1669
 8977W        W28511   5.093   4.963  10.850 -0.2490  0.1140  0.0738
 8978W        W28512  12.692  17.777   2.187 -0.0820  0.5058  0.0883
 8979W        W28513  11.971   0.601  12.247  0.1405  0.1971  0.0483
 8980W        W28514  15.141   0.458  13.809 -0.2148  0.1675  0.3404
 8981W        W28515   8.043   7.031  12.487  0.3255 -0.0225  0.2318
 8982W        W28516   6.530   4.784   0.091  0.1763  0.0856  0.0477
 8983W        W28517  14.344   5.610   9.567 -0.3022 -0.1391 -0.1344
 8984W        W28518   2.002  10.771  11.311 -0.1383 -0.2392 -0.3662
 8985W        W28519   2.746   6.715   0.312 -0.1917  0.1744 -0.0898
 8986W        W28520   4.279  16.035  14.219  0.1022 -0.0193 -0.2347
 8987W        W28521  16.816   6.547   3.959  0.0990 -0.0190  0.0098
 8988W        W28522  13.548  11.734  11.466 -0.0610 -0.0671 -0.5822
 8989W        W28523   7.314  16.064   1.781 -0.2176  0.2911  0.2194
 8990W        W28524   4.366   1.111   9.548  0.0214 -0.1443 -0.0078
 8991W        W28525   6.985   8.180   3.180  0.1622  0.0882  0.2852
 8992W        W28526   5.145   2.888   1.243 -0.0328  0.0930 -0.2643
 8993W        W28527   3.194  16.839  13.960 -0.0078 -0.0912  0.1173
 8994W        W28528   4.110  17.233   3.294  0.2474  0.2203 -0.1020
 8995W        W28529   6.807  15.167   1.318 -0.3970  0.1019 -0.2646
 8996W        W28530  19.016  16.526  11.157 -0.0724  0.3442  0.2042
 8997W        W28531  15.871  12.546  12.662 -0.0039  0.2193 -0.0341
 8998W        W28532  13.934   4.788   2.640 -0.0091 -0.0062  0.1102
 8999W        W28533  15.051   2.661  12.450 -0.1053  0.2426 -0.1269
 9000W        W28534   1.417  19.426  11.976  0.1127  0.1292 -0.2646
 9001W        W28535   3.095  17.455   0.485 -0.4325  0.4365  0.0797
 9002W        W28536  13.709  17.732   2.225  0.0925 -0.1334 -0.0688
 9003W        W28537  15.547   5.666   0.460 -0.0269  0.0563 -0.1622
 9004W        W28538  16.428   4.621  12.254  0.2071 -0.1504  0.2942
 9005W        W28539  12.802   3.290  10.107 -0.0294 -0.1154  0.0099
 9006W        W28540   3.594   4.450  11.436 -0.0110 -0.2777  0.1966
 9007W        W28541   6.829  15.622   1.551  0.2190 -0.2695 -0.0395
 9008W        W28542   2.997   2.598  12.322  0.0341  0.2067 -0.0150
 9009W        W28543  16.834  11.552   9.486  0.2209  0.1091 -0.0627
 9010W        W28544   9.054  17.689   0.584  0.0223 -0.0789 -0.0161
 9011W        W28545  13.039  16.454   0.990  0.1627  0.3081  0.3117
 9012W        W28546  13.442  17.696   0.280  0.0467  0.3328 -0.2712
 9013W        W28547   6.584  10.310  11.025 -0.0501  0.1746 -0.2282
 9014W        W28548   5.518   8.587   1.027  0.2106 -0.0940  0.1370
 9015W        W28549  13.759  17.889   2.751  0.4417 -0.4082 -0.0672
 9016W        W28550  13.823  14.585   2.204 -0.0487  0.3306 -0.0596
 9017W        W28551  11.169   6.991   0.748 -0.3386 -0.1820  0.1010
 9018W        W28552  14.003   8.008  10.859 -0.2763 -0.0568  0.1412
 9019W        W28553   7.107   1.542  10.745 -0.4026 -0.1372  0.1293
 9020W        W28554  16.278   0.196  11.514 -0.0303 -0.1374 -0.0823
 9021W        W28555  12.102   6.415   1.390  0.1234 -0.1152 -0.1115
 9022W        W28556   9.926  10.908   0.712  0.2240  0.1105  0.1755
 9023W        W28557  18.017  18.683   3.630  0.2316 -0.2272  0.1946
 9024W        W28558  15.855  13.567  10.955 -0.3289 -0.3271 -0.0586
 9025W        W28559   1.962   6.802   2.952  0.2849 -0.1155  0.1555
 9026W        W28560   7.374   5.185   0.720 -0.0445 -0.3307 -0.1648
 9027W        W28561  18.289   7.556  14.231  0.1338  0.2902  0.0215
 9028W        W28562   1.939   9.978   2.657 -0.4241 -0.1143 -0.0019
 9029W        W28563   3.627  16.061  10.446 -0.1541 -0.1355  0.3997
 9030W        W28564   5.800   1.874  10.738 -0.2970  0.0969 -0.1672
 9031W        W28565   3.175   9.790  13.854  0.1778  0.3609 -0.3191
 9032W        W28566   0.846  12.856  13.927 -0.0796  0.0457  0.0873
 9033W        W28567  13.319  11.473  13.065 -0.0165 -0.0932 -0.0150
 9034W        W28568  12.519  16.511  11.495 -0.1096  0.1030 -0.1412
 9035W        W28569  16.074   9.460   0.749 -0.1381  0.2234  0.1178
 9036W        W28570   1.579   4.230  13.435 -0.0673 -0.0653 -0.2225
 9037W        W28571   2.742  18.493   3.424 -0.1088  0.0945 -0.0213
 9038W        W28572  16.239   1.274   1.771 -0.2018  0.0580 -0.0582
 9039W        W28573   8.155   4.411  10.379  0.1997  0.1620  0.1405
 9040W        W28574  18.791   1.552  11.825  0.0249 -0.1322 -0.0763
 9041W        W28575   4.156   8.283   1.051  0.0616 -0.5710 -0.2198
 9042W        W28576  17.445  15.551   0.159 -0.2244 -0.0810  0.0049
 9043W        W28577   1.169   6.521   1.943 -0.0298  0.0737 -0.1355
 9044W        W28578   8.669  18.368  12.831  0.2226  0.3048 -0.1721
 9045W        W28579   8.383   4.669  12.746 -0.0145  0.3967  0.0897
 9046W        W28580   9.640  10.516  10.944  0.3316  0.0614  0.1424
 9047W        W28581  11.465   6.181   0.781 -0.0756 -0.0001 -0.3108
 9048W        W28582   7.059   5.214   4.695 -0.2722  0.1153  0.1191
 9049W        W28583  15.129  11.763  12.394  0.0171 -0.5233 -0.1536
 9050W        W28584  11.576   3.815   1.481 -0.0110 -0.2692 -0.0487
 9051W        W28585  18.089  10.710  13.524  0.1078  0.1567 -0.0957
 9052W        W28586  18.688  15.085   1.986 -0.1207 -0.2638  0.0109
 9053W        W28587  12.771  17.863   1.663  0.1027  0.0420  0.1755
 9054W        W28588  18.635   3.552   4.424 -0.2093 -0.1220  0.2220
 9055W        W28589  15.779  11.813  14.018 -0.0032  0.0753 -0.2822
 9056W        W28590  10.826  17.422   2.560 -0.3634 -0.0778  0.1076
 9057W        W28591   7.169  12.104   2.833 -0.1740 -0.2633  0.0722
 9058W        W28592  14.108  18.160   1.336  0.0950 -0.2909  0.1228
 9059W        W28593  12.546  14.896  13.028  0.1410 -0.1455  0.1573
 9060W        W28594   6.883   6.790   1.932  0.3891 -0.2248  0.2454
 9061W        W28595   3.683   7.370  11.227 -0.0428  0.1560 -0.2016
 9062W        W28596   6.881  18.164   2.058 -0.4386 -0.1206 -0.2151
 9063W        W28597  13.077  15.481   3.636  0.2994  0.0564 -0.1073
 9064W        W28598  14.306   8.439   2.102  0.2784  0.1851  0.1585
 9065W        W28599   0.057  10.482  12.806  0.0655  0.3587 -0.0084
 9066W        W28600   3.959  15.027   0.055 -0.1510 -0.3007  0.2677
 9067W        W28601  12.472   3.413  13.747  0.1271  0.1008 -0.1811
 9068W        W28602   0.740  14.168   1.666  0.2911 -0.1637  0.0680
 9069W        W28603  19.426  16.170  13.198 -0.1593  0.0756 -0.1231
 9070W        W28604   0.640   7.174  11.779  0.0739 -0.1209  0.2121
 9071W        W28605  18.427   6.366  12.396  0.0703 -0.2776 -0.0317
 9072W        W28606   2.050   5.312  12.253  0.0644  0.1588 -0.2021
 9073W        W28607   8.298  16.353   0.572  0.0989  0.1121 -0.1619
 9074W        W28608  15.584   5.370   0.951 -0.3204  0.1480  0.1190
 9075W        W28609   9.853   8.039   1.515 -0.0998  0.2947  0.0975
 9076W        W28610  12.566  11.191  10.459  0.2076  0.1271 -0.1571
 9077W        W28611   4.497  16.611  12.496 -0.0300 -0.0649 -0.0841
 9078W        W28612  13.397  18.654  10.453 -0.0227  0.1658  0.0304
 9079W        W28613  16.442  15.495   0.757  0.0167 -0.2142  0.0067
 9080W        W28614   9.003  16.820   0.640  0.0068  0.1430  0.1702
 9081W        W28615  19.329   4.917  11.298 -0.5704 -0.1124 -0.0779
 9082W        W28616   3.358   9.544  14.258  0.3817  0.2757  0.3723
 9083W        W28617   3.058  13.399   2.829 -0.0356  0.1370 -0.1857
 9084W        W28618  17.583  11.643   4.163  0.0135 -0.0465 -0.0960
 9085W        W28619   1.176   5.636   2.351  0.0804 -0.0636  0.4161
 9086W        W28620   9.626  15.764   2.588 -0.2943 -0.2363  0.0988
 9087W        W28621  19.153   3.103   0.772  0.0241  0.0228  0.1573
 9088W        W28622   6.088   1.093   0.335 -0.0491  0.2030  0.2398
 9089W        W28623   3.300  10.027  12.987 -0.0206  0.1956  0.1875
 9090W        W28624  15.285  16.986   9.231 -0.2970 -0.1159 -0.0273
 9091W        W28625   1.245  17.256   2.340 -0.1863  0.2560 -0.2076
 9092W        W28626   1.588  13.160   0.320  0.0129 -0.2891 -0.0554
 9093W        W28627   1.371   5.725  11.075 -0.0231  0.1793 -0.0478
 9094W        W28628  17.286   0.947  14.240  0.2301  0.1417 -0.0162
 9095W        W28629  12.703  16.257  13.655 -0.0562  0.2947  0.0542
 9096W        W28630   9.208  11.920   0.427  0.0124 -0.1419 -0.1481
 9097W        W28631  17.768   8.714   1.917 -0.0663  0.1790 -0.1425
 9098W        W28632  19.446   1.840  13.282  0.1695  0.1272 -0.0694
 9099W        W28633   7.132   8.245  13.742  0.1593  0.2000 -0.2655
 9100W        W28634   7.849   7.848   4.086 -0.0839 -0.3149  0.0280
 9101W        W28635  13.465   1.085   1.568 -0.0339 -0.0881 -0.2040
 9102W        W28636  12.559   9.179   0.711  0.0351  0.0639 -0.0327
 9103W        W28637   8.663   0.015   4.256 -0.0438 -0.3488 -0.0900
 9104W        W28638  11.150   6.903   3.102 -0.0182 -0.0970 -0.1276
 9105W        W28639   5.378  16.574  12.804 -0.1519  0.1485 -0.0086
 9106W        W28640  15.227  16.998   1.559 -0.1458  0.1248  0.1702
 9107W        W28641   3.418   7.709  10.966 -0.0754  0.0662  0.1383
 9108W        W28642  16.122   8.327   4.547  0.1850 -0.1690 -0.0233
 9109W        W28643   8.005   6.471  13.785 -0.1695  0.1365  0.1444
 9110W        W28644   1.993  12.322   0.003 -0.3499  0.1260  0.3207
 9111W        W28645  14.483  19.385   3.344  0.2076 -0.4255  0.0100
 9112W        W28646   9.748  19.137  12.759 -0.3933 -0.2221  0.0195
 9113W        W28647  11.684  19.069   5.130  0.0093  0.1595  0.1543
 9114W        W28648  18.812   0.947  12.830  0.1561  0.4261 -0.0629
 9115W        W28649  11.178   9.757   2.216  0.1770 -0.1637  0.2025
 9116W        W28650   5.622  16.684  11.096  0.0211 -0.2062  0.2628
 9117W        W28651   6.291  12.534   1.895  0.0636  0.3024 -0.0299
 9118W        W28652   2.358   9.858   0.065  0.0833 -0.0988 -0.1235
 9119W        W28653  18.461  15.239  12.255 -0.2611  0.1507 -0.0064
 9120W        W28654  15.643  19.507   4.098  0.0319 -0.0770  0.0080
 9121W        W28655  17.120  17.697   2.252  0.0738  0.5179 -0.0070
 9122W        W28656   0.456  17.101  13.908 -0.1906 -0.1741  0.2863
 9123W        W28657  11.852   1.444   3.318  0.0694  0.2404  0.3796
 9124W        W28658   2.503   9.625   1.048  0.0900  0.0926 -0.2828
 9125W        W28659   1.944  13.100   2.457 -0.0473  0.0221  0.1187
 9126W        W28660   2.993  19.272   3.999  0.1004  0.1006 -0.3909
 9127W        W28661  11.268   4.025  12.136  0.0468  0.2265 -0.2261
 9128W        W28662   0.928  11.851  10.140  0.1306  0.0620  0.3043
 9129W        W28663  16.018   3.790  11.957 -0.0292 -0.2931  0.0272
 9130W        W28664   4.822   5.814   3.355 -0.0036  0.0709  0.0452
 9131W        W28665  17.721   4.716   5.185  0.1151 -0.1306  0.5060
 9132W        W28666   8.412   3.094   1.055 -0.0645 -0.1346 -0.2848
 9133W        W28667  16.827   4.574   0.902 -0.1945  0.3340  0.1516
 9134W        W28668   7.144   3.978   3.037  0.0078  0.0345 -0.5123
 9135W        W28669   4.433   3.221   3.867  0.3879  0.0082 -0.1102
 9136W        W28670  14.709  10.677  14.111  0.2106  0.2568  0.2382
 9137W        W28671   8.968   3.945  11.898  0.1711 -0.0361  0.1773
 9138W        W28672   5.204  10.362  13.752 -0.0637 -0.1298 -0.0122
 9139W        W28673   9.773   8.176  12.989  0.0280  0.1260  0.0476
 9140W        W28674   1.674  18.806   3.853  0.0771  0.2208  0.1314
 9141W        W28675  18.263   9.694   3.288  0.0968 -0.4989 -0.0905
 9142W        W28676   2.389  13.473  14.144  0.1696  0.0396 -0.2027
 9143W        W28677   5.566   4.819   3.812 -0.0413 -0.2238 -0.2442
 9144W        W28678   4.391  18.684  11.744  0.0162 -0.0780 -0.0587
 9145W        W28679  15.499  16.778  11.333 -0.2166  0.0396  0.0953
 9146W        W28680   8.969   4.775   0.148 -0.0196  0.0291  0.0214
 9147W        W28681  17.981   9.150   1.676  0.2507  0.2688 -0.0307
 9148W        W28682  11.581   7.601   1.281 -0.1536 -0.0631 -0.0552
 9149W        W28683  19.172  11.171  11.363  0.0816 -0.3065 -0.0297
 9150W        W28684  15.969  13.077  14.061  0.0148  0.0090 -0.1047
 9151W        W28685   2.745  17.585   2.276 -0.5129 -0.1032  0.2662
 9152W        W28686   8.307  13.158  12.511 -0.2201  0.1051 -0.1705
 9153W        W28687  13.259  10.876   1.237 -0.1615  0.1650 -0.0989
 9154W        W28688  11.443  16.513   1.921  0.0827  0.1158  0.0300
 9155W        W28689  17.306   9.341  12.742 -0.2010  0.1434 -0.2951
 9156W        W28690  12.265   5.492  12.347 -0.1775 -0.3205 -0.1224
 9157W        W28691  18.264  18.092  12.387 -0.0961  0.0685 -0.3427
 9158W        W28692  12.524   8.473   3.664 -0.1974 -0.2559 -0.1870
 9159W        W28693   4.591  18.057  12.519 -0.0760 -0.1124  0.3178
 9160W        W28694   7.602   1.008  10.992 -0.0947  0.0252 -0.2361
 9161W        W28695  18.666  18.374  14.053 -0.2924  0.1135 -0.3200
 9162W        W28696   8.535  11.081  12.913 -0.2138 -0.1745  0.3346
 9163W        W28697   2.688  18.758  12.589 -0.0894  0.1071 -0.1183
 9164W        W28698  10.023   8.933   2.596  0.0548 -0.2225  0.1237
 9165W        W28699   7.255   8.961   3.354  0.2599  0.2772 -0.1478
 9166W        W28700   3.088  17.964   0.558  0.0399  0.1289  0.0604
 9167W        W28701  15.015   6.008  10.752  0.4876  0.2673 -0.3538
 9168W        W28702   3.085   7.743   3.954  0.2377  0.2779 -0.1232
 9169W        W28703   5.412   7.863   4.066  0.2210 -0.1900 -0.1229
 9170W        W28704  14.023   9.674   0.771 -0.0368 -0.1822 -0.1010
 9171W        W28705   6.400  18.839  12.122 -0.1054  0.0407  0.0368
 9172W        W28706  15.267   8.986  13.814 -0.2068  0.2049 -0.0041
 9173W        W28707   0.281  18.413   3.766 -0.3661 -0.0323  0.1611
 9174W        W28708  10.741   9.800  10.520 -0.3902  0.0219 -0.1744
 9175W        W28709   7.696  14.786   2.385 -0.0527  0.3115 -0.1048
 9176W        W28710  18.820  13.998   3.606 -0.0693 -0.0614 -0.0147
 9177W        W28711   1.408  13.707   2.358 -0.4270 -0.0531  0.0889
 9178W        W28712   2.602   7.185  13.895  0.1452  0.2269  0.2524
 9179W        W28713   0.665  17.040   0.661 -0.2019  0.0023 -0.2500
 9180W        W28714   8.507  18.353   4.471  0.1206 -0.0481  0.2470
 9181W        W28715   3.041  15.573  14.091 -0.0995  0.1969  0.5922
 9182W        W28716  18.364   3.983  11.118 -0.1285 -0.2211 -0.1629
 9183W        W28717   5.286   3.488  12.925 -0.0600  0.3025  0.0747
 9184W        W28718   3.219   1.939  12.485 -0.0858  0.0091  0.1068
 9185W        W28719  17.383  16.450   4.615 -0.0172  0.1433  0.0473
 9186W        W28720  13.218  16.854   3.528 -0.0072  0.1100  0.1420
 9187W        W28721  13.025   8.986   3.180  0.0682 -0.0783 -0.2439
 9188W        W28722   4.884  18.413   0.632  0.0080  0.2385 -0.1542
 9189W        W28723   2.818   1.235   1.489  0.1164  0.0275 -0.0984
 9190W        W28724   0.177   9.552   3.629  0.1640  0.0728  0.1396
 9191W        W28725  18.285  13.382   0.020  0.0986 -0.0314  0.2037
 9192W        W28726  15.249   0.917  12.316  0.1133 -0.0948  0.1714
 9193W        W28727  12.161   0.885   4.020 -0.0206  0.1603 -0.1411
 9194W        W28728   5.986   4.748   0.987  0.2713  0.0111 -0.2001
 9195W        W28729  10.565  12.643  10.950 -0.0716  0.0467  0.0884
 9196W        W28730  16.278   6.430  10.720 -0.2461  0.0500 -0.0487
 9197W        W28731   8.222  16.871   2.138 -0.0105 -0.0857 -0.0287
 9198W        W28732   7.925   0.330  14.266 -0.1918 -0.1867  0.2558
 9199W        W28733  17.917   5.778   3.793 -0.1453 -0.0613  0.2595
 9200W        W28734  10.590  13.526   2.173  0.0846  0.2330  0.2490
 9201W        W28735  17.506  19.119   4.900 -0.1192  0.2068  0.0588
 9202W        W28736  14.698  13.495  13.631 -0.0674 -0.0801  0.1283
 9203W        W28737  16.337  15.468   3.450  0.2423  0.0339 -0.0581
 9204W        W28738  17.694  10.395   2.974  0.0438  0.0117  0.0816
 9205W        W28739   2.413   9.831  10.523  0.1201 -0.0223  0.2027
 9206W        W28740   8.730  17.971   0.884  0.0485 -0.1106  0.1320
 9207W        W28741  18.739   5.243  11.063 -0.1319 -0.1003  0.1090
 9208W        W28742   9.364  19.065   4.322 -0.1061  0.1764  0.2795
 9209W        W28743   8.697  10.787   3.168 -0.2304  0.1406 -0.4135
 9210W        W28744   9.579  10.973   1.782 -0.1531 -0.1304 -0.1366
 9211W        W28745   2.269  17.015   3.461  0.3835 -0.1254  0.1757
 9212W        W28746  15.338  17.349  10.731  0.1598  0.3323  0.0151
 9213W        W28747   1.445   7.803  12.657  0.1451 -0.2122 -0.0526
 9214W        W28748  17.585  13.503   2.480 -0.0183  0.1994 -0.1617
 9215W        W28749   6.611   8.836   0.379  0.0105 -0.0078 -0.0064
 9216W        W28750   9.928  16.195   4.782  0.1058  0.2207  0.0066
 9217W        W28751   4.959  11.493  11.225 -0.0270 -0.3711  0.1299
 9218W        W28752   5.155  18.173  13.014 -0.0842 -0.0687  0.2855
 9219W        W28753   8.637  16.300   1.140  0.0774 -0.2052  0.0008
 9220W        W28754   4.880  11.765   2.580  0.3258 -0.2738  0.0038
 9221W        W28755   5.480  19.143   2.317  0.3557  0.1427 -0.0245
 9222W        W28756   0.908   6.587  12.507  0.2166 -0.1641  0.2494
 9223W        W28757   7.963  11.414  10.814  0.1372 -0.2959 -0.0341
 9224W        W28758  14.613  12.919  12.773  0.4224  0.0281 -0.0852
 9225W        W28759  12.790   6.792   2.517 -0.1712 -0.1631 -0.3880
 9226W        W28760  15.482   4.478  10.404  0.0362 -0.2858  0.0498
 9227W        W28761  11.601   1.204  10.293 -0.1943  0.3018 -0.2297
 9228W        W28762  13.329  19.326  12.635  0.1282 -0.2578 -0.0819
 9229W        W28763   0.124  14.176   4.577 -0.0402  0.0370  0.1860
 9230W        W28764   8.330   7.388   1.980  0.0206  0.2112 -0.0316
 9231W        W28765  10.653  14.107  14.207  0.1312  0.1757  0.0848
 9232W        W28766   8.839  16.914  12.421  0.1088 -0.2740 -0.2625
 9233W        W28767   4.843  13.274   0.585 -0.2269 -0.0892 -0.0569
 9234W        W28768  16.602   3.107  12.499  0.0987  0.0830 -0.1331
 9235W        W28769  18.795  14.521   3.582 -0.1748  0.1160 -0.0957
 9236W        W28770  17.092  13.847  12.264 -0.1215  0.4602  0.0776
 9237W        W28771   0.099   9.682   1.481  0.0750 -0.1610 -0.4295
 9238W        W28772  14.340  11.472  11.876 -0.1754 -0.1566 -0.0440
 9239W        W28773   1.003   0.459   2.236  0.2719  0.4488 -0.2848
 9240W        W28774   0.077   6.312  12.126  0.1271 -0.0919  0.0714
 9241W        W28775   4.308  16.461  13.041 -0.0671  0.0141 -0.1300
 9242W        W28776  15.742  11.857  12.433 -0.0319 -0.0855  0.1887
 9243W        W28777   6.856   9.277   1.073  0.0160 -0.2528  0.0040
 9244W        W28778   9.423  10.661  13.865  0.2211  0.2155 -0.2671
 9245W        W28779  18.835   8.771  11.062 -0.0287  0.3131 -0.0503
 9246W        W28780   5.257   7.226  10.442 -0.0614  0.2292 -0.1333
 9247W        W28781   6.687  18.058  10.254 -0.1632 -0.0976  0.0245
 9248W        W28782  18.129   7.826   1.635 -0.2225  0.1850 -0.1270
 9249W        W28783   5.436  17.858  14.036 -0.0034  0.2725 -0.1671
 9250W        W28784   6.989   5.837   9.188 -0.0005  0.1965  0.1226
 9251W        W28785  17.672  12.350  11.285 -0.0831  0.0540 -0.0849
 9252W        W28786  11.499  11.784  11.397  0.0590  0.0130  0.4178
 9253W        W28787   6.834  15.192   2.410  0.2219 -0.0700 -0.1350
 9254W        W28788  11.297   2.452  10.392  0.1380 -0.1664 -0.0007
 9255W        W28789  11.467  17.937   0.343  0.2507 -0.0798 -0.1820
 9256W        W28790   7.487   0.161  12.181  0.1071  0.1491 -0.0337
 9257W        W28791  18.518  15.787   0.054 -0.1941 -0.0289  0.2756
 9258W        W28792  19.420   9.990  11.506 -0.0482  0.0570 -0.4352
 9259W        W28793  15.384   9.933  11.358  0.1026 -0.1818  0.1305
 9260W        W28794   2.841   3.762  13.149  0.1219  0.1863 -0.1045
 9261W        W28795   4.037   9.236  10.537  0.1642  0.2943 -0.1210
 9262W        W28796   9.889  14.765   9.593 -0.1277  0.0605  0.1758
 9263W        W28797  11.284   2.800   2.673  0.0843 -0.2492  0.0339
 9264W        W28798   5.758  16.056  10.101  0.0697  0.3196  0.2069
 9265W        W28799   4.802  19.060   2.867 -0.0888 -0.0705 -0.0170
 9266W        W28800   5.277  11.586  13.930  0.0189 -0.0075  0.1315
 9267W        W28801   6.566  19.526  12.084  0.0871 -0.0982  0.2385
 9268W        W28802   0.669  19.193   3.056  0.1550  0.1856 -0.1774
 9269W        W28803   6.701   8.030  13.586  0.0380  0.0672  0.0499
 9270W        W28804   3.668   5.621  12.825  0.1838 -0.2293 -0.1668
 9271W        W28805   6.803  18.753   0.069 -0.0426 -0.0982  0.1233
 9272W        W28806   3.023  12.280   1.729  0.1332  0.0543  0.1578
 9273W        W28807   9.071  15.649  11.271  0.1428  0.0981 -0.3375
 9274W        W28808   3.828   7.376  14.237  0.0610 -0.0168  0.2146
 9275W        W28809  12.684   9.883   0.380  0.1604  0.2426  0.0211
 9276W        W28810   5.615   1.935   0.421  0.0762 -0.1126 -0.1423
 9277W        W28811   0.326   6.974  14.027 -0.0991 -0.1655 -0.0526
 9278W        W28812   9.682  15.060   0.156  0.0492 -0.2217 -0.0535
 9279W        W28813   4.648  12.743   0.133 -0.0011  0.2536  0.2781
 9280W        W28814  18.209  16.350   2.974  0.2745 -0.1310  0.2747
 9281W        W28815  10.029   4.978   0.920  0.3669  0.0275 -0.0920
 9282W        W28816   4.899   5.719   8.959  0.0090  0.2743 -0.2239
 9283W        W28817   7.036   4.948   4.264  0.2839 -0.3049  0.1996
 9284W        W28818   6.588  17.740   1.643 -0.3732  0.1136 -0.0707
 9285W        W28819   6.888  14.699  12.537 -0.2126 -0.5340 -0.0078
 9286W        W28820  14.802  14.184  12.778  0.1228 -0.3023 -0.0756
 9287W        W28821   0.830   3.513   3.582 -0.1178 -0.1285  0.0851
 9288W        W28822  15.913   2.935   1.346  0.0101 -0.3078 -0.1568
 9289W        W28823   7.175   7.169  12.787  0.0498  0.0481 -0.4138
 9290W        W28824  18.102   2.307   2.716  0.2348 -0.1869 -0.0735
 9291W        W28825   9.222  12.401   1.489 -0.0458  0.1091 -0.1638
 9292W        W28826   3.256  13.239   2.336 -0.3759 -0.1770 -0.0693
 9293W        W28827  16.510  11.752   1.827 -0.2285  0.0071 -0.1846
 9294W        W28828   8.866   4.334  14.231 -0.2723 -0.1203 -0.0132
 9295W        W28829  16.893  11.832  12.038 -0.2894  0.0750  0.2975
 9296W        W28830  19.370   3.869  12.688 -0.0506  0.2531 -0.1553
 9297W        W28831  12.530  18.861   1.405 -0.0214  0.4245 -0.2738
 9298W        W28832  16.744  15.082   3.671 -0.0006  0.2726 -0.2400
 9299W        W28833   2.272  12.697   0.206  0.0532 -0.0041  0.0162
 9300W        W28834   3.369  14.180   3.878 -0.0472  0.3335  0.1291
 9301W        W28835   7.243  16.082   0.379  0.0267 -0.0832 -0.1623
 9302W        W28836   6.746  10.243   0.042  0.1101  0.1233  0.1706
 9303W        W28837  10.926  19.482  12.948 -0.0041 -0.1662 -0.0493
 9304W        W28838   8.781  15.936   3.318 -0.0683 -0.0701 -0.0540
 9305W        W28839  13.442   9.254  12.750  0.4393  0.2003 -0.1665
 9306W        W28840  15.442  11.306  11.687  0.1128 -0.0586  0.3111
 9307W        W28841   7.557  14.211  13.922  0.0675  0.0443  0.1375
 9308W        W28842  13.232  17.339   3.479  0.2611  0.0757  0.0416
 9309W        W28843  19.153   3.857   2.037  0.0175 -0.0789  0.2711
 9310W        W28844  18.929  13.382   1.831  0.1523  0.2052  0.0459
 9311W        W28845  15.334  17.592   0.952 -0.4890  0.1972  0.1987
 9312W        W28846  16.696  16.069   0.049 -0.0670 -0.0465 -0.0403
 9313W        W28847  16.673  16.962  11.895 -0.2087  0.1173  0.0557
 9314W        W28848  18.673   0.298  12.034 -0.0490  0.1735 -0.3693
 9315W        W28849   6.864  18.441  12.078  0.4997 -0.2103 -0.0913
 9316W        W28850   5.971  13.723   1.254 -0.0037  0.0135 -0.0117
 9317W        W28851   3.763   2.028   1.243  0.0263 -0.2550  0.2455
 9318W        W28852   0.098  12.835  13.032  0.0277  0.0188 -0.1642
 9319W        W28853  11.136  17.645  13.420  0.2618 -0.0553 -0.4775
 9320W        W28854   6.251   0.914   1.523 -0.0542  0.2782 -0.3274
 9321W        W28855   4.266  14.817   9.204 -0.0977 -0.0312 -0.1010
 9322W        W28856  18.816   7.413   3.486  0.1141  0.3080  0.1439
 9323W        W28857   7.268   9.771   9.865 -0.0906  0.0301 -0.0444
 9324W        W28858   8.007   6.314  11.391  0.2505 -0.0326  0.0468
 9325W        W28859  16.418   6.563  11.189  0.1932  0.0513  0.0396
 9326W        W28860  14.487   4.145   3.138  0.1099  0.0379  0.0964
 9327W        W28861  15.509  12.814   3.885 -0.1540 -0.0472 -0.1632
 9328W        W28862  15.796  13.275  10.441 -0.0914 -0.1332 -0.0875
 9329W        W28863   2.597   6.701   0.783  0.0404 -0.2804 -0.0029
 9330W        W28864  17.130  16.884   8.931  0.1013  0.2263 -0.3351
 9331W        W28865   3.255  16.141   0.402  0.0286 -0.0029 -0.0391
 9332W        W28866  18.941  10.081  12.425  0.2224  0.0940 -0.0334
 9333W        W28867   4.652  19.509   1.634 -0.2195  0.1049  0.0107
 9334W        W28868   4.752  14.159  11.400 -0.3083  0.2266  0.1320
 9335W        W28869   5.738  15.855  10.617 -0.1419  0.1602 -0.1982
 9336W        W28870  10.145   9.462  13.340 -0.1244  0.0353 -0.3502
 9337W        W28871  12.978  18.190   2.963 -0.0815 -0.0830 -0.1060
 9338W        W28872  10.225   8.648  12.775  0.0039 -0.0361 -0.2497
 9339W        W28873   8.738   8.974   3.327  0.2696  0.2649 -0.1800
 9340W        W28874   5.545  14.828  13.487  0.2567  0.4303  0.3784
 9341W        W28875  16.523  14.993   0.574  0.1479  0.2015 -0.1660
 9342W        W28876  14.510  11.988   2.825  0.0140  0.2433 -0.1168
 9343W        W28877   6.186   0.846  12.443  0.0387 -0.1222  0.2264
 9344W        W28878   6.116  11.539  12.324 -0.4768 -0.0788 -0.5063
 9345W        W28879   8.720   7.390  12.877  0.0353 -0.1883 -0.1371
 9346W        W28880  12.224   8.296   0.290 -0.2549 -0.0908 -0.0298
 9347W        W28881  12.722  12.406   3.606  0.1149  0.0922  0.0098
 9348W        W28882   2.581   3.751   2.941  0.2039 -0.1214 -0.0174
 9349W        W28883  11.484   1.143   0.511 -0.0305  0.0979 -0.2653
 9350W        W28884  10.237  15.921  12.654 -0.4056 -0.2547 -0.3365
 9351W        W28885  17.604  19.451  13.965 -0.0332  0.1455 -0.1336
 9352W        W28886  13.139   3.468  12.875  0.1510  0.0700 -0.1025
 9353W        W28887   9.258  16.180   1.897  0.0461  0.0992 -0.0291
 9354W        W28888  15.971  11.577  13.635 -0.0133 -0.0862 -0.0313
 9355W        W28889   8.087   5.414   0.214 -0.0216  0.2133 -0.0167
 9356W        W28890   8.503  10.457  12.551 -0.2632  0.0465  0.2290
 9357W        W28891   0.090   0.668   3.549 -0.0280 -0.0822  0.1427
 9358W        W28892  11.515  13.778   3.522  0.3896  0.0438  0.3695
 9359W        W28893  10.897  13.098  13.366 -0.0163 -0.0338 -0.0546
 9360W        W28894  17.449   0.135   2.592 -0.1293  0.1533 -0.2228
 9361W        W28895   0.134  15.146   0.610 -0.2288  0.3669  0.0403
 9362W        W28896  13.189  10.303   2.733 -0.0253  0.1225  0.1420
 9363W        W28897   4.010   7.613   2.439  0.0105 -0.0509 -0.0753
 9364W        W28898   4.672   1.019   2.302 -0.0046  0.2191  0.1450
 9365W        W28899  18.606  14.130   3.205  0.0001  0.0215  0.0150
 9366W        W28900  10.087  18.571  14.147  0.2013 -0.0980  0.3472
 9367W        W28901  16.228  18.989   0.189  0.1402  0.1085  0.3442
 9368W        W28902  13.258   5.554   1.013  0.1640  0.3815 -0.2344
 9369W        W28903   7.489   5.101  13.290 -0.1206  0.0384  0.1596
 9370W        W28904   8.156  12.131  13.336  0.1384  0.1171 -0.0385
 9371W        W28905  13.959  12.083   2.125  0.0781 -0.0888 -0.1069
 9372W        W28906  14.241  10.788   2.117  0.1403 -0.2470  0.0227
 9373W        W28907   9.115   9.088   0.784 -0.0350 -0.2691 -0.1069
 9374W        W28908  18.434  10.783   1.193 -0.2237  0.0834 -0.4528
 9375W        W28909  14.769  15.570   1.828 -0.2397  0.0090  0.1445
 9376W        W28910   7.478  11.355  13.509  0.0254 -0.2674  0.2439
 9377W        W28911  17.833  15.888  12.305  0.1015  0.0615 -0.0273
 9378W        W28912   7.496   9.794  11.532 -0.0114  0.1318  0.0075
 9379W        W28913  13.702   9.698  11.771 -0.0546  0.0300 -0.0118
 9380W        W28914   9.016   9.146   1.923 -0.0096  0.1042 -0.0189
 9381W        W28915   7.059  10.349   4.080 -0.4818 -0.0026  0.2253
 9382W        W28916   2.094  10.331   1.080  0.0495 -0.1257  0.4189
 9383W        W28917   6.840   1.830   2.304 -0.1305 -0.2891 -0.0706
 9384W        W28918   3.688   3.754   2.847 -0.1079 -0.1464 -0.3113
 9385W        W28919   6.618   5.459   4.893  0.0902 -0.0433  0.2209
 9386W        W28920   6.695  12.900  11.429  0.2858  0.0668 -0.0408
 9387W        W28921   1.630  14.943   0.530 -0.1556 -0.2667 -0.1243
 9388W        W28922  17.715   4.731   2.030 -0.1452  0.0103 -0.1406
 9389W        W28923  18.991   5.112   3.597 -0.1114  0.0053 -0.0607
 9390W        W28924  16.231   9.137  14.271  0.4950 -0.2872 -0.2096
 9391W        W28925   9.592  14.276  10.322 -0.0044  0.2116  0.1759
 9392W        W28926  12.518  10.649   0.157  0.3781 -0.2280 -0.0569
 9393W        W28927  15.655  16.355  11.646  0.1044  0.1471  0.0915
 9394W        W28928   5.805  17.564  11.907 -0.2003  0.1564  0.2423
 9395W        W28929  14.409  18.669  10.852  0.0086 -0.0240  0.0491
 9396W        W28930  14.842   8.390   3.527 -0.1274  0.0665  0.0722
 9397W        W28931  14.975   5.286   1.956 -0.2289  0.0878  0.2466
 9398W        W28932   9.542  11.720  12.617  0.0862 -0.0161  0.1456
 9399W        W28933  12.712  14.855   1.679 -0.2390 -0.0855  0.0511
 9400W        W28934   5.741   9.524  12.168  0.1447 -0.2784 -0.0319
 9401W        W28935   1.510  13.716   0.129  0.2446  0.0950 -0.0178
 9402W        W28936   0.007  11.603  12.199 -0.0612 -0.1992  0.3102
 9403W        W28937   9.784  12.249   1.300 -0.0118  0.0694  0.0474
 9404W        W28938   6.189  13.065   1.828  0.1355  0.1601 -0.1465
 9405W        W28939   2.169   6.172   0.729 -0.2706 -0.0681 -0.2258
 9406W        W28940   5.555   8.267  13.567  0.3146  0.2337  0.1898
 9407W        W28941   7.086   8.052   0.146 -0.0880 -0.1518 -0.2053
 9408W        W28942  14.361  11.833   0.251  0.1876  0.1454 -0.1135
 9409W        W28943   0.629   0.180  12.627  0.1073  0.1963  0.4572
 9410W        W28944   6.217   8.305  12.754 -0.3582  0.2097 -0.1656
 9411W        W28945   2.335  14.923  11.314 -0.0082 -0.0117  0.1141
 9412W        W28946  12.440  11.927   0.950 -0.1424 -0.2104 -0.2778
 9413W        W28947   4.227   1.871   3.091  0.2192 -0.0260 -0.0502
 9414W        W28948   1.220   0.510  12.122  0.0823  0.1767  0.0958
 9415W        W28949   6.760  18.396   2.980 -0.0130 -0.1369 -0.0335
 9416W        W28950  11.895  15.875  11.498  0.0284  0.0039  0.2596
 9417W        W28951  17.198   1.584  12.646 -0.0489  0.0685  0.2558
 9418W        W28952   2.526   8.306   2.140  0.2124 -0.0725  0.0274
 9419W        W28953  15.803  14.684   0.373 -0.1714  0.2779 -0.1126
 9420W        W28954  19.006   1.616   1.881  0.0697  0.3755  0.2106
 9421W        W28955   3.631  18.578  14.161 -0.1561  0.0591  0.3617
 9422W        W28956  16.607  10.859   1.192 -0.2516  0.1749 -0.1904
 9423W        W28957  17.978   0.169   2.349  0.1347 -0.1376  0.0983
 9424W        W28958   7.936  17.393   1.275  0.0827 -0.2610 -0.2978
 9425W        W28959   1.625   5.931   1.092  0.0041  0.0848 -0.0533
 9426W        W28960   7.127  10.319   3.443 -0.1665 -0.0487 -0.1624
 9427W        W28961   3.877   1.588   2.499  0.2475  0.1045 -0.0408
 9428W        W28962  14.921  15.949  11.599  0.3746 -0.3132  0.1003
 9429W        W28963   8.696   6.710  11.022  0.0296 -0.1835 -0.1766
 9430W        W28964  16.009  10.095  10.915  0.0910  0.2139 -0.0294
 9431W        W28965  18.035   6.166  12.823 -0.0562  0.4014  0.2456
 9432W        W28966   7.138  17.486   0.321  0.0834 -0.1022  0.2042
 9433W        W28967   2.463   9.363   0.034 -0.0576  0.1293 -0.1061
 9434W        W28968  16.442  17.974  13.191 -0.0936  0.0735  0.0702
 9435W        W28969  11.282   2.867  10.650 -0.2384 -0.0775  0.0492
 9436W        W28970   5.701   7.886   0.115 -0.0139  0.1209 -0.4024
 9437W        W28971  11.498  16.919  10.207  0.0890 -0.0655 -0.1191
 9438W        W28972   4.956   4.126  12.271 -0.2779  0.0025  0.1649
 9439W        W28973  14.671  17.550  14.225  0.3616 -0.1919  0.1703
 9440W        W28974   6.391  17.408   1.364 -0.0911  0.2525  0.4892
 9441W        W28975  16.939   0.303   0.924  0.2309  0.0298 -0.1452
 9442W        W28976   4.680  17.424   0.776 -0.1207 -0.2878  0.2206
 9443W        W28977  12.646   2.089  14.157 -0.0643  0.0306  0.0241
 9444W        W28978   6.108  10.057   4.214 -0.2713 -0.2908 -0.0061
 9445W        W28979  14.209   0.636  11.849  0.0760 -0.4299  0.1311
 9446W        W28980  13.861  10.663   3.130  0.1017 -0.2797 -0.0438
 9447W        W28981  12.835   2.276   1.103 -0.2036  0.0580  0.1639
 9448W        W28982  10.320   0.945  12.527  0.0098  0.0304 -0.1399
 9449W        W28983   5.356  11.517   1.325 -0.0297  0.0811  0.1566
 9450W        W28984  13.988   5.217  14.237 -0.2601  0.1226  0.1407
 9451W        W28985  17.709   6.892   2.756 -0.3638 -0.0576 -0.1274
 9452W        W28986  17.357   5.317   3.084 -0.3528  0.1251 -0.0645
 9453W        W28987   4.546  11.179  13.270  0.2504 -0.1488 -0.1556
 9454W        W28988   8.127  10.974  13.233  0.0856  0.0717  0.1727
 9455W        W28989  17.344  18.951   9.949  0.0703 -0.2573  0.0677
 9456W        W28990  12.563   1.046   1.629  0.1000 -0.1500  0.3206
 9457W        W28991   0.655   0.783  10.863  0.1073 -0.0902 -0.1064
 9458W        W28992  18.680  17.975   0.962 -0.0710  0.0312 -0.0700
 9459W        W28993  18.745   7.957  12.952  0.2224 -0.0574 -0.1904
 9460W        W28994   1.122  16.927   0.983  0.1325 -0.0238 -0.0418
 9461W        W28995  15.762   7.776   4.025  0.1299  0.1161 -0.0908
 9462W        W28996   4.634   4.401   0.780  0.0274 -0.3404 -0.3279
 9463W        W28997   7.597  10.539   2.108  0.4869 -0.0661 -0.0472
 9464W        W28998   9.771  18.983   3.082 -0.1923 -0.1350 -0.1973
 9465W        W28999  19.356  12.113  10.278  0.0013 -0.4138 -0.2758
 9466W        W29000   5.712   3.768  10.798  0.1211  0.0550  0.0397
 9467W        W29001   9.141  12.539   2.229  0.0464  0.1097 -0.0252
 9468W        W29002  18.086   5.443  12.219  0.1524 -0.0772  0.2621
 9469W        W29003  19.393   7.855  14.070  0.2707  0.1834  0.0324
 9470W        W29004   4.618   5.708  12.590  0.1959 -0.0466 -0.1586
 9471W        W29005   5.592   3.349   3.854 -0.0917  0.0577  0.2759
 9472W        W29006   3.352  14.515  13.902  0.0276  0.2368  0.0833
 9473W        W29007   1.631  11.670  11.165  0.3367  0.1086 -0.1252
 9474W        W29008   8.049   8.841   4.495  0.2423 -0.0761 -0.2403
 9475W        W29009  10.750   8.242   9.694  0.0994  0.0662 -0.1242
 9476W        W29010   8.543   0.387  13.532 -0.2737 -0.1178  0.3014
 9477W        W29011  10.729   3.930   1.142 -0.1764  0.3458  0.1273
 9478W        W29012   0.140   4.711  12.968 -0.3704  0.0460  0.0225
 9479W        W29013   6.872   9.592  13.220 -0.1926 -0.0346 -0.2134
 9480W        W29014   0.814  17.866  11.458 -0.0375  0.2470  0.3737
 9481W        W29015  15.109  17.338  13.309  0.1428 -0.2498 -0.0807
 9482W        W29016   6.139  16.000   3.179  0.0890  0.0782 -0.0042
 9483W        W29017   2.365  11.340   3.034  0.3045  0.1016  0.0092
 9484W        W29018  11.957  17.970   3.019  0.0636  0.2505 -0.1900
 9485W        W29019  18.705  13.653   3.237  0.1171  0.0614  0.4107
 9486W        W29020  18.562  13.503  13.573 -0.3116 -0.0947  0.2440
 9487W        W29021   2.184   6.735  11.711 -0.0493 -0.0722  0.0651
 9488W        W29022   7.210   7.929  13.237  0.1968 -0.1488  0.0726
 9489W        W29023   2.070   0.677   9.492  0.0157 -0.0275 -0.0009
 9490W        W29024  14.926  11.934  11.264 -0.1824 -0.1944  0.2107
 9491W        W29025   7.691  10.523   0.198  0.1072 -0.1808 -0.1489
 9492W        W29026   4.051  18.912   4.150 -0.1211 -0.6306  0.2474
 9493W        W29027   8.814   2.256   1.359 -0.0777 -0.3532  0.2011
 9494W        W29028   1.351   7.007  10.590  0.0926  0.0001 -0.1794
 9495W        W29029   1.474  18.664  13.937 -0.0173  0.2832  0.2444
 9496W        W29030  13.489   6.527   2.804 -0.1283 -0.0590 -0.2823
 9497W        W29031  12.686   4.550  11.384  0.1148  0.1221 -0.0551
 9498W        W29032  19.410  16.989  13.415 -0.2915 -0.0967  0.0948
 9499W        W29033  11.954   8.683  11.972  0.2001  0.2065 -0.1048
 9500W        W29034  11.409  19.321  10.703  0.0368 -0.0109  0.2978
 9501W        W29035   8.614   9.847  10.971 -0.2427 -0.2706  0.4676
 9502W        W29036  15.381   7.821   0.570 -0.5092  0.3605 -0.0768
 9503W        W29037  13.257  18.207  12.577  0.1671 -0.1982 -0.2415
 9504W        W29038  18.735   8.722   2.313 -0.2135 -0.0917  0.0148
 9505W        W29039  17.893   3.103   3.099 -0.0137 -0.1962  0.2175
 9506W        W29040  10.437  11.251   3.098 -0.0772 -0.0516 -0.0887
 9507W        W29041  11.429   0.150  12.858 -0.1204 -0.3707  0.0927
 9508W        W29042  10.716   5.012  10.759  0.1218  0.1913 -0.0908
 9509W        W29043   2.259   0.354  12.340  0.4512 -0.0138 -0.1706
 9510W        W29044  14.928  12.972  10.845  0.1170 -0.0260  0.1661
 9511W        W29045   6.669   8.468   0.704  0.2680 -0.0676 -0.0588
 9512W        W29046   2.208  15.230   3.980 -0.2398 -0.1104 -0.0888
 9513W        W29047   0.998   0.886  12.657  0.1379  0.0910 -0.1280
 9514W        W29048  19.084  13.145   1.123 -0.0649 -0.1411 -0.3005
 9515W        W29049   7.451   3.124  12.335  0.1682 -0.3101  0.2570
 9516W        W29050   5.337   9.345   9.244  0.1903  0.1635  0.3430
 9517W        W29051  16.141   4.567   4.418 -0.0141 -0.1428 -0.0838
 9518W        W29052   1.266  17.873  11.689  0.2818 -0.1161 -0.1019
 9519W        W29053  15.690  15.779  11.859 -0.2137 -0.1843 -0.1041
 9520W        W29054  18.069   5.852  10.985  0.1001  0.1134 -0.0917
 9521W        W29055  19.343   3.371   1.653 -0.0552 -0.0419  0.1086
 9522W        W29056  12.647   6.581  12.671 -0.0229 -0.0838 -0.3603
 9523W        W29057  13.579  11.089  13.148 -0.3541 -0.0494 -0.0454
 9524W        W29058   3.567  19.049  13.901 -0.2053 -0.0986  0.0254
 9525W        W29059   2.949  12.921  13.376 -0.3185 -0.1585  0.0738
 9526W        W29060   9.463   0.043   1.357  0.1421 -0.0793 -0.0031
 9527W        W29061   5.056  13.401  13.095  0.2025 -0.0193  0.3558
 9528W        W29062   9.459  17.095   2.744 -0.0448 -0.3186 -0.0798
 9529W        W29063   7.204  14.733   2.282  0.0987  0.0369 -0.1547
 9530W        W29064  12.769   6.438   4.939  0.1728  0.3362 -0.0993
 9531W        W29065   3.525   8.146  10.540  0.1217 -0.1319 -0.1215
 9532W        W29066   5.939  16.456  12.552 -0.3391  0.0095 -0.0181
 9533W        W29067   6.203  14.019  12.068 -0.2905 -0.0315  0.0154
 9534W        W29068   0.707   5.931   1.480  0.0443  0.0753  0.3234
 9535W        W29069  17.296   6.146   2.838 -0.1629  0.1052 -0.2992
 9536W        W29070  17.388   9.901   3.620  0.1463  0.0541 -0.4044
 9537W        W29071   4.665   7.923  10.324 -0.1025 -0.1742 -0.0976
 9538W        W29072  14.605  11.214  12.208  0.0848  0.0263 -0.0235
 9539W        W29073   6.503  16.090   3.654  0.0779 -0.0902  0.1481
 9540W        W29074  11.307   2.868  13.993  0.0567 -0.2551 -0.0408
 9541W        W29075   5.313  17.045  12.089 -0.0363 -0.2695 -0.1852
 9542W        W29076  12.495  17.442   1.727 -0.0027  0.3484 -0.0570
 9543W        W29077  11.335  19.374   2.553 -0.2756 -0.0676  0.0568
 9544W        W29078  15.161   6.396  13.229 -0.0793 -0.0031  0.1721
 9545W        W29079  10.982  11.213  11.629 -0.2052  0.1049  0.1407
 9546W        W29080   9.034  18.953   0.951 -0.1385 -0.2911 -0.2175
 9547W        W29081   7.115  17.505   3.836  0.0981  0.3363 -0.3191
 9548W        W29082   3.339  19.486  10.493 -0.0536 -0.0885 -0.2381
 9549W        W29083  12.414  18.297   4.429 -0.2248  0.2905  0.0246
 9550W        W29084   2.261  19.344   9.803  0.0122  0.0517  0.0535
 9551W        W29085  16.186  12.395  10.827  0.0293 -0.1915  0.1323
 9552W        W29086   5.468  19.009   3.468 -0.1944  0.0320 -0.0700
 9553W        W29087   6.888   4.826   0.489  0.0086  0.1266 -0.5790
 9554W        W29088   2.459   4.522   0.736 -0.1000 -0.3481 -0.0863
 9555W        W29089  16.549   9.030   1.408 -0.0466 -0.1550  0.1050
 9556W        W29090  17.823  17.306   2.898 -0.3830  0.0487 -0.4461
 9557W        W29091  17.215   9.042  14.134  0.0262  0.2455 -0.0850
 9558W        W29092   3.604   8.100  11.964 -0.2759 -0.1521  0.3773
 9559W        W29093  18.912  15.501   1.819  0.0337 -0.2418  0.1383
 9560W        W29094   6.022  14.021  11.200 -0.2725 -0.0359 -0.1526
 9561W        W29095   7.327   8.382  11.181 -0.0377 -0.1568  0.1875
 9562W        W29096   0.053   4.347   0.840  0.1300 -0.2142  0.0878
 9563W        W29097  12.498  17.661  13.319  0.0054  0.1084  0.0502
 9564W        W29098  17.532   9.261  10.922 -0.0428 -0.0475 -0.1315
 9565W        W29099  17.238  13.381   0.337 -0.1351 -0.1514  0.2771
 9566W        W29100   0.917  10.480  13.352  0.1680 -0.0607  0.0446
 9567W        W29101   9.684  16.371  11.388 -0.0469 -0.1377 -0.0327
 9568W        W29102   7.382  11.278   3.207  0.0794  0.3763  0.0529
 9569W        W29103  17.593   1.080  10.657 -0.0380 -0.1240 -0.0376
 9570W        W29104   0.162   0.546  13.120  0.2488 -0.0486 -0.2435
 9571W        W29105   7.041   8.353  13.172 -0.1862  0.1194 -0.2645
 9572W        W29106  12.705  13.561   1.070  0.1608 -0.1381 -0.0239
 9573W        W29107   8.010  14.820   1.374 -0.0696  0.0147 -0.1389
 9574W        W29108   5.661  18.960  12.419 -0.1279  0.1857  0.2599
 9575W        W29109  16.495  12.804   3.494  0.3176 -0.1141  0.1937
 9576W        W29110  15.655  15.861   1.627  0.1623  0.1133  0.2042
 9577W        W29111  17.328  19.258   0.714  0.0859 -0.0202  0.1373
 9578W        W29112   0.946  12.388   0.410  0.0739 -0.0033 -0.1328
 9579W        W29113   9.692  17.484  11.412 -0.1323 -0.1813  0.1156
 9580W        W29114  17.836  11.819  14.191 -0.2827 -0.0092 -0.1350
 9581W        W29115   7.665   1.626  13.612 -0.0144  0.0511 -0.1880
 9582W        W29116   9.542  18.562   3.531  0.1659  0.0055  0.0990
 9583W        W29117  10.566   6.190  14.142  0.5480 -0.1351  0.2031
 9584W        W29118   3.847   7.341   2.036 -0.2737  0.2204 -0.4187
 9585W        W29119   6.342  15.653   0.311  0.5892 -0.1269  0.3852
 9586W        W29120  12.125   6.130  10.751  0.2266 -0.1966  0.2548
 9587W        W29121   0.563   5.269  12.578 -0.2412  0.0992 -0.3716
 9588W        W29122   0.466  12.575   0.657  0.2489 -0.1215 -0.1356
 9589W        W29123   1.311  13.110   1.408 -0.0540 -0.2073  0.4185
 9590W        W29124   5.870  15.535  10.284 -0.2320  0.1398 -0.0009
 9591W        W29125   9.108  17.944   2.486 -0.0065  0.2834 -0.2622
 9592W        W29126   4.420  16.168   1.515  0.2655 -0.0863 -0.0175
 9593W        W29127   0.328   0.445  14.349  0.1360 -0.1497  0.1198
 9594W        W29128  12.258  15.799  14.340 -0.0897 -0.1670 -0.0043
 9595W        W29129   8.492  11.939   1.386  0.1112  0.0856 -0.1324
 9596W        W29130   2.343   2.645   0.855  0.1602 -0.2627 -0.1838
 9597W        W29131   1.761  16.865   3.334  0.3788  0.4830 -0.1530
 9598W        W29132   1.464  17.808   2.612 -0.0374  0.1223 -0.1036
 9599W        W29133   6.415  13.551   9.299 -0.3512 -0.0958 -0.1854
 9600W        W29134   7.318   2.581  10.656 -0.0387  0.2617  0.1422
 9601W        W29135   8.168   1.828  13.122  0.1981  0.2710  0.2634
 9602W        W29136  10.290  17.188   9.532  0.0810 -0.0813 -0.1686
 9603W        W29137   8.824  13.488  11.163 -0.0462 -0.0709  0.1712
 9604W        W29138  15.925   4.552   1.445 -0.3467 -0.0823  0.0918
 9605W        W29139  17.174  11.929   1.385  0.0463  0.0932  0.0225
 9606W        W29140   9.549  14.080   2.940  0.0197  0.1423 -0.1212
 9607W        W29141  18.191   5.123  13.482  0.0196  0.3738  0.0824
 9608W        W29142   7.451  13.492  10.850  0.1066 -0.1874 -0.0449
 9609W        W29143  11.598   3.670   2.874 -0.0610  0.1521 -0.1409
 9610W        W29144  13.340  16.864  10.392 -0.1411 -0.0378  0.1235
 9611W        W29145   1.012  10.145  10.563  0.1154  0.2011  0.1838
 9612W        W29146  15.111  15.186  12.036  0.0937  0.0083  0.0798
 9613W        W29147   4.716   5.372  13.227 -0.1337 -0.6293  0.1479
 9614W        W29148   3.990  14.363   9.663  0.1891 -0.0476 -0.1089
 9615W        W29149  12.450   4.590  12.917 -0.1402  0.0883 -0.1569
 9616W        W29150   8.772  13.838  13.618 -0.0292 -0.0298 -0.0802
 9617W        W29151  19.405  17.177   4.964 -0.0187  0.2488 -0.0674
 9618W        W29152   3.902   4.747  13.572 -0.0091 -0.1360 -0.1494
 9619W        W29153  18.403   0.320   0.831 -0.3315 -0.1155 -0.2731
 9620W        W29154  14.879   4.878   0.845  0.0899 -0.1955 -0.2643
 9621W        W29155   3.525   0.245  13.670  0.3673 -0.0547 -0.4097
 9622W        W29156   6.884   2.184   1.371  0.1648 -0.3495  0.0644
 9623W        W29157   2.517   2.435  12.527  0.4981 -0.0010 -0.0887
 9624W        W29158   0.268  19.324   2.736 -0.0879 -0.2349 -0.2392
 9625W        W29159  15.042   4.299  13.806  0.3045 -0.1163 -0.3358
 9626W        W29160   0.217   0.249   2.636 -0.0124  0.0710  0.0925
 9627W        W29161   9.221  19.494   3.959  0.0986  0.1957  0.0825
 9628W        W29162  14.799   6.398   3.090  0.1838  0.2169  0.2373
 9629W        W29163   9.703   3.271   0.296 -0.3992 -0.0180  0.1195
 9630W        W29164  12.873  17.995   1.113 -0.2423 -0.2708  0.1561
 9631W        W29165   8.733  10.728  13.184 -0.0410  0.0080 -0.3958
 9632W        W29166  17.315  15.033   1.606 -0.0655  0.1276  0.0096
 9633W        W29167  18.407   7.079   3.245 -0.2938  0.0246  0.2191
 9634W        W29168   8.082   0.273   0.381 -0.0319  0.2820 -0.0011
 9635W        W29169  16.439   3.015   1.348  0.0679  0.2406  0.1739
 9636W        W29170  19.355  14.501  12.142 -0.0187 -0.1711  0.1292
 9637W        W29171   4.540   8.394  12.151  0.1508 -0.1341  0.3351
 9638W        W29172   2.413  17.799   1.631  0.0441 -0.2573 -0.0703
 9639W        W29173   7.742   7.749   0.644 -0.2835  0.3610 -0.3066
 9640W        W29174  11.131   9.331  13.764 -0.1105 -0.2215  0.2145
 9641W        W29175  10.137  14.190  11.384 -0.1632  0.3248 -0.1943
 9642W        W29176   0.882   6.678   3.990  0.1162  0.1191  0.2522
 9643W        W29177   4.435  13.900  13.793 -0.3784 -0.1221 -0.3100
 9644W        W29178  16.021   5.884   2.554 -0.2100  0.1091 -0.2127
 9645W        W29179   4.796   2.345   4.155  0.0536  0.1972 -0.0610
 9646W        W29180  13.839  14.176   3.847  0.0185 -0.6352 -0.0403
 9647W        W29181   2.292  18.352  13.687 -0.2362 -0.0924  0.0552
 9648W        W29182   6.950   6.665  12.629  0.0612  0.0551 -0.0248
 9649W        W29183  14.539   5.268   3.367 -0.1821 -0.0159 -0.0885
 9650W        W29184  15.498  12.421   1.565  0.1889 -0.0176 -0.1391
 9651W        W29185   4.714   8.833  10.796 -0.2547  0.0967  0.1455
 9652W        W29186  16.083   3.760   1.801  0.1500 -0.1235  0.2862
 9653W        W29187   0.280   2.626  11.627  0.1012 -0.1231  0.2540
 9654W        W29188  17.305  16.243   2.015 -0.1854 -0.2142 -0.3157
 9655W        W29189  11.838   5.037   0.426 -0.3592  0.2993  0.0336
 9656W        W29190   1.217   1.404  13.675 -0.1926 -0.0603  0.3019
 9657W        W29191   8.787   4.440   3.080 -0.2173  0.3226 -0.0344
 9658W        W29192   4.366  11.331  13.711 -0.1596  0.3097 -0.1056
 9659W        W29193   5.428  17.860  12.179  0.1358 -0.0950 -0.5261
 9660W        W29194   0.792   0.173   1.558  0.0372  0.0397 -0.1973
 9661W        W29195   8.822   1.747   4.115  0.0984  0.3161  0.1761
 9662W        W29196   8.172   7.705   3.566 -0.2693 -0.2812 -0.1529
 9663W        W29197  14.097  11.260  13.481 -0.1674  0.0350  0.0144
 9664W        W29198   5.875  10.375   1.267  0.1275  0.0797 -0.0792
 9665W        W29199  14.417   2.640   1.482  0.1905  0.2594 -0.0772
 9666W        W29200  16.324  10.325   1.316  0.2275  0.0283  0.0757
 9667W        W29201  12.013   5.342   1.517  0.0843  0.0551  0.4097
 9668W        W29202   5.729   5.786   9.952 -0.2825  0.0523  0.1189
 9669W        W29203   0.671  14.139  12.060  0.0219 -0.0509  0.0550
 9670W        W29204  15.854   4.274   1.884 -0.0704  0.0240  0.0956
 9671W        W29205  19.240  15.982   1.735 -0.0488  0.1670  0.2148
 9672W        W29206  12.831  15.592  13.634 -0.1240  0.1684  0.3812
 9673W        W29207   0.179  16.374   1.497 -0.2463 -0.1229 -0.1092
 9674W        W29208   1.595   3.658  12.584 -0.3733 -0.2808 -0.1446
 9675W        W29209   2.297  18.312   2.535 -0.0161 -0.3364  0.1406
 9676W        W29210   4.858   7.117  10.744  0.2129 -0.0117  0.2054
 9677W        W29211  13.855   1.320   4.882 -0.0450 -0.2432 -0.1041
 9678W        W29212   3.690  10.780  14.172 -0.2243 -0.2305 -0.1248
 9679W        W29213   0.393  16.379  12.993  0.2034 -0.1825  0.2643
 9680W        W29214   6.603   7.905  12.464 -0.2833 -0.2027 -0.2331
 9681W        W29215   1.432   0.853  11.748 -0.2102  0.1092 -0.0851
 9682W        W29216   2.377  11.538  10.723  0.0805 -0.2196  0.0821
 9683W        W29217  16.359   2.214   3.962  0.0045 -0.0644  0.2291
 9684W        W29218   1.380   4.268  12.602 -0.1954 -0.3687  0.0552
 9685W        W29219   7.756   6.376   0.331 -0.0025 -0.0183  0.0005
 9686W        W29220   1.301   5.862  14.040 -0.0428 -0.0051  0.0813
 9687W        W29221  17.075  16.681   1.984 -0.1857 -0.1252  0.0086
 9688W        W29222  18.532  12.840   3.322 -0.0823 -0.0195  0.3441
 9689W        W29223  13.945   8.614  12.570  0.2834 -0.0896  0.0369
 9690W        W29224  11.085  11.757   1.978  0.0860  0.1065  0.0897
 9691W        W29225  13.326   2.246  11.923  0.1613  0.2862 -0.0468
 9692W        W29226  16.957  19.021  13.746  0.0171 -0.0974 -0.0466
 9693W        W29227   4.704  12.353   0.562 -0.5209 -0.2368 -0.1240
 9694W        W29228   9.223   0.615  12.100  0.1435  0.1181 -0.1906
 9695W        W29229  18.663   8.910  13.064  0.1335 -0.4137  0.3596
 9696W        W29230   2.908  17.344  11.322 -0.2533  0.0992  0.2737
 9697W        W29231   5.574  10.582   3.615 -0.1019  0.0821  0.0287
 9698W        W29232   5.160   5.857  13.679  0.0376 -0.2232  0.0736
 9699W        W29233   8.834  11.563   4.385 -0.1715 -0.1019  0.2224
 9700W        W29234   4.291   1.059   1.935  0.0212 -0.1522  0.1217
 9701W        W29235   0.295  14.734   1.066 -0.2833  0.2507 -0.0719
 9702W        W29236   5.042  17.759  10.273  0.2443 -0.1448 -0.0749
 9703W        W29237   0.138   7.800   1.825  0.0773  0.4269  0.0657
 9704W        W29238   9.332   4.997  13.813 -0.2010  0.0830 -0.1464
 9705W        W29239  15.519   7.464   3.176  0.0419 -0.1608 -0.0788
 9706W        W29240  17.868  13.615   1.114  0.2158 -0.0792  0.2957
 9707W        W29241  14.153   0.322  10.695 -0.1166 -0.2446 -0.0869
 9708W        W29242   8.900  18.771  12.380 -0.1547 -0.0837 -0.1618
 9709W        W29243   0.864   7.791  12.873  0.1587 -0.2538  0.2159
 9710W        W29244  16.887   7.538  12.198  0.1914 -0.2354  0.2388
 9711W        W29245   1.773   6.309   9.456 -0.1568  0.4438  0.3953
 9712W        W29246  16.746  10.838   2.081 -0.2259  0.0805 -0.1663
 9713W        W29247   0.695  17.860   0.252 -0.2246  0.1522  0.3127
 9714W        W29248   6.216   1.618   5.345  0.1056  0.1432 -0.0591
 9715W        W29249   5.342  17.046  12.557  0.0670  0.0764  0.0340
 9716W        W29250   2.130   6.399  13.698 -0.2986 -0.3717  0.1171
 9717W        W29251  11.718  18.180  12.829  0.1316 -0.0203 -0.1284
 9718W        W29252   4.751   2.227  12.679 -0.0567 -0.0508 -0.0995
 9719W        W29253  10.421   8.230  13.255  0.0098 -0.0988 -0.1368
 9720W        W29254  13.527  15.801  14.337 -0.4288  0.0177 -0.3498
 9721W        W29255   8.679   9.332   3.751  0.0387  0.2084 -0.4479
 9722W        W29256   2.602   5.174   2.181 -0.2024 -0.2336 -0.0854
 9723W        W29257  14.568   1.180   3.126  0.1445  0.1122 -0.1430
 9724W        W29258  11.119  11.808  13.232  0.1509  0.2668  0.4498
 9725W        W29259  16.973  14.190   3.486 -0.1211  0.1172 -0.2710
 9726W        W29260   2.190   6.457   0.332 -0.0126 -0.1549  0.1932
 9727W        W29261  14.205   9.454   3.502  0.1272  0.4810  0.0885
 9728W        W29262   3.697   9.298  11.279  0.0413 -0.0190 -0.0725
 9729W        W29263  15.953   6.513   3.571  0.2195 -0.0705  0.3938
 9730W        W29264  12.222  16.704  11.096 -0.0287 -0.1938  0.1349
 9731W        W29265   2.947   7.554  10.588  0.2612 -0.4478 -0.4479
 9732W        W29266   1.624   0.939   2.421  0.1599 -0.1180 -0.2073
 9733W        W29267   8.441  13.359   1.362  0.0681 -0.1488 -0.1450
 9734W        W29268  18.052   5.488   2.528 -0.1297  0.0768  0.5665
 9735W        W29269   6.441  19.466  12.968  0.1856  0.2960 -0.0426
 9736W        W29270   9.203   2.321  11.632 -0.1996 -0.1731 -0.0909
 9737W        W29271   1.833   6.778   0.186 -0.0193 -0.3253 -0.4058
 9738W        W29272  17.173   6.176  13.397  0.1334 -0.2990 -0.2127
 9739W        W29273  17.629  17.120  11.592  0.2257 -0.0412  0.2156
 9740W        W29274   9.668  18.060  11.594  0.1870  0.0038  0.3102
 9741W        W29275   7.019  19.341  12.300  0.1206  0.1873 -0.0741
 9742W        W29276  12.473  15.039   2.156  0.1679  0.0385  0.0983
 9743W        W29277  11.344   1.618   1.216 -0.2167 -0.1239  0.0200
 9744W        W29278   1.270   9.724  10.389 -0.0044 -0.2086  0.1111
 9745W        W29279  13.493  15.583   3.888 -0.0760 -0.1123  0.2765
 9746W        W29280   8.554   7.369  13.514  0.2220 -0.0682  0.0590
 9747W        W29281   8.462  19.149  13.224 -0.0993 -0.0102  0.1824
 9748W        W29282   8.766   5.133   0.538 -0.3176  0.2327  0.2049
 9749W        W29283  10.811   0.770  13.603 -0.3191 -0.0600 -0.1019
 9750W        W29284   3.233   2.998  12.121 -0.0872  0.4489  0.1322
 9751W        W29285  10.760  19.392   3.105 -0.3287 -0.0374 -0.0461
 9752W        W29286  10.928   1.170  11.019  0.1600 -0.0449  0.0106
 9753W        W29287   2.228  10.350   1.950  0.0527  0.2419  0.1193
 9754W        W29288  17.723  14.364  13.438  0.1800  0.2213 -0.1264
 9755W        W29289   4.830  10.069   2.936  0.0129 -0.1996 -0.2974
 9756W        W29290   0.403   9.472  12.461  0.0536  0.0829 -0.0524
 9757W        W29291   2.377  18.132  11.617 -0.0473  0.0538  0.1174
 9758W        W29292   7.071  10.091  14.043  0.1578  0.1985 -0.0614
 9759W        W29293  11.545   4.311  11.850 -0.2068  0.3567 -0.1127
 9760W        W29294   7.425   0.147  12.690 -0.0301  0.0488 -0.1278
 9761W        W29295  18.852  10.453   1.449  0.3020 -0.1840 -0.1212
 9762W        W29296   2.680   6.478   2.345 -0.2174 -0.0084 -0.2490
 9763W        W29297  18.481  16.681   9.570 -0.0900 -0.2536  0.0570
 9764W        W29298   6.220   6.272  14.172 -0.3349 -0.2791 -0.3257
 9765W        W29299   2.054   4.665  12.166 -0.1869 -0.0276 -0.0476
 9766W        W29300  18.909   8.907  12.122  0.3373 -0.0120  0.2264
 9767W        W29301   2.580   1.656  11.462  0.1409 -0.0748  0.0756
 9768W        W29302   6.260  17.562  10.786  0.0428  0.1184  0.0407
 9769W        W29303  12.669  14.016   2.043 -0.1663  0.3343 -0.1219
 9770W        W29304   4.197  12.831  10.879  0.4949 -0.0361 -0.0396
 9771W        W29305  18.872   9.191   1.624 -0.2385  0.0157  0.1769
 9772W        W29306   9.958  18.424  11.328 -0.1077  0.0985 -0.2214
 9773W        W29307  10.289   6.843  13.332  0.0374  0.0834 -0.3359
 9774W        W29308  18.575   5.244  11.598  0.1644 -0.4474 -0.0562
 9775W        W29309   1.385  15.871  12.597 -0.1018  0.0181 -0.1229
 9776W        W29310   1.618  19.242   4.206 -0.0344 -0.0909  0.0574
 9777W        W29311  15.855   6.681  14.009 -0.1382  0.0520 -0.2108
 9778W        W29312   4.004  16.250  10.822  0.3985  0.2278 -0.1481
 9779W        W29313   7.869   9.713  12.932 -0.0290 -0.0957  0.1312
 9780W        W29314   6.572   0.920  13.441 -0.1105  0.0613  0.1821
 9781W        W29315  11.031  12.090   3.914  0.2054 -0.3831 -0.1393
 9782W        W29316   2.559   0.943  14.338  0.0202 -0.2483 -0.0722
 9783W        W29317  12.312   6.736  12.150  0.2221  0.3920 -0.3388
 9784W        W29318   5.548  19.053   3.966 -0.4192 -0.0676  0.0740
 9785W        W29319   8.402   7.162   0.852 -0.2285 -0.0885 -0.0626
 9786W        W29320  12.400  12.502  10.775 -0.1378  0.1960  0.2793
 9787W        W29321  15.394   2.284   1.884  0.1988 -0.0148  0.3898
 9788W        W29322   5.745  10.140  13.273  0.2540 -0.2207 -0.0449
 9789W        W29323   5.132  12.726   2.203  0.1185  0.1191  0.3678
 9790W        W29324   9.641  12.742  10.268 -0.2179 -0.4267 -0.3537
 9791W        W29325   7.867   8.989   4.029 -0.0011 -0.2067 -0.0706
 9792W        W29326   8.845  18.448  11.938 -0.1461  0.0861 -0.2079
 9793W        W29327   8.232  12.639   1.106  0.2692  0.0749  0.0391
 9794W        W29328  11.629   5.157   3.880 -0.0578  0.0857  0.0127
 9795W        W29329  13.269   9.295  11.820  0.3074 -0.0313  0.1084
 9796W        W29330  16.041   1.543  11.875  0.1331 -0.2989  0.0283
 9797W        W29331  16.097   3.608  13.614  0.1068  0.3355  0.4546
 9798W        W29332   4.066   6.744  12.455  0.1791  0.1772  0.0300
 9799W        W29333  12.268  10.239   3.464 -0.0862 -0.0056 -0.0125
 9800W        W29334   6.062  18.220   2.127  0.1415  0.0604 -0.1108
 9801W        W29335  12.486   9.669   2.821  0.1721  0.2401 -0.1201
 9802W        W29336  16.881  13.419  13.220 -0.2378 -0.1479  0.0324
 9803W        W29337  19.218   9.459   0.069 -0.1903  0.3102  0.0932
 9804W        W29338   2.378  11.556   4.045 -0.1011 -0.0162  0.0907
 9805W        W29339   7.637  16.621   3.940  0.0702  0.4913  0.2097
 9806W        W29340   0.612   8.516   3.233  0.0939  0.5404  0.2318
 9807W        W29341   7.175  16.760   0.981 -0.0442 -0.0247 -0.1736
 9808W        W29342  16.937  18.045   0.668  0.0019 -0.1157 -0.1291
 9809W        W29343  10.458   7.742  10.873 -0.0900 -0.0032 -0.0436
 9810W        W29344  10.095  16.686  13.502  0.1173  0.0024 -0.1373
 9811W        W29345   6.400  10.180   0.350  0.1746  0.0675  0.0938
 9812W        W29346  16.255   1.532  11.392 -0.1126  0.0049 -0.0519
 9813W        W29347  18.372  10.954  10.351  0.1135  0.1638 -0.2385
 9814W        W29348  13.020  15.876  11.977  0.3386  0.0300 -0.2655
 9815W        W29349   1.672   2.758   2.542  0.1342  0.0070  0.1125
 9816W        W29350  14.637  16.283   0.857 -0.0772  0.4066  0.2262
 9817W        W29351  13.630   2.097   0.611 -0.2149 -0.1032  0.1272
 9818W        W29352   6.499   4.906   3.501  0.1343  0.3250  0.0666
 9819W        W29353  12.645  18.701   2.210  0.0017  0.0731  0.1091
 9820W        W29354   4.410   2.648  12.080  0.2217  0.0171 -0.2893
 9821W        W29355   7.052  13.267   1.241  0.0829  0.2548  0.0274
 9822W        W29356  14.094   9.111   3.147  0.0885  0.0848  0.0112
 9823W        W29357  14.437  13.186   3.239  0.3031  0.0862  0.1989
 9824W        W29358  11.361  12.605   2.194  0.0364  0.0911 -0.1414
 9825W        W29359   4.458   7.572   0.422 -0.0439 -0.1132  0.0827
 9826W        W29360   2.998   8.043  10.858  0.0246  0.2293 -0.0447
 9827W        W29361  11.293   4.244   0.277 -0.4420  0.0459 -0.1232
 9828W        W29362   1.105   0.154   4.389  0.0676  0.3557  0.3851
 9829W        W29363   1.382   8.281  12.434 -0.1714  0.3709 -0.0249
 9830W        W29364  15.872  11.625  13.118  0.1083 -0.0168 -0.2804
 9831W        W29365   5.129  15.068   1.642 -0.5227 -0.0587 -0.2112
 9832W        W29366   6.953  11.800  11.898  0.2607  0.1166 -0.1234
 9833W        W29367   9.969  17.886  10.085  0.3179 -0.0750  0.2571
 9834W        W29368  11.457  15.276   3.628  0.0533 -0.1072 -0.1748
 9835W        W29369   9.806   4.048   0.958 -0.3455  0.1237 -0.1861
 9836W        W29370   2.378  12.355  12.883 -0.1770  0.1137 -0.0250
 9837W        W29371   0.329  10.617  13.598  0.1668 -0.3838  0.0204
 9838W        W29372   6.319   8.556   2.704 -0.0510 -0.2541  0.0607
 9839W        W29373  12.783   3.047  12.907  0.1698 -0.0834  0.2798
 9840W        W29374  19.083  17.224  14.161  0.1024 -0.1027 -0.2247
 9841W        W29375   2.459  11.344   1.061 -0.0209 -0.1438 -0.1255
 9842W        W29376  12.025  13.347  11.825 -0.1477  0.0527  0.1976
 9843W        W29377   1.079   0.561   1.224 -0.2513  0.0942 -0.0043
 9844W        W29378  12.846  18.887  13.690 -0.0359 -0.3089 -0.1536
 9845W        W29379  18.957   7.746  13.826 -0.1812  0.2640 -0.1603
 9846W        W29380   6.777  18.726   1.985 -0.1199 -0.0655  0.2353
 9847W        W29381   2.904   4.335  10.404  0.0426 -0.0749  0.0186
 9848W        W29382   4.924   7.697   1.419 -0.4017 -0.0665 -0.0457
 9849W        W29383   4.543   4.471  14.309 -0.2259  0.0759 -0.1546
 9850W        W29384  18.215  16.514  12.711 -0.3749 -0.1491 -0.3994
 9851W        W29385  11.822   6.504  10.969  0.1294 -0.1081  0.2651
 9852W        W29386   9.985  15.100  14.080  0.3332  0.1922  0.2269
 9853W        W29387  16.727   6.337  10.850  0.1178  0.0651  0.0340
 9854W        W29388  11.131   8.833  13.069 -0.0098 -0.3303  0.1306
 9855W        W29389   8.608   0.598  10.443 -0.0275  0.0807 -0.0407
 9856W        W29390  13.819  14.034  13.222 -0.2442  0.1727  0.1762
 9857W        W29391   0.201  19.253   3.307 -0.2478  0.0665  0.0755
 9858W        W29392  18.128  11.660  12.778  0.1343  0.4477 -0.0250
 9859W        W29393  15.488   4.695   2.384 -0.2576 -0.1681  0.2036
 9860W        W29394  18.921   1.823   1.356 -0.2850  0.0132  0.1842
 9861W        W29395   7.463  13.724   2.833  0.3476 -0.1177 -0.1934
 9862W        W29396   8.032   8.069   3.194 -0.3185 -0.0399 -0.0684
 9863W        W29397   7.260   2.977   1.937 -0.5989 -0.2538 -0.2252
 9864W        W29398  13.062   0.179   3.920  0.3095  0.1265  0.0260
 9865W        W29399   4.321   6.188  13.540 -0.0369  0.1201  0.1223
 9866W        W29400   3.378   6.750   1.153  0.0499  0.0467  0.4321
 9867W        W29401  16.889   6.973   0.891  0.1303  0.2173  0.0681
 9868W        W29402   0.719   8.435   1.549  0.0412 -0.1498 -0.1159
 9869W        W29403   6.140   0.029   9.390  0.0214 -0.1216  0.0759
 9870W        W29404   6.442  17.891   3.660 -0.0002 -0.1023 -0.1556
 9871W        W29405  16.099   1.220  13.219  0.0724 -0.0623 -0.2422
 9872W        W29406  17.634   7.135  10.540 -0.2177 -0.0452 -0.0831
 9873W        W29407  15.699   6.860   3.292 -0.0091 -0.0916  0.1389
 9874W        W29408  13.430   0.644  13.032 -0.1915 -0.0287  0.1930
 9875W        W29409  14.445  18.197   3.070  0.2166  0.1937 -0.0739
 9876W        W29410   3.536   9.627  11.853  0.0594  0.0815  0.0494
 9877W        W29411   0.238  11.775   3.280 -0.0186  0.1502  0.1209
 9878W        W29412   0.712  15.828  11.620  0.0719  0.2410  0.0087
 9879W        W29413  15.533  18.868   2.548 -0.0168  0.1256  0.3848
 9880W        W29414   3.275  13.865   2.976  0.2288 -0.0746  0.2637
 9881W        W29415  14.057  19.477  13.338 -0.0549  0.0030 -0.0009
 9882W        W29416  15.681  19.120  12.106  0.0139 -0.0036 -0.0643
 9883W        W29417  16.029  17.944  11.598 -0.3183  0.0104  0.1291
 9884W        W29418   3.235  16.291  12.230  0.3769 -0.0250  0.1322
 9885W        W29419   3.277  11.615   3.337  0.0002  0.0964 -0.1438
 9886W        W29420  17.365   6.911  11.923  0.1015 -0.3586  0.3189
 9887W        W29421   0.075   2.717   2.369 -0.2246 -0.0316  0.3734
 9888W        W29422  13.708  18.034  10.955  0.0130 -0.0338  0.3244
 9889W        W29423  17.268  12.597  13.082 -0.0517 -0.0117  0.2135
 9890W        W29424  15.124  13.525  13.977 -0.0576 -0.1872 -0.2573
 9891W        W29425  10.734  10.543  13.074 -0.0770 -0.1029  0.1253
 9892W        W29426   1.312   4.115  11.699  0.0796 -0.1813  0.1845
 9893W        W29427  14.743  17.405   4.317  0.2267 -0.1367  0.2257
 9894W        W29428  10.761   1.208  12.632 -0.2217  0.3476  0.2791
 9895W        W29429  15.951   7.068  12.285 -0.0817 -0.2071  0.2015
 9896W        W29430   1.500  12.280  14.200 -0.0015 -0.0515  0.0327
 9897W        W29431  14.185   3.777  13.793  0.2599 -0.1211  0.0288
 9898W        W29432  12.941   8.837  11.758  0.0644  0.1554 -0.0610
 9899W        W29433  14.067   0.714   4.096 -0.3469  0.5587 -0.0324
 9900W        W29434  10.092  11.929   9.925  0.1574  0.2057 -0.1776
 9901W        W29435  16.499   1.525  10.877  0.3744  0.0335  0.2031
 9902W        W29436   2.824   0.246   4.008  0.2787  0.3177  0.1068
 9903W        W29437  13.006   1.392  10.996  0.0602 -0.0910  0.1566
 9904W        W29438   9.792   2.575   4.225 -0.0046 -0.1030 -0.0656
 9905W        W29439  18.742   5.371   2.978 -0.0982  0.0746  0.0335
 9906W        W29440  10.111   3.242  11.170  0.0653  0.1515 -0.1514
 9907W        W29441  16.514  11.978  13.282  0.3676 -0.0939 -0.0744
 9908W        W29442  17.419  11.550   0.123 -0.0633  0.1951  0.1958
 9909W        W29443   2.593  13.681   0.997 -0.0544  0.0262  0.1053
 9910W        W29444  10.957   3.636  12.896  0.1499 -0.1333  0.0026
 9911W        W29445   6.047   2.587   3.478 -0.1655  0.0822  0.1524
 9912W        W29446   2.237  18.654   1.396  0.1776  0.2845  0.2730
 9913W        W29447   4.625   7.068  14.111 -0.0647  0.0536  0.0814
 9914W        W29448   8.192  16.146   2.515 -0.0981 -0.1167  0.2477
 9915W        W29449   9.687   6.743  14.205 -0.1828 -0.1071  0.6373
 9916W        W29450   3.555   3.287  13.864  0.0651  0.1454  0.0780
 9917W        W29451   2.173   8.045  14.215  0.0089  0.3806  0.1947
 9918W        W29452   4.078  18.990   2.111 -0.0912 -0.0305 -0.2736
 9919W        W29453   5.931   3.402   4.202 -0.0817 -0.2407 -0.0967
 9920W        W29454  13.792  15.509  10.196  0.1674  0.2282  0.0477
 9921W        W29455   7.067  11.704  13.326 -0.2617  0.5469  0.1789
 9922W        W29456   5.735  11.801   1.336  0.1409  0.0043 -0.1046
 9923W        W29457   6.581   6.654  12.256  0.2584  0.1159 -0.0037
 9924W        W29458  13.527   7.210   3.989  0.2067 -0.3317  0.4017
 9925W        W29459   2.759  10.223   4.065 -0.0914  0.2409 -0.0068
 9926W        W29460   5.524   3.639  13.343  0.1473  0.0705  0.1706
 9927W        W29461  10.769   9.551   9.635  0.1122  0.1551  0.0329
 9928W        W29462  13.486  11.018  12.127  0.0415  0.0615  0.3474
 9929W        W29463   8.980   1.709   2.014  0.0392  0.0356  0.0758
 9930W        W29464  12.985   0.149   1.702  0.0563 -0.0108  0.2953
 9931W        W29465   7.686   1.308  12.041  0.3703 -0.0652  0.0292
 9932W        W29466   3.910   7.753  12.145 -0.1387 -0.1068  0.2824
 9933W        W29467   6.246  15.349  13.122 -0.0093  0.0312 -0.1811
 9934W        W29468   8.274  18.718   3.005 -0.0438  0.1494 -0.1230
 9935W        W29469  15.501   3.783   4.781  0.1268  0.1813 -0.2258
 9936W        W29470   9.788  10.522   0.942 -0.2350  0.4255 -0.0753
 9937W        W29471   0.457  15.778   4.275  0.1767 -0.0409 -0.0457
 9938W        W29472   0.276  16.206   2.591 -0.0441  0.1709  0.3288
 9939W        W29473   4.469  18.633  10.294  0.1235 -0.0892 -0.1158
 9940W        W29474  16.327   8.511   4.049  0.1328  0.0680 -0.2451
 9941W        W29475  12.727   4.965  11.054 -0.3330 -0.0923  0.1658
 9942W        W29476   6.630  14.225   1.262  0.0764  0.1859  0.0111
 9943W        W29477   9.385   2.047  13.030 -0.0387 -0.1866 -0.1531
 9944W        W29478   6.655   6.550  13.874 -0.0442  0.1245  0.1442
 9945W        W29479   4.676   8.420   0.884 -0.0728  0.1669  0.0838
 9946W        W29480  16.307   4.403  10.818  0.0308 -0.1591 -0.0698
 9947W        W29481   8.973  10.268  12.378  0.0730  0.0640  0.0210
 9948W        W29482   4.548   6.776   1.827  0.1459 -0.1351  0.0840
 9949W        W29483   3.481  16.892  12.945  0.1341  0.0160  0.0491
 9950W        W29484  12.367  12.302   0.598 -0.0443 -0.2103  0.2478
 9951W        W29485  12.253   0.491   0.851  0.2357 -0.2645 -0.0807
 9952W        W29486   0.065   5.795   4.134  0.0429 -0.0928 -0.0756
 9953W        W29487  11.573  12.748   3.150  0.0956  0.1572 -0.0961
 9954W        W29488  11.135   5.777   2.341 -0.0010  0.5269  0.0238
 9955W        W29489   6.596  15.200   0.889 -0.0881 -0.1521  0.4554
 9956W        W29490  19.408  11.217  13.139 -0.0946  0.0932  0.0733
 9957W        W29491  18.158   8.669   1.631  0.0212 -0.3231 -0.0923
 9958W        W29492  10.699   1.169   2.332 -0.1790  0.1939  0.2681
 9959W        W29493  10.347   0.682  10.214  0.3157 -0.4773 -0.2872
 9960W        W29494  18.866   0.944   3.182 -0.0933  0.0231  0.1436
 9961W        W29495  12.050   6.731  13.162 -0.2239 -0.2005  0.1162
 9962W        W29496  12.808   4.526   3.739  0.0464 -0.0420 -0.1232
 9963W        W29497  13.229  14.874  12.233 -0.1125  0.1722  0.0958
 9964W        W29498   5.338   2.625   3.128  0.0830 -0.0455  0.0126
 9965W        W29499   2.974  12.253  14.228  0.0228 -0.0455 -0.2895
 9966W        W29500  17.201   6.127  11.602 -0.2243  0.0545 -0.1159
 9967W        W29501  17.590  13.386   1.472 -0.2066  0.2124  0.0530
 9968W        W29502  10.856  17.615  12.785  0.2563  0.0264  0.0779
 9969W        W29503   7.836   0.163   3.735  0.1202 -0.2903  0.0454
 9970W        W29504   3.178  10.164  13.490 -0.2441  0.2022  0.0201
 9971W        W29505   6.182  13.442   3.080 -0.3428  0.0667  0.2011
 9972W        W29506   7.276  16.212   3.094 -0.1061  0.0453 -0.0981
 9973W        W29507   6.582  11.010  12.752  0.2337  0.0083 -0.0028
 9974W        W29508   0.612   9.256  11.104  0.0511 -0.1295 -0.2066
 9975W        W29509   7.659   5.720   2.366 -0.1348 -0.3004  0.2655
 9976W        W29510  13.529   3.166   1.970  0.0935  0.0259  0.0097
 9977W        W29511   8.439   1.599   2.488 -0.1823  0.1314  0.4038
 9978W        W29512  18.547   5.602  12.173  0.1941 -0.0973  0.0534
 9979W        W29513  16.411  15.896  13.641 -0.5432 -0.0220  0.2133
 9980W        W29514  19.395  10.391   3.483  0.0920  0.1242 -0.1663
 9981W        W29515   1.018   3.702  10.850  0.3276  0.0730  0.0606
 9982W        W29516   5.140  12.346   0.891  0.1935  0.3116 -0.2589
 9983W        W29517  16.936   2.107   1.912  0.3802  0.2026 -0.0318
 9984W        W29518   0.182  13.537   2.850 -0.0914 -0.0304  0.0405
 9985W        W29519   4.389   6.790  11.577 -0.0133  0.1609 -0.0722
 9986W        W29520  14.610   3.073  13.765  0.1624  0.0374 -0.0819
 9987W        W29521  10.510  19.259   1.131  0.1414 -0.1159  0.1395
 9988W        W29522  19.233   1.649   2.417  0.0790  0.1915 -0.0990
 9989W        W29523  10.161  14.913   0.939  0.3778  0.0854 -0.0042
 9990W        W29524  19.171   8.195   9.659 -0.3761  0.2932 -0.0400
 9991W        W29525   0.571   2.967  11.322  0.0571 -0.2211 -0.2988
 9992W        W29526  11.131   1.238   0.874 -0.0520 -0.1239  0.0785
 9993W        W29527  19.293   0.500  10.746  0.2540 -0.1123  0.1112
 9994W        W29528   2.583   5.029   1.313 -0.2833  0.0910  0.1814
 9995W        W29529   4.144   9.947  12.513  0.0039 -0.2217  0.0209
 9996W        W29530  16.418  14.051  10.580  0.3086  0.0401 -0.0150
 9997W        W29531  19.172  19.138   3.975  0.4027 -0.1669 -0.0694
 9998W        W29532   9.429  17.289  13.733 -0.1088  0.1171  0.3114
 9999W        W29533  16.209   5.782   9.591  0.0870 -0.1188 -0.0240
10000W        W29534   4.381   1.941  12.735  0.1081  0.1420  0.0894
10001W        W29535  16.721   3.679   1.015 -0.0842 -0.1096 -0.3605
10002W        W29536   5.294   9.444   3.355 -0.0890  0.0825 -0.4281
10003W        W29537  11.700  13.702   1.552 -0.1914  0.0787  0.0603
10004W        W29538   0.150   0.129   1.443  0.3286 -0.1024  0.2443
10005W        W29539   4.424   0.602  11.401 -0.1356  0.4657 -0.1015
10006W        W29540  18.019  18.561   0.700  0.1155 -0.2534 -0.1518
10007W        W29541  15.362   4.954   1.856  0.1002  0.1019 -0.0292
10008W        W29542   9.053  16.350   4.105  0.0284 -0.0502 -0.1929
10009W        W29543   8.845   0.690  11.318 -0.4570 -0.0605 -0.0758
10010W        W29544  11.520   1.484   2.244  0.1616  0.1456 -0.2787
10011W        W29545  16.935  16.460  12.395 -0.0009  0.0463 -0.2870
10012W        W29546  12.436   7.815  11.917 -0.2473  0.0074 -0.1188
10013W        W29547  12.279   5.530   0.541 -0.1287  0.3635  0.1726
10014W        W29548   4.131   1.546  11.612 -0.5174 -0.0926  0.0621
10015W        W29549  12.357   0.157  11.512  0.0541  0.3186 -0.0182
10016W        W29550  15.252  16.032  12.957  0.3147  0.2139 -0.1261
10017W        W29551  10.916   6.734  10.669  0.1146  0.0069 -0.1366
10018W        W29552  13.758   4.079   3.960  0.1237  0.1908  0.1540
10019W        W29553  11.636   1.671  11.971 -0.2058 -0.1777 -0.3310
10020W        W29554  17.489   6.660  13.285  0.1139  0.3044  0.1884
10021W        W29555   5.461  12.978   3.750 -0.0877  0.4137  0.5060
10022W        W29556   4.893  17.926  13.850  0.0326  0.0592  0.2053
10023W        W29557  10.202   2.361  13.093  0.1920 -0.1278  0.0803
10024W        W29558  19.450   8.270   2.880  0.0905 -0.0403 -0.0106
10025W        W29559   7.358  16.610   0.478  0.1517  0.0710 -0.1253
10026W        W29560   0.083   3.709   1.885 -0.0799 -0.0466 -0.3197
10027W        W29561  17.081   1.110  12.416 -0.2085 -0.1416  0.4742
10028W        W29562  16.420  19.122   1.431  0.2179  0.3918  0.0260
10029W        W29563   2.430  10.921   0.174  0.1503  0.0703 -0.1759
10030W        W29564  10.217   8.847   0.396 -0.3269  0.0312  0.2130
10031W        W29565  17.780   0.776   3.808 -0.1204  0.3477  0.0436
10032W        W29566   1.337   9.292   0.896  0.1693  0.0642 -0.0689
10033W        W29567  13.309   0.371  14.296 -0.1280 -0.1464  0.0371
10034W        W29568  13.239   7.142  13.153  0.1445 -0.0051 -0.0500
10035W        W29569   1.056  19.536   3.038  0.0145 -0.1374  0.0636
10036W        W29570  17.727  11.839   2.323 -0.0417 -0.1302  0.3653
10037W        W29571   0.734   5.574  13.275 -0.0130 -0.1647 -0.1556
10038W        W29572  18.916  15.740  10.624  0.0886  0.0498 -0.2049
10039W        W29573  16.436  18.408   2.517  0.0857 -0.1336  0.0347
10040W        W29574   0.672   0.667   3.810 -0.0102  0.2135  0.0825
10041W        W29575   8.492  14.461   1.954 -0.0314  0.0384  0.0138
10042W        W29576   8.250  15.314   2.916  0.0780  0.0314 -0.1765
10043W        W29577   1.254  17.788  12.887 -0.3592  0.2318 -0.0362
10044W        W29578   2.222  17.038  11.423 -0.2196  0.2134 -0.1069
10045W        W29579   7.375  14.845  11.587  0.0037  0.2404 -0.3149
10046W        W29580   4.157   2.837   3.146  0.2811  0.1228  0.1779
10047W        W29581  11.460  13.823  11.284  0.2600 -0.1379 -0.0058
10048W        W29582   7.271  14.888   0.444 -0.0037 -0.0266 -0.3372
10049W        W29583  18.533   7.975  11.630 -0.0564  0.2369 -0.2219
10050W        W29584  17.844  14.586  12.175 -0.2142  0.0287 -0.3840
10051W        W29585   5.739   0.547   0.682 -0.0838  0.1092  0.1678
10052W        W29586  13.470   3.134   3.081  0.2416  0.0646 -0.1281
10053W        W29587  18.467  15.347  11.750  0.0791 -0.2970 -0.2203
10054W        W29588   3.200  14.105   2.483 -0.0987  0.0248  0.1169
10055W        W29589   1.192   6.530  13.030  0.1481  0.0935  0.2206
10056W        W29590   8.709  17.393  12.227 -0.1814 -0.4002 -0.2645
10057W        W29591   0.170  18.899   0.535  0.1024  0.1443 -0.1178
10058W        W29592   3.254   2.720   0.151 -0.0314 -0.0290 -0.1345
10059W        W29593   5.258  14.924  10.652  0.1260  0.0516 -0.1547
10060W        W29594  18.347  16.665   2.049 -0.1281  0.1362 -0.2111
10061W        W29595  17.165  12.459   3.870 -0.1869  0.1321 -0.1971
10062W        W29596   8.914   8.116  11.312  0.0029  0.0491 -0.0898
10063W        W29597   1.070   7.992  10.219  0.0930 -0.0578  0.0643
10064W        W29598   3.696  11.779   3.670 -0.2449  0.1352  0.2643
10065W        W29599  15.451   9.583  10.409 -0.1185  0.2492 -0.4396
10066W        W29600   1.741  10.689   1.230  0.3948  0.1925 -0.1125
10067W        W29601  12.596  19.076   3.412  0.0939  0.1316 -0.0132
10068W        W29602   7.754   8.596   4.872  0.1091  0.0389  0.1363
10069W        W29603  15.071  13.618   1.385  0.2829  0.2524 -0.1151
10070W        W29604  12.028   6.756  14.288  0.0924 -0.1563 -0.0953
10071W        W29605   4.358  13.015   3.815 -0.2912 -0.1205  0.2083
10072W        W29606   3.417  11.177   1.318 -0.3025 -0.1114  0.0039
10073W        W29607  11.196   8.130  10.415 -0.2765 -0.0372 -0.1751
10074W        W29608  12.649  11.949  10.972  0.2814 -0.1006  0.2418
10075W        W29609  18.033   7.406   0.379 -0.1242  0.1037 -0.2438
10076W        W29610  10.825   9.951   3.694 -0.0263 -0.3572  0.0740
10077W        W29611  18.706  17.436   0.999 -0.1823 -0.1075 -0.0176
10078W        W29612   9.978   4.397   3.630  0.1113  0.1005  0.1489
10079W        W29613  18.913   9.092   3.237  0.1945 -0.1566 -0.1526
10080W        W29614  13.077  11.806   0.141 -0.2994 -0.0686  0.2080
10081W        W29615   6.990   7.706  11.889 -0.1406 -0.1355 -0.0182
10082W        W29616   9.678   9.853   2.743  0.5552 -0.0302  0.0712
10083W        W29617   7.900   2.709  13.179 -0.3392  0.2055  0.2448
10084W        W29618  18.750  14.967   3.307 -0.0424  0.0183  0.0155
10085W        W29619  11.569  13.886  10.380  0.1683  0.1288 -0.1204
10086W        W29620   2.528  13.999  14.042 -0.1337  0.1381  0.0118
10087W        W29621   6.926   7.513  12.427 -0.0208 -0.0049 -0.2390
10088W        W29622   3.182  12.751  12.363 -0.0341  0.1470  0.0521
10089W        W29623   7.803  14.581  11.857  0.1548 -0.1458 -0.1418
10090W        W29624  11.608  15.517   2.150 -0.3044  0.0388  0.0511
10091W        W29625  19.132  11.047  11.834 -0.3739  0.3616 -0.2179
10092W        W29626   7.185   6.935  11.168  0.0608 -0.0397 -0.0763
10093W        W29627   8.903   1.170  12.985  0.1590  0.0275  0.0788
10094W        W29628  15.402  14.022   0.561 -0.1312  0.0674 -0.0750
10095W        W29629  10.328   6.525  13.761 -0.3513 -0.3015 -0.2138
10096W        W29630  16.444   6.003   4.441  0.0240  0.1711  0.0669
10097W        W29631  19.005   1.053  13.275  0.2200 -0.0311 -0.0181
10098W        W29632  10.393  12.239  12.977 -0.1384  0.4837  0.1675
10099W        W29633  16.201   1.956  12.508  0.3872  0.1524 -0.1734
10100W        W29634  18.668  12.820   4.863 -0.1037 -0.0801 -0.5625
10101W        W29635   4.055   2.860  11.068  0.1360 -0.0248 -0.2900
10102W        W29636   3.349   1.076  11.924  0.1215  0.4067  0.3315
10103W        W29637   3.004  10.001   3.076 -0.6746 -0.1672  0.2027
10104W        W29638  16.858  18.224   1.793 -0.2541  0.1244  0.1239
10105W        W29639  15.509   8.872   1.774 -0.1120 -0.2342 -0.0676
10106W        W29640   2.626   8.918  10.954 -0.1199  0.0732 -0.1789
10107W        W29641  16.836  16.092  11.564 -0.3556 -0.3701  0.1419
10108W        W29642   6.784  13.697   2.085  0.0462 -0.1442  0.0066
10109W        W29643   9.492  15.063   2.476 -0.1902 -0.2767 -0.0927
10110W        W29644   1.091   3.723   2.288  0.2215 -0.2587 -0.1249
10111W        W29645  11.303  13.326  14.261  0.5654  0.1614  0.0645
10112W        W29646  12.947   3.872   2.654 -0.0711  0.0742 -0.0980
10113W        W29647   1.969   7.172  11.609  0.1149  0.3496  0.1170
10114W        W29648  13.619   7.589   0.097  0.0475  0.2740 -0.1117
10115W        W29649  10.079   6.368  13.415 -0.0256  0.1632  0.3903
10116W        W29650   0.232  17.849   1.986  0.3200 -0.2306 -0.1062
10117W        W29651   8.938   0.704   3.648  0.0071  0.0835 -0.1629
10118W        W29652  17.964  13.014  14.020  0.0019 -0.1231 -0.0252
10119W        W29653   3.635  12.776   0.191 -0.1736 -0.0282 -0.2259
10120W        W29654   4.408  10.784  13.734 -0.1138 -0.0845  0.0494
10121W        W29655   3.601   2.301   2.196 -0.0793 -0.1653  0.4885
10122W        W29656   9.692  13.525   1.095 -0.2426  0.2670  0.0986
10123W        W29657  19.439  14.921  10.954 -0.0422  0.0837  0.0797
10124W        W29658  17.617  14.680   0.007 -0.0265 -0.2957 -0.2773
10125W        W29659   2.510   8.326  13.403 -0.3629  0.1623  0.0122
10126W        W29660  12.317  15.334   3.713  0.1189  0.1704  0.0930
10127W        W29661  18.082   6.664   0.153 -0.0290  0.0363 -0.0511
10128W        W29662  10.851   5.476   2.685 -0.0854 -0.3178  0.3578
10129W        W29663  18.043  11.680   1.616 -0.0538 -0.0756 -0.1134
10130W        W29664  14.248  12.273   0.568  0.1972  0.2167  0.2200
10131W        W29665  12.664  14.235  13.247  0.0916  0.0905 -0.2015
10132W        W29666   2.733   1.060  11.638  0.0744 -0.0357 -0.0434
10133W        W29667   0.517  12.155  10.660  0.2401 -0.2187  0.0207
10134W        W29668   5.981   6.707   1.853  0.0689 -0.0248  0.1610
10135W        W29669   7.453   1.575  12.471 -0.1208 -0.2509 -0.1320
10136W        W29670   7.307   6.552  10.840  0.0208  0.1356  0.0186
10137W        W29671   8.012   7.449  11.297 -0.0716 -0.1046  0.0952
10138W        W29672   0.135  19.030  13.821  0.0028 -0.0770 -0.0973
10139W        W29673  17.652   0.600   3.324  0.1908  0.2821  0.0192
10140W        W29674  13.953   4.846  12.907  0.1116  0.0152  0.0296
10141W        W29675  18.322   2.397   3.318 -0.3333 -0.2035 -0.2770
10142W        W29676   4.863  15.242   0.457 -0.0129 -0.2848 -0.0768
10143W        W29677   8.150   6.221  14.208  0.0060 -0.1112 -0.1477
10144W        W29678  19.300   4.340  11.962 -0.2189 -0.1136 -0.0953
10145W        W29679  17.822   4.568   0.594  0.0560 -0.1857  0.1590
10146W        W29680  13.003   7.060   0.092  0.1883 -0.4000  0.0887
10147W        W29681  17.015   7.274   4.002  0.1278  0.2695 -0.0450
10148W        W29682  14.766  12.022   1.878 -0.2599  0.0390 -0.0484
10149W        W29683   7.634  15.334   2.273  0.1795 -0.4167 -0.0018
10150W        W29684  10.756   1.961   4.503 -0.1602 -0.1032 -0.0405
10151W        W29685   2.097  18.212   1.602 -0.1754 -0.0354 -0.2072
10152W        W29686  16.607   6.974  11.384  0.1699 -0.3273  0.1623
10153W        W29687  15.784   2.689  10.981  0.0835  0.0244 -0.3185
10154W        W29688  12.067  10.603   0.513 -0.0047  0.2069  0.3305
10155W        W29689  17.065   9.106  10.386 -0.0999  0.2082  0.3158
10156W        W29690   4.292  14.688  10.627 -0.1240 -0.1267  0.0517
10157W        W29691  18.938   0.735  11.703 -0.2417 -0.0459 -0.0656
10158W        W29692  14.590   4.386   0.111 -0.0032 -0.0992 -0.2206
10159W        W29693   9.957   8.228   3.580 -0.0230 -0.2580  0.1197
10160W        W29694  12.914  16.024   2.571 -0.3008  0.1260  0.1976
10161W        W29695   9.915  19.208   1.590 -0.0213  0.1381  0.1920
10162W        W29696   9.043  10.691  10.998  0.2021  0.0901 -0.0091
10163W        W29697  13.138  10.235  12.168  0.0235  0.0747 -0.0272
10164W        W29698  13.065   1.576  10.377 -0.2265 -0.2638 -0.0042
10165W        W29699  11.495   7.391   4.149 -0.2683  0.2958 -0.0687
10166W        W29700  12.207   4.155  12.544 -0.0370  0.0526  0.0088
10167W        W29701   4.236   2.313  13.069  0.0124 -0.1501  0.1970
10168W        W29702  13.640   4.863  14.253  0.1108  0.6664 -0.0030
10169W        W29703   8.758   1.145   4.483  0.1313  0.3007 -0.1645
10170W        W29704   7.807   7.886  14.175  0.1417 -0.0936 -0.1532
10171W        W29705  16.017   0.479   4.035 -0.7131  0.1832  0.1128
10172W        W29706   3.279  18.306  12.666  0.4268 -0.1024 -0.0915
10173W        W29707   0.524  15.512   0.490 -0.0464 -0.4280 -0.2683
10174W        W29708  16.761   0.139   0.174 -0.2273  0.1101  0.0908
10175W        W29709  19.318  14.693   2.439 -0.0300  0.0723 -0.2182
10176W        W29710   0.049   1.335  10.778  0.0276  0.1206 -0.0141
10177W        W29711   5.319  15.401  11.454  0.2517  0.1954 -0.2470
10178W        W29712   0.645  19.420  13.793 -0.2893  0.0348  0.0131
10179W        W29713   0.454  11.616  10.814  0.0857  0.1921 -0.2291
10180W        W29714  16.391  13.051  10.252 -0.1825  0.2781 -0.0337
10181W        W29715   8.599  18.943   1.324 -0.0566  0.1343  0.3217
10182W        W29716   9.583   4.307   9.961  0.1074 -0.1650  0.1697
10183W        W29717   5.180   5.740  11.994  0.0539  0.1591  0.2536
10184W        W29718  13.874  10.026  10.653 -0.2537 -0.1920  0.0707
10185W        W29719  13.641   8.797   3.192 -0.0780 -0.2111 -0.1632
10186W        W29720  11.246   5.660   0.913 -0.1004  0.0977 -0.0326
10187W        W29721  17.988  15.604   2.196 -0.3608 -0.1388  0.1231
10188W        W29722  13.393   9.047   3.580 -0.0269 -0.0931  0.3017
10189W        W29723  11.930  12.461  10.360  0.0595  0.0051  0.3281
10190W        W29724  14.883  18.202   0.268 -0.1202 -0.0033 -0.2415
10191W        W29725  15.473   5.617   3.362 -0.0206 -0.0966 -0.1221
10192W        W29726   1.520   7.492   3.160 -0.0615 -0.0542 -0.3315
10193W        W29727   6.997  10.575   1.226 -0.0850  0.2430 -0.3028
10194W        W29728   6.845  10.626   3.635  0.2799 -0.1995 -0.0954
10195W        W29729   7.957   2.902   2.949  0.1905  0.2920 -0.1260
10196W        W29730   1.099  19.110   1.038 -0.0508  0.1354  0.0552
10197W        W29731   3.742  11.092   1.727 -0.1131  0.1470  0.0710
10198W        W29732  10.348  13.878  13.750  0.1151 -0.2001 -0.4539
10199W        W29733  17.654  15.296  10.881 -0.0078 -0.3817 -0.0527
10200W        W29734  18.601  16.761   0.715  0.1194 -0.2635 -0.2352
10201W        W29735   2.738   9.261  12.384  0.1407  0.1217 -0.0366
10202W        W29736   3.440   0.656  12.312  0.1706  0.3306  0.3001
10203W        W29737   5.333   9.498   1.552 -0.0434  0.0046  0.2339
10204W        W29738  11.862  13.420   1.165 -0.3117  0.2412  0.1195
10205W        W29739   2.210  17.843   0.656  0.2145  0.1720 -0.2636
10206W        W29740   9.457   8.469   1.417  0.0450 -0.2492 -0.0882
10207W        W29741  18.820   0.276  14.279  0.0113  0.2163  0.0839
10208W        W29742   9.838  14.484  11.047  0.0193  0.0888  0.1920
10209W        W29743   6.840  16.701  13.992  0.1049  0.0176  0.0658
10210W        W29744   2.056  13.500   3.351  0.0924  0.3636 -0.0921
10211W        W29745  15.937   8.369  10.817  0.1750  0.1298 -0.1896
10212W        W29746   1.332  10.862  12.381  0.2725  0.2571 -0.2719
10213W        W29747  14.929  19.170   3.213 -0.1819  0.1714 -0.2585
10214W        W29748  17.790   2.375   2.316 -0.0795 -0.0169  0.0451
10215W        W29749   2.739  11.731  14.114  0.0866 -0.0694 -0.0081
10216W        W29750  12.056   7.368   4.099 -0.0055 -0.2095 -0.0825
10217W        W29751   2.389   1.571  14.205  0.1878 -0.0815  0.3225
10218W        W29752   4.765   8.149   2.861  0.1752 -0.0739  0.1340
10219W        W29753   1.605  14.205   0.066  0.0472 -0.2263 -0.1670
10220W        W29754  15.815   8.620  13.956 -0.1028 -0.0934  0.2979
10221W        W29755  12.503   7.005   0.404 -0.0034  0.1155 -0.3462
10222W        W29756   7.050  19.151  13.723 -0.2809  0.0083 -0.2282
10223W        W29757  13.299   5.768  13.732 -0.0107 -0.0005  0.0362
10224W        W29758  11.193   6.524  13.226  0.2004 -0.2799  0.3550
10225W        W29759  12.013  12.177  12.155  0.1711 -0.0615 -0.2616
10226W        W29760   8.942   2.510   0.215 -0.1527  0.0264  0.0866
10227W        W29761  10.560  12.308  11.578 -0.1012 -0.4416 -0.1932
10228W        W29762   8.210   5.939  12.336  0.1342 -0.0418  0.2911
10229W        W29763  15.752  18.539   3.297  0.0478 -0.0423 -0.2783
10230W        W29764   2.199   4.410   4.302 -0.4513 -0.0117  0.0466
10231W        W29765   3.538   8.460  13.476 -0.1351  0.1446 -0.0442
10232W        W29766  18.512   1.491   1.980  0.0445  0.2848 -0.1710
10233W        W29767  18.149   4.633   1.461  0.4615  0.0871  0.0581
10234W        W29768  15.868  10.078   2.147  0.3032  0.1347 -0.1109
10235W        W29769   8.885  18.805  12.968  0.0561 -0.0481 -0.0686
10236W        W29770  10.422  11.412  10.329  0.1013  0.0813  0.1627
10237W        W29771  13.637  11.270  11.385  0.4668  0.0792  0.0546
10238W        W29772   7.666   0.038  13.320 -0.1216  0.1302  0.2655
10239W        W29773  12.288  12.243   1.927 -0.0405 -0.1237  0.1469
10240W        W29774  11.220   4.148   1.248  0.0681  0.0091  0.1788
10241W        W29775  12.137  14.211  10.818 -0.0266 -0.2039 -0.1703
10242W        W29776   8.867   0.155  10.562  0.1132 -0.0582  0.0662
10243W        W29777  18.782   7.390  11.359  0.4571  0.0403  0.2204
10244W        W29778   9.594   0.355   4.069 -0.1267  0.1402 -0.0857
10245W        W29779   0.408   5.107   3.528  0.2464  0.0098  0.0772
10246W        W29780  10.311   4.249   0.820 -0.1550 -0.2290 -0.2729
10247W        W29781   2.295  18.334   3.287  0.3627  0.1465  0.0994
10248W        W29782   1.569   1.023   0.376 -0.1281 -0.1038 -0.1525
10249W        W29783   0.197   1.733   2.419 -0.1039 -0.0672  0.0392
10250W        W29784   7.663  16.519  12.316 -0.3253 -0.0034  0.1088
10251W        W29785   9.713  17.469  10.841 -0.1528  0.0561 -0.3904
10252W        W29786  16.940  14.238  10.774  0.3913  0.1497 -0.0013
10253W        W29787   4.523   3.865   2.384 -0.0530 -0.0264  0.4183
10254W        W29788   7.274   2.555   0.007 -0.1201  0.0205  0.2414
10255W        W29789   5.694  15.516   1.618  0.0527 -0.1181  0.0409
10256W        W29790   1.346  10.130  13.313 -0.1894 -0.2504  0.0115
10257W        W29791   7.991  18.605  13.484  0.1828 -0.0781 -0.0433
10258W        W29792   8.385  15.937   2.022  0.0740  0.1969  0.0932
10259W        W29793  18.243   8.727   3.422 -0.0255  0.0711  0.4067
10260W        W29794   3.785   3.598   4.362 -0.1434 -0.2769  0.1929
10261W        W29795  13.348   4.799   3.933 -0.0453  0.2333 -0.0490
10262W        W29796  14.605  13.735   2.844  0.0885  0.0585 -0.2269
10263W        W29797  10.048   5.474   3.106 -0.0945 -0.1479  0.1286
10264W        W29798  17.708   1.273   3.733 -0.0436  0.1154  0.1994
10265W        W29799  15.088   5.983  11.837 -0.1477  0.0815 -0.1087
10266W        W29800   1.899  16.983   3.796 -0.1997  0.0167  0.0092
10267W        W29801   1.148   5.722   0.780 -0.0597  0.0120 -0.0771
10268W        W29802   7.475   9.279  13.111 -0.1558 -0.2775 -0.1293
10269W        W29803  17.914  10.636  11.841 -0.3565  0.0213  0.2390
10270W        W29804  11.687  12.725   2.578  0.0358  0.0348 -0.1759
10271W        W29805  17.409  13.687  10.682 -0.1166 -0.2197  0.0682
10272W        W29806   6.349   3.225  12.846  0.0165 -0.1772 -0.3487
10273W        W29807  11.773  17.863   1.555 -0.2741 -0.1391 -0.2137
10274W        W29808  15.193   6.924  10.433 -0.0195  0.1168  0.0717
10275W        W29809   2.833  13.334   0.065  0.1995 -0.1931 -0.2560
10276W        W29810  11.209   1.934   3.781 -0.0572 -0.0485  0.1763
10277W        W29811  19.465   4.617  13.550 -0.1548  0.2062  0.0310
10278W        W29812  11.992  17.989   4.221  0.0794 -0.3404 -0.4258
10279W        W29813  18.842  15.266  12.541 -0.2173 -0.1146  0.0239
10280W        W29814  18.614  18.028   0.208  0.4596  0.0001 -0.1541
10281W        W29815   0.261  12.171   0.973 -0.0345 -0.3186  0.0508
10282W        W29816   9.285   3.546   3.527  0.2753 -0.3281  0.3142
10283W        W29817  16.197  15.242   1.613  0.0557 -0.0356 -0.0266
10284W        W29818   5.760  17.437   1.169 -0.1677  0.2585  0.0231
10285W        W29819   4.480   5.801   2.979 -0.0115  0.1365 -0.0123
10286W        W29820  14.986  15.966   1.704 -0.1102  0.3519  0.2199
10287W        W29821   4.992   0.795  10.621 -0.0722  0.0622  0.2680
10288W        W29822   9.648  17.581   0.981 -0.2178  0.1201 -0.1427
10289W        W29823   0.360  15.778   0.081 -0.0525 -0.0494 -0.0057
10290W        W29824   1.826  15.654  12.372  0.3357  0.0383 -0.2340
10291W        W29825   2.220   7.136   1.610  0.1105  0.1339 -0.0312
10292W        W29826  12.856   5.295   3.124  0.1869  0.1118 -0.0510
10293W        W29827   8.372  12.913   2.053  0.0710  0.1919 -0.3418
10294W        W29828   6.138  11.448   1.284  0.2515 -0.0921 -0.1192
10295W        W29829   4.362   3.891   1.931  0.0352  0.1304  0.1847
10296W        W29830  17.049  11.504   1.942  0.1651 -0.2131  0.0585
10297W        W29831   4.290   9.292   0.982 -0.1598 -0.0564  0.0373
10298W        W29832   1.542  10.299   3.938  0.0238 -0.0168 -0.1278
10299W        W29833  10.205  12.754   0.691  0.1212 -0.4337 -0.0412
10300W        W29834  11.421   4.422  11.214 -0.0613 -0.0095 -0.0393
10301W        W29835   0.604   7.417  13.874  0.0631  0.0936 -0.0589
10302W        W29836  14.578  18.822   1.862 -0.1105  0.2124 -0.3557
10303W        W29837  13.830   6.005  12.045  0.0023  0.1369  0.0004
10304W        W29838   6.540  12.061   1.058 -0.0444 -0.0087 -0.1723
10305W        W29839   7.755  18.580   2.120  0.0491  0.1931  0.0790
10306W        W29840   2.868   8.094   1.806 -0.1943  0.2828  0.1440
10307W        W29841   1.474  12.737   3.558  0.1967  0.1371  0.3027
10308W        W29842  19.249   6.561  12.373 -0.1477  0.1212 -0.1222
10309W        W29843   8.835   2.782  13.486  0.3055  0.2355 -0.4362
10310W        W29844   2.668  14.489  12.642 -0.0703  0.0345  0.2728
10311W        W29845   6.132   4.944  13.583  0.0874  0.1353  0.2068
10312W        W29846  13.292   1.125  10.444  0.3019  0.0662  0.2382
10313W        W29847   2.945  19.344  12.058 -0.1081 -0.0158  0.0960
10314W        W29848   1.235  19.033  11.594  0.2492  0.0912  0.0761
10315W        W29849  12.408  11.381   0.872  0.1578  0.2116 -0.0445
10316W        W29850   1.701  13.299  14.116  0.2123 -0.0529 -0.2501
10317W        W29851  14.425  13.590   0.460  0.2145  0.1361 -0.1357
10318W        W29852   7.009  11.550   3.627  0.1652 -0.0678  0.0039
10319W        W29853  17.001  11.328  10.658 -0.4242  0.0846 -0.2602
10320W        W29854   6.700  13.189   1.995 -0.0472  0.2061 -0.3379
10321W        W29855  15.879  14.636   3.270 -0.2750  0.1017 -0.0533
10322W        W29856  13.284  15.302  11.941 -0.0076  0.0023 -0.1321
10323W        W29857  11.634  14.097  13.198  0.2670  0.0386 -0.1629
10324W        W29858   3.611  15.083  13.167 -0.1054 -0.1914  0.3271
10325W        W29859  18.719   9.939   1.567  0.0745  0.2470  0.3411
10326W        W29860   5.011   3.146  12.467  0.1636  0.2381 -0.1965
10327W        W29861   3.633   7.620  13.597 -0.2399  0.2699 -0.2427
10328W        W29862   3.573  13.930   3.381  0.4691 -0.1020 -0.1673
10329W        W29863  13.719  12.298  12.712 -0.0027  0.0748 -0.0369
10330W        W29864   5.457   2.342  13.654 -0.0903  0.0913 -0.0343
10331W        W29865   6.105  13.177   1.237  0.0760 -0.1763  0.0814
10332W        W29866   1.464   5.217  11.482  0.1727  0.2307 -0.2730
10333W        W29867  18.874   7.635  13.356 -0.0605 -0.3578  0.0473
10334W        W29868  12.345  19.458   2.713 -0.0885 -0.0269  0.2132
10335W        W29869  18.661   5.151   1.727  0.0692 -0.0261  0.0626
10336W        W29870   2.098  17.589   9.552  0.2256 -0.2756  0.1353
10337W        W29871  14.539   3.819  11.042 -0.1241  0.1602 -0.0012
10338W        W29872   4.446  15.292   0.144 -0.1304  0.0942 -0.1433
10339W        W29873   7.557  11.229  11.210  0.1259  0.0617  0.0751
10340W        W29874  16.278  17.933   2.721  0.1460 -0.2451 -0.0077
10341W        W29875   7.569  17.487  10.087 -0.0396 -0.3525 -0.1089
10342W        W29876   1.523  13.414   3.096 -0.0970  0.0586 -0.1342
10343W        W29877  19.084  16.020   0.751 -0.0195 -0.0215 -0.2741
10344W        W29878  14.369   6.245   3.783 -0.0423  0.1786  0.0326
10345W        W29879  11.214   0.409  13.892  0.1907 -0.1400  0.3163
10346W        W29880  11.719  16.152   1.605 -0.1007 -0.0828  0.1209
10347W        W29881   5.998   4.926   0.141  0.0715 -0.0602 -0.1068
10348W        W29882   3.784  14.165  12.835  0.2405  0.0771  0.0249
10349W        W29883  10.805  15.906   1.428  0.0845 -0.0312  0.1107
10350W        W29884   2.265  13.011   3.607 -0.0249 -0.1443 -0.1712
10351W        W29885  16.922  11.079  11.880 -0.3315 -0.1609 -0.1690
10352W        W29886  16.926  19.085   1.020  0.1452  0.0532  0.0928
10353W        W29887  11.273   5.782  12.786 -0.1837 -0.0036 -0.0123
10354W        W29888   8.309   6.018   2.374  0.0764 -0.0955 -0.2528
10355W        W29889   4.427   8.395   2.451  0.1766  0.0552 -0.1620
10356W        W29890  18.853   7.564   4.573  0.0293  0.1138  0.0404
10357W        W29891   1.792  15.042  12.395  0.0769  0.4761  0.0412
10358W        W29892   2.118   7.718  10.933  0.2002  0.1201  0.0034
10359W        W29893  18.999  10.166   1.090 -0.0621 -0.4498  0.0203
10360W        W29894  15.745   1.338   1.748 -0.1321 -0.0562 -0.0967
10361W        W29895   0.977  14.073  13.336 -0.2264 -0.0491  0.3647
10362W        W29896   6.884   5.771  12.260  0.1071 -0.3239  0.1785
10363W        W29897   5.904   1.458  13.140  0.0300 -0.2910 -0.0201
10364W        W29898   2.566   3.373   0.235  0.0496 -0.0161 -0.1373
10365W        W29899   5.911   2.492  13.943  0.0143  0.0429 -0.0006
10366W        W29900  19.157   3.245  13.770 -0.0070 -0.6233 -0.0715
10367W        W29901   7.783  16.953   1.478 -0.2743  0.2687 -0.1295
10368W        W29902  12.787   8.205   0.763 -0.2299  0.0146  0.1448
10369W        W29903   6.888   8.612  11.032  0.1385 -0.0975 -0.1599
10370W        W29904   0.064   7.310   3.017  0.3385 -0.2833  0.0233
10371W        W29905   2.968  14.278   1.549 -0.0300 -0.0160 -0.0274
10372W        W29906   0.908   4.220  12.654  0.1127  0.0867 -0.5825
10373W        W29907   3.202   1.425  13.677 -0.0433  0.0733  0.0890
10374W        W29908   6.480   2.784  13.131  0.1412 -0.0543  0.0137
10375W        W29909  18.190   6.745  10.521 -0.0783  0.2676  0.1176
10376W        W29910   1.076   8.693  13.150  0.1098 -0.1681  0.3892
10377W        W29911   6.880   8.042   0.651  0.3165 -0.0563 -0.0201
10378W        W29912  16.644  19.161   1.934  0.3821  0.0693 -0.2169
10379W        W29913  19.056  13.598  10.277  0.0164 -0.2055  0.0607
10380W        W29914   3.818   0.147   0.220  0.1519 -0.0314  0.0831
10381W        W29915   0.527  12.306  11.872 -0.0543  0.1409  0.0233
10382W        W29916   6.951  18.728  13.401  0.0854  0.2662  0.0883
10383W        W29917   8.029  19.036  13.744 -0.1872 -0.0773  0.1056
10384W        W29918   0.380  11.298  13.332  0.1259  0.1676 -0.2820
10385W        W29919  11.920  14.463   4.553 -0.0109 -0.0897 -0.2123
10386W        W29920  10.142   6.796   0.181 -0.0709 -0.1555 -0.0243
10387W        W29921  19.053   7.217  13.888 -0.1435 -0.0326  0.2284
10388W        W29922  15.137   1.213  10.467  0.5889 -0.0469  0.0273
10389W        W29923  14.183  12.630  11.009  0.0864  0.1511 -0.0636
10390W        W29924  14.321   7.669  13.127  0.2736 -0.0120 -0.0782
10391W        W29925   9.362  18.575   1.044 -0.2355 -0.2453 -0.0174
10392W        W29926  15.283   7.278   1.777  0.1288  0.0794  0.1315
10393W        W29927  15.571  11.583  12.065  0.1381  0.1527  0.2118
10394W        W29928   0.022  11.275  14.182  0.1857  0.1260 -0.2019
10395W        W29929   3.974  10.572  13.113 -0.0317 -0.3343  0.0190
10396W        W29930  11.831   1.162   2.666 -0.0842  0.0797 -0.1291
10397W        W29931   4.040  19.356   1.332  0.1147  0.1281  0.2824
10398W        W29932  14.454  12.599   1.515 -0.2019 -0.0428 -0.0906
10399W        W29933   7.593  14.507   0.029 -0.2920 -0.2736  0.0703
10400W        W29934  15.033   8.355  12.901  0.1351  0.0093  0.0781
10401W        W29935  10.468   9.336   0.595 -0.1615 -0.1125 -0.0865
10402W        W29936  16.642   1.281   3.839 -0.0432  0.0948 -0.1334
10403W        W29937  12.225   4.742  13.637  0.1249  0.1532  0.1506
10404W        W29938   2.522  14.332   1.712  0.0377 -0.0432  0.1513
10405W        W29939  16.108  15.862   0.763  0.0296  0.0602 -0.2828
10406W        W29940  11.948   4.857   1.391  0.0065  0.3393  0.1013
10407W        W29941  15.814  10.197   1.105  0.0023  0.0405 -0.0245
10408W        W29942   3.484  18.720   2.799  0.3088  0.2340 -0.1574
10409W        W29943  17.321   6.805   1.245  0.3667 -0.4623  0.1720
10410W        W29944  11.172   6.944   3.616  0.3528  0.0801  0.2073
10411W        W29945  17.299   0.891   4.509  0.0854  0.0752  0.0768
10412W        W29946   8.841   7.899  10.358  0.0689  0.1706  0.1525
10413W        W29947  10.689  16.545   0.740  0.1483  0.0511 -0.0821
10414W        W29948  15.616  19.031  11.056  0.1848  0.2644 -0.0260
10415W        W29949   5.210  11.367   1.821  0.1064  0.1335  0.0156
10416W        W29950   9.216  12.442  13.621 -0.0203 -0.2241  0.0975
10417W        W29951  18.895  13.135  11.525 -0.0478  0.0633 -0.0405
10418W        W29952  14.378   2.525   0.014  0.0964  0.2250 -0.1719
10419W        W29953   1.140   6.548   2.715 -0.3271 -0.0638  0.1584
10420W        W29954   5.600  12.298   1.340 -0.0509  0.2722 -0.0053
10421W        W29955  14.545  18.278   1.186  0.2348  0.0849 -0.1191
10422W        W29956  17.302   1.033   0.357  0.0370  0.3628 -0.5597
10423W        W29957   7.755   6.883   1.350  0.1262  0.1609 -0.1561
10424W        W29958   4.256  17.152  11.902  0.0319  0.0246  0.0710
10425W        W29959  10.064   9.353  12.193  0.0581 -0.0643 -0.1155
10426W        W29960  16.456  19.356  13.864 -0.0469  0.0433 -0.1197
10427W        W29961   0.083   3.824   0.579  0.1732 -0.3949  0.0095
10428W        W29962   8.475   4.380  10.780  0.1849 -0.0115  0.0611
10429W        W29963   2.855   0.077   0.527 -0.2635  0.1897 -0.2795
10430W        W29964  19.515   5.901   3.296  0.0423  0.0344  0.2299
10431W        W29965  15.749  18.771  10.614 -0.1457 -0.0105  0.2672
10432W        W29966   4.338   9.705  11.020 -0.3105 -0.0974  0.4282
10433W        W29967  14.183  16.153   1.289 -0.4120 -0.0367 -0.0708
10434W        W29968   9.658   8.392  11.782 -0.0613  0.1678 -0.0475
10435W        W29969  15.458   7.547   1.276 -0.2431 -0.2235  0.0114
10436W        W29970  15.069  10.022   3.192 -0.0032 -0.2945 -0.1226
10437W        W29971  18.615  13.775   2.567 -0.2206  0.0751  0.0400
10438W        W29972   7.083  18.691  11.049  0.2135 -0.0846 -0.3542
10439W        W29973  10.761  19.122   2.686 -0.2074  0.1227 -0.3123
10440W        W29974   3.435   9.898  12.427 -0.0237 -0.1995 -0.0013
10441W        W29975  18.386  18.479  13.645  0.1929  0.0911 -0.1952
10442W        W29976   3.803   2.593  11.533  0.4391  0.1098 -0.0552
10443W        W29977  13.751  14.346   0.768  0.0149 -0.0633  0.5286
10444W        W29978  19.005   1.910  10.161  0.0272  0.1805 -0.0579
10445W        W29979   1.198  16.800  12.594  0.2906  0.2876  0.1910
10446W        W29980  13.973  10.244   0.789 -0.2406  0.1917  0.0790
10447W        W29981   8.378   2.604  13.734 -0.0228  0.1405 -0.0822
10448W        W29982   6.566   2.942  11.316 -0.0959 -0.0988 -0.0500
10449W        W29983  16.988   9.079   3.550 -0.0514 -0.1889 -0.0364
10450W        W29984   3.042  10.574   0.685  0.1274 -0.0265 -0.1535
10451W        W29985   3.616  14.192  13.649  0.2646 -0.0149 -0.2368
10452W        W29986   0.648   4.804   3.936 -0.7172 -0.1352 -0.0828
10453W        W29987   9.861   2.556   1.683 -0.0187  0.0532 -0.0400
10454W        W29988   3.929   3.587  13.058 -0.0243 -0.1385 -0.3487
10455W        W29989  18.939  17.783  13.632  0.0215 -0.0689 -0.1492
10456W        W29990   0.661   6.356  12.072  0.0787 -0.0457  0.1131
10457W        W29991   3.346  10.118   3.421 -0.1766 -0.0603 -0.1427
10458W        W29992   0.358   0.794  11.327 -0.0341  0.1098  0.1109
10459W        W29993   5.199  14.567   2.282  0.0045  0.1021 -0.2088
10460W        W29994  10.464  12.021   2.319  0.0052 -0.0200 -0.4191
10461W        W29995  15.086   6.017   3.262  0.0496 -0.0884 -0.1256
10462W        W29996  14.093   1.261   0.352 -0.0980  0.1860 -0.0481
10463W        W29997  18.316  15.549  13.515  0.3063 -0.1488 -0.2913
10464W        W29998  17.751   7.046   0.255  0.1745  0.2802  0.0138
10465W        W29999  14.263   1.599   1.210  0.1430  0.3431  0.2676
10466W        W30000   4.417   4.488   1.979  0.0423 -0.0703 -0.0860
10467W        W30001   6.216  18.174  13.901  0.0108  0.4633 -0.1429
10468W        W30002   4.682   3.201   0.408  0.2991 -0.0528  0.0384
10469W        W30003  19.298  10.662  10.311  0.2356 -0.2462 -0.0296
10470W        W30004   6.849  16.188   3.316  0.2237 -0.1704  0.0822
10471W        W30005  13.185   7.379   0.972  0.1370  0.1481 -0.1224
10472W        W30006  13.350  19.530  10.899 -0.1318  0.1290  0.0097
10473W        W30007   3.704   5.111   4.075 -0.0303  0.3711 -0.0301
10474W        W30008   9.664   0.385   3.187  0.0264  0.2028 -0.1512
10475W        W30009  14.167   4.252  13.625 -0.1366 -0.2362 -0.0926
10476W        W30010  11.168   2.026  10.687 -0.1772  0.0735 -0.2857
10477W        W30011   0.665  17.578   2.961  0.0291  0.1761 -0.0693
10478W        W30012  17.710  17.421  11.989  0.1729  0.0314  0.0506
10479W        W30013   5.068  15.633  10.952  0.0940 -0.0768  0.0102
10480W        W30014   3.990  13.887  12.431  0.0747 -0.1458  0.2082
10481W        W30015  11.140  19.036   1.702  0.0782 -0.0271  0.2110
10482W        W30016  10.615  14.111  12.911 -0.1662 -0.0329  0.1252
10483W        W30017  13.883  18.161   2.322 -0.0066  0.1450 -0.0746
10484W        W30018  12.061   0.930   1.711  0.1804 -0.1468 -0.3418
10485W        W30019   9.020  11.938  13.177  0.1821 -0.1235 -0.0774
10486W        W30020   9.124   9.059   3.932  0.2722  0.1854  0.1139
10487W        W30021  14.108   5.244   1.645 -0.2648 -0.0729 -0.0462
10488W        W30022  17.401   2.361  13.862 -0.1465 -0.2501  0.0412
10489W        W30023   4.909  13.646  13.772  0.0472 -0.1671  0.0076
10490W        W30024   6.630  17.731  13.197  0.1671 -0.0812 -0.0822
10491W        W30025   4.680  15.925   1.943  0.0548 -0.0245  0.0457
10492W        W30026  14.372  16.724   1.118 -0.1160  0.1204 -0.1124
10493W        W30027   0.841  17.624   2.451 -0.0830 -0.0325  0.0474
10494W        W30028  16.792   3.489   3.000 -0.3833 -0.1067 -0.2641
10495W        W30029  10.058   8.672  11.543 -0.2332 -0.0222  0.1802
10496W        W30030   0.906   2.368   1.782 -0.2159  0.4431 -0.2182
10497W        W30031  13.567   0.367   3.847 -0.0248  0.1545 -0.3842
10498W        W30032  17.387   6.912  10.931  0.2578  0.2986  0.1665
10499W        W30033   5.156  17.332   1.196 -0.0423 -0.0802 -0.1418
10500W        W30034   7.281  11.097   9.681  0.1779  0.0627  0.0250
10501W        W30035   7.452   6.993   0.854  0.1282  0.1515 -0.1754
10502W        W30036   0.832  11.936   0.224 -0.0171 -0.1081 -0.2400
10503W        W30037  17.335  12.492   1.733  0.1669  0.0811  0.2172
10504W        W30038  18.662   6.583  10.553  0.1558  0.1728 -0.1764
10505W        W30039   6.853  16.344   2.803 -0.0577  0.0657  0.3973
10506W        W30040   8.736  14.598   2.929 -0.0602  0.1329  0.1684
10507W        W30041   2.705  18.136   2.987  0.2057 -0.0461 -0.2212
10508W        W30042  13.759   7.813  11.816 -0.0051 -0.1414 -0.2392
10509W        W30043   1.669   3.092   1.538  0.0969 -0.1577 -0.3966
10510W        W30044   8.719   5.980   0.869 -0.1557 -0.0869 -0.0449
10511W        W30045   5.528   5.737  11.006  0.2344  0.1331  0.1118
10512W        W30046  14.403  18.663  11.386  0.0693  0.0152 -0.1873
10513W        W30047  14.507  10.479  10.164 -0.0382 -0.4873  0.3029
10514W        W30048  15.127  12.688  12.637  0.0300 -0.0482 -0.0984
10515W        W30049  14.487   5.628  13.471 -0.0462 -0.0732 -0.1184
10516W        W30050   6.216  13.087   0.697 -0.0356 -0.0606 -0.0294
10517W        W30051   4.607   6.441  13.234 -0.1898  0.0586  0.0857
10518W        W30052  12.575  16.479   2.591 -0.0417  0.1477 -0.2021
10519W        W30053  18.339  12.036   3.195  0.0037  0.2403 -0.0827
10520W        W30054  19.426   9.034   9.786 -0.1400  0.0443 -0.0669
10521W        W30055  12.265  14.967  12.637 -0.2494 -0.2035  0.0878
10522W        W30056   8.716  16.984   1.975 -0.1285 -0.2000 -0.2222
10523W        W30057   3.664  12.764  10.944 -0.0996  0.1002  0.0034
10524W        W30058   2.612   5.481  12.984  0.2208  0.0874 -0.1625
10525W        W30059   4.498   5.541  11.314 -0.1442 -0.2588  0.0487
10526W        W30060   7.940   7.308   4.005  0.1801 -0.4158  0.0575
10527W        W30061  17.884  16.063  10.544  0.3310 -0.0542  0.2373
10528W        W30062   2.381  15.323   3.144 -0.0363 -0.1059  0.0323
10529W        W30063  14.505  17.209   0.996 -0.4015 -0.1118  0.0466
10530W        W30064   3.733  15.798   2.186 -0.1523 -0.0484 -0.1723
10531W        W30065  14.545   7.315  11.843 -0.1964  0.2136  0.1971
10532W        W30066   5.568  14.765  11.012 -0.2363 -0.1485 -0.3193
10533W        W30067  14.262  15.996  11.126 -0.1554 -0.0337  0.1100
10534W        W30068  13.433  19.318   3.902  0.1382 -0.1097  0.3917
10535W        W30069  14.972  16.254   2.587  0.1156  0.5298 -0.1411
10536W        W30070   4.376   4.723  12.727 -0.0017 -0.0774 -0.0772
10537W        W30071   6.002   8.660   3.151 -0.0337 -0.1341 -0.0694
10538W        W30072   9.161   7.157   9.135 -0.4136 -0.0225  0.0755
10539W        W30073  14.332  17.065   1.878  0.0395  0.0024  0.2469
10540W        W30074  11.190   3.961   5.025 -0.1915 -0.2293  0.4901
10541W        W30075  17.782  12.590   2.990  0.0605  0.2622 -0.2428
10542W        W30076   4.318   7.444  12.269  0.0625  0.0635  0.2209
10543W        W30077   0.268   6.400   0.830 -0.1421 -0.0801 -0.3341
10544W        W30078   2.348   7.560  12.162  0.3346 -0.1515  0.0985
10545W        W30079  16.479  12.461  11.479 -0.1826 -0.1909 -0.0187
10546W        W30080   6.163  19.187   1.911  0.1198  0.2067  0.3421
10547W        W30081  12.785  13.517   4.620 -0.1057  0.3890  0.0118
10548W        W30082   4.493  13.380  11.776 -0.2607  0.1363 -0.1522
10549W        W30083  13.526  10.827  11.643 -0.0252 -0.1794 -0.0524
10550W        W30084  11.591   8.473  11.095  0.1741 -0.1307  0.0065
10551W        W30085  18.378   2.148  10.823 -0.0184 -0.1520 -0.0375
10552W        W30086  16.497   2.066  13.655  0.3231  0.4908  0.5228
10553W        W30087   0.173   6.861   3.124  0.0787  0.0817 -0.0637
10554W        W30088  11.994   9.294  12.646 -0.1278  0.1546  0.1421
10555W        W30089   8.527   9.061   4.681  0.0660  0.0035 -0.1076
10556W        W30090  18.120  17.675   2.641 -0.4986  0.0333  0.0892
10557W        W30091   9.093   8.431  12.579  0.1529  0.0447  0.0409
10558W        W30092  15.410  15.308   3.735  0.1036 -0.0967  0.2225
10559W        W30093   4.670   9.390  11.972  0.0075  0.0906 -0.3414
10560W        W30094   3.376  16.047   1.812  0.2728  0.2519  0.0367
10561W        W30095   5.821  10.783   2.836 -0.1200  0.1674  0.3131
10562W        W30096  11.730  10.512   1.793 -0.1731 -0.1257 -0.0527
10563W        W30097  18.869   4.163  11.849  0.1020 -0.3024  0.3973
10564W        W30098   9.593  14.089  12.622  0.0020 -0.1344  0.1877
10565W        W30099  12.438  13.850  12.941  0.0394 -0.1784 -0.1503
10566W        W30100  13.959  12.349   3.459  0.4110 -0.2170  0.0226
10567W        W30101  10.592  14.888   1.600 -0.0264 -0.1051  0.1925
10568W        W30102   2.531   9.507  10.950 -0.0080 -0.0392 -0.2824
10569W        W30103   6.221  16.629  12.907  0.2368 -0.1627  0.3451
10570W        W30104  13.190  16.784   9.561  0.0150  0.1753 -0.2712
10571W        W30105   4.873  17.756   3.985 -0.2313 -0.1834  0.0948
10572W        W30106   2.036   9.420  13.640  0.0133 -0.1785 -0.0615
10573W        W30107  14.062  12.208   3.013  0.1561  0.0530  0.2107
10574W        W30108  16.026  11.286   0.801  0.2880 -0.1877 -0.3612
10575W        W30109  16.687   5.348  13.435  0.0647 -0.0130 -0.0359
10576W        W30110   9.970  18.124  12.658  0.0615  0.0304  0.0850
10577W        W30111   4.096   2.253   0.959 -0.1760 -0.2339  0.1203
10578W        W30112  10.922   2.915   1.419  0.1915 -0.0875 -0.1982
10579W        W30113   4.687   5.731  10.694  0.0834  0.1923  0.0587
10580W        W30114   1.088   5.168   2.106 -0.2388  0.1554  0.0132
10581W        W30115  11.620   2.120   3.600 -0.1292 -0.2710  0.1859
10582W        W30116  17.776   3.286  11.723  0.0885 -0.1389  0.0765
10583W        W30117   6.715  11.633   1.853 -0.1233  0.0013 -0.2372
10584W        W30118   3.049  11.518   2.272  0.2161 -0.1115 -0.0364
10585W        W30119  14.982  16.370  13.319 -0.0070  0.1633 -0.0718
10586W        W30120   7.466   9.446  13.686  0.2178  0.0624  0.4376
10587W        W30121  18.682  13.094   0.169  0.1947 -0.0365  0.1376
10588W        W30122   3.311  18.797   1.691  0.1181 -0.2211 -0.0983
10589W        W30123  15.259   0.696  13.139 -0.0507  0.0860 -0.1113
10590W        W30124   5.897  18.911  10.263  0.4949  0.0297 -0.2270
10591W        W30125  17.391   3.158   4.176 -0.0416 -0.4098  0.0548
10592W        W30126  11.329   8.204   1.853 -0.1843  0.2787  0.0784
10593W        W30127  18.882  11.170   0.327 -0.0590 -0.2745  0.0678
10594W        W30128   9.509   5.814   0.543 -0.2778  0.2442  0.0010
10595W        W30129   5.857   3.651  11.912 -0.2125 -0.0615  0.0543
10596W        W30130  17.345   0.593   2.849 -0.0874  0.3601 -0.0036
10597W        W30131   8.088   8.091  12.256  0.0995 -0.0363 -0.1118
10598W        W30132   4.395  11.201   3.848  0.0254 -0.1460  0.0245
10599W        W30133   0.286  13.885  12.224 -0.2754  0.1755 -0.0762
10600W        W30134  10.976  11.820  13.700  0.1479 -0.0313 -0.2722
10601W        W30135   5.447  13.672   2.275 -0.1025  0.0403  0.2369
10602W        W30136  16.180  12.317   1.015 -0.2668 -0.0768 -0.1320
10603W        W30137   1.895  10.324  10.075  0.0059 -0.0846  0.4393
10604W        W30138   9.805  14.092  11.836 -0.1753  0.2235  0.1684
10605W        W30139  12.482  16.662  12.166 -0.0588  0.2407  0.3359
10606W        W30140  16.128   9.590  13.979 -0.1223 -0.1947  0.0542
10607W        W30141  17.716   3.858   2.389  0.0781  0.2813 -0.2239
10608W        W30142  14.308   3.922  11.495 -0.1876  0.1872  0.3279
10609W        W30143  12.562   1.193  13.651  0.0249 -0.0737 -0.0099
10610W        W30144  17.655   6.488  14.203 -0.0572 -0.1430 -0.2733
10611W        W30145   8.514  13.770  14.295  0.1943 -0.1343  0.2197
10612W        W30146   0.814  19.238  11.319  0.0632 -0.3321 -0.1273
10613W        W30147  19.533  10.004   1.822  0.0440 -0.0626 -0.5371
10614W        W30148  11.462   8.641   1.490  0.1718 -0.1584 -0.0152
10615W        W30149  14.629   0.491   3.713 -0.0360  0.0149  0.0566
10616W        W30150   1.547  12.218   4.752 -0.2218  0.1888 -0.2495
10617W        W30151  11.438  12.378   0.255  0.0340  0.1300  0.1027
10618W        W30152   1.863   5.099   0.576  0.1216 -0.1776 -0.3610
10619W        W30153  17.790  11.452  12.055  0.1687  0.2998  0.2262
10620W        W30154   4.497   9.965  10.628  0.1346  0.1991  0.1973
10621W        W30155  14.688   3.637  13.167 -0.0419 -0.3766 -0.2614
10622W        W30156   0.952   0.401   3.471  0.1537 -0.1058  0.2338
10623W        W30157  12.202   4.244   3.931 -0.0662  0.0076 -0.0176
10624W        W30158   4.899   9.381   0.533 -0.0692 -0.2238  0.1354
10625W        W30159   8.241   7.608  14.271  0.1764  0.0660  0.0412
10626W        W30160   9.669   5.787  12.360 -0.0356 -0.0748 -0.0634
10627W        W30161  17.758   6.468   1.004  0.1623 -0.1443 -0.3457
10628W        W30162   3.992   6.841   1.947 -0.3073 -0.1534  0.0155
10629W        W30163   7.147  16.303   4.524 -0.2708  0.4485  0.0031
10630W        W30164  14.117   3.346  14.015  0.0182 -0.2194  0.0326
10631W        W30165   8.924   1.378  13.515  0.0156  0.0424 -0.0084
10632W        W30166  10.500   3.416  12.989  0.1751  0.1868  0.0623
10633W        W30167   7.345  19.302   2.055 -0.2606  0.1472 -0.0205
10634W        W30168  18.465  15.033   4.344 -0.1618 -0.0272 -0.0203
10635W        W30169  12.071   9.891  13.245  0.1654  0.0179 -0.0859
10636W        W30170   1.450   7.084   2.788 -0.0446 -0.1659  0.4030
10637W        W30171  14.138  13.236  13.619 -0.0752  0.1066 -0.1611
10638W        W30172  16.334  11.639   2.507  0.0919  0.1171  0.0086
10639W        W30173  16.417   8.389  10.778  0.1435  0.0042 -0.2250
10640W        W30174  17.136   9.039   0.651  0.1039 -0.1493  0.0525
10641W        W30175   1.855  14.333   2.979  0.1528  0.0081  0.1005
10642W        W30176  16.292  12.565  12.261  0.0429  0.1853  0.0068
10643W        W30177   5.597   1.304  13.538 -0.2410  0.0789  0.0250
10644W        W30178  16.939   5.396   1.749 -0.1892  0.0463 -0.1025
10645W        W30179  11.935   0.875   0.766  0.2557 -0.1372 -0.3243
10646W        W30180   7.017   0.039   1.842  0.0364 -0.0188  0.2168
10647W        W30181   0.905  15.600   0.187 -0.1275 -0.0725  0.2402
10648W        W30182  14.684  13.313  10.579 -0.0932  0.1077 -0.0470
10649W        W30183   7.769  18.625   0.915 -0.0222  0.0241 -0.2411
10650W        W30184  16.578  18.621   1.737  0.1722  0.1650  0.0162
10651W        W30185  12.104   6.847  13.739 -0.0940  0.0858  0.0382
10652W        W30186  10.457   0.284  12.901 -0.0427  0.0209 -0.0682
10653W        W30187   3.852   8.680  12.676  0.0287 -0.2155 -0.0280
10654W        W30188   7.534   7.572   3.756  0.0427  0.1928 -0.0344
10655W        W30189  18.147   7.655  10.872  0.3001 -0.0975 -0.1063
10656W        W30190   8.726   6.030  11.694  0.0952 -0.1174 -0.2235
10657W        W30191  16.901   6.140   0.426  0.2833  0.0797  0.0225
10658W        W30192  16.590  11.356   2.115 -0.1299  0.1009 -0.2053
10659W        W30193  16.542   5.732   0.441  0.3083 -0.0446 -0.1600
10660W        W30194  16.989  11.871  13.165 -0.1829 -0.0980  0.1104
10661W        W30195   7.053   4.474  12.136 -0.0692  0.0506  0.1435
10662W        W30196   0.241  12.248   3.159 -0.1867  0.4765  0.0936
10663W        W30197   2.840   5.482  13.838  0.2970  0.2770 -0.1240
10664W        W30198   0.543   7.622   3.148  0.0923  0.0349 -0.1742
10665W        W30199   9.464  12.898   0.711  0.0736  0.1700 -0.1085
10666W        W30200  15.923   2.941   0.183 -0.1395 -0.3152 -0.0304
10667W        W30201   6.971   3.806   2.364  0.0093 -0.1100  0.1960
10668W        W30202   8.948  16.526   2.243 -0.0006 -0.1776  0.0744
10669W        W30203  16.080   1.873   1.369 -0.0007 -0.1038  0.4119
10670W        W30204   7.261  16.760  11.182  0.0187  0.1101  0.2152
10671W        W30205  16.526  17.446  13.073 -0.1817 -0.3977  0.1315
10672W        W30206   7.574  15.660   2.693  0.1750 -0.0101  0.4197
10673W        W30207  13.752  12.447  10.730 -0.2636 -0.0663 -0.0767
10674W        W30208   0.663   4.666   3.406  0.2624 -0.0799  0.0442
10675W        W30209  15.360  14.520   0.480  0.0382 -0.1286  0.0037
10676W        W30210   7.176  18.269  12.446  0.2523  0.1394 -0.3854
10677W        W30211   1.588  17.670  11.416  0.2385 -0.1292 -0.1728
10678W        W30212   8.710   0.073   1.451 -0.1153 -0.0821 -0.2494
10679W        W30213   5.825  14.342  12.093 -0.0025 -0.1651  0.1253
10680W        W30214   6.776   8.089  14.090  0.2538 -0.0322 -0.3222
10681W        W30215   1.471   3.467  11.225 -0.0183  0.5235 -0.1609
10682W        W30216  12.129  19.155   1.391  0.1229  0.2075  0.1296
10683W        W30217   4.191  10.470   5.082 -0.0792  0.0580 -0.0358
10684W        W30218  15.113  17.927  11.891 -0.1083  0.0380 -0.0194
10685W        W30219  12.802   0.177  12.500  0.0898  0.0104 -0.2144
10686W        W30220   3.043   0.942   9.228 -0.0923 -0.1816 -0.2240
10687W        W30221   9.759  12.908  12.978  0.1227 -0.1926  0.2922
10688W        W30222   6.125   0.587  13.688 -0.1525 -0.2471  0.0869
10689W        W30223   1.526  12.554  12.629 -0.0588  0.0441  0.3597
10690W        W30224  17.446   6.586  11.524  0.0739  0.1146 -0.0599
10691W        W30225  13.334   3.610  12.409  0.2887  0.0002  0.2627
10692W        W30226  19.282  11.891   0.904 -0.0901 -0.0280  0.1658
10693W        W30227   0.472   9.653  10.836 -0.2926 -0.0881  0.1430
10694W        W30228   5.890   4.894  11.946 -0.2466  0.0803 -0.1155
10695W        W30229   4.894   1.718  12.733 -0.1732  0.1272  0.1418
10696W        W30230   5.294   6.732  13.708  0.0651 -0.1440  0.0156
10697W        W30231  11.296  18.120   1.642 -0.2018  0.2064 -0.1912
10698W        W30232   0.177   2.149  14.179  0.3887 -0.1567 -0.0684
10699W        W30233   0.672   3.348   1.253 -0.1374  0.1121 -0.3449
10700W        W30234  12.363   2.887  10.658  0.4865 -0.1524 -0.1802
10701W        W30235   5.318   7.085  13.323  0.2219 -0.2724 -0.1138
10702W        W30236   5.659   0.373  12.480 -0.0752 -0.0597 -0.2278
10703W        W30237  15.947   8.630   2.581 -0.5370  0.2721  0.0987
10704W        W30238  16.648   1.663  12.634  0.1272 -0.2006  0.3779
10705W        W30239  15.911  14.058   3.229 -0.0456  0.3354 -0.1507
10706W        W30240  11.269   9.351  14.298  0.0977 -0.0001 -0.0856
10707W        W30241  14.431  14.522  12.625  0.1798  0.0714  0.0338
10708W        W30242  16.199  12.084   0.497  0.1137  0.1228 -0.1983
10709W        W30243  16.696   0.370  12.359  0.0765 -0.0211  0.2113
10710W        W30244  13.706  18.205  10.492  0.2552 -0.0743 -0.1059
10711W        W30245   8.859   9.033  14.283  0.0798  0.0536  0.2716
10712W        W30246  15.125   1.798  12.661 -0.1440  0.0565  0.1177
10713W        W30247   5.230  14.467  12.822 -0.1271 -0.0968  0.0497
10714W        W30248   9.833   0.153   1.791  0.2138  0.2166 -0.1325
10715W        W30249  14.541  13.901  13.096  0.2841  0.0832 -0.0536
10716W        W30250  17.203   3.797   2.880 -0.0449 -0.0088  0.3546
10717W        W30251  12.389   7.631   2.193 -0.1760 -0.1443  0.0751
10718W        W30252   6.555  18.006  10.735  0.0995  0.1524  0.0527
10719W        W30253  11.102  13.609  12.185  0.1227  0.0932  0.1741
10720W        W30254  18.467   5.563  14.274 -0.1609  0.1932  0.4265
10721W        W30255   7.535   6.548  13.260  0.0799  0.0687  0.0095
10722W        W30256   3.384  13.385  11.807 -0.2173  0.0498  0.2948
10723W        W30257  16.206   5.039   0.025 -0.3849  0.3701  0.2618
10724W        W30258  12.634  17.906   9.372 -0.0209  0.1095  0.0805
10725W        W30259  13.214   8.347  10.986  0.0941 -0.0411 -0.4897
10726W        W30260  18.810  12.706   0.860  0.4323 -0.0948 -0.1680
10727W        W30261   2.934  17.793   2.736  0.2261  0.1017 -0.0971
10728W        W30262   2.829  12.787   2.105 -0.1515 -0.1127  0.3414
10729W        W30263  18.214  12.871   2.934 -0.0710 -0.0780  0.0463
10730W        W30264   8.554  15.118   2.069  0.0783  0.0680 -0.2602
10731W        W30265  11.057  14.105   8.840  0.0346 -0.0321 -0.0687
10732W        W30266   8.802  18.708   4.422  0.1423  0.0182 -0.3079
10733W        W30267  16.653  18.398  13.269 -0.0816  0.1994 -0.2662
10734W        W30268  15.411  14.705  10.856 -0.1112 -0.3179 -0.0766
10735W        W30269  11.731   6.652   5.081  0.1730 -0.0122 -0.3354
10736W        W30270   9.628   4.917   0.589  0.0066 -0.0260 -0.0208
10737W        W30271   0.500  11.525   1.113  0.1120  0.0090 -0.2618
10738W        W30272   9.241   8.110  12.125  0.1436 -0.2322  0.0495
10739W        W30273  17.346   1.998  11.872 -0.1081 -0.1478  0.0184
10740W        W30274   7.083  10.042  12.820  0.0387 -0.1809 -0.1146
10741W        W30275  17.251   9.222  11.904 -0.0558  0.3101 -0.3061
10742W        W30276  18.592  10.525   0.122  0.3550  0.0250 -0.3461
10743W        W30277  10.354  18.107   0.617 -0.0906  0.1950  0.1149
10744W        W30278  12.120  19.060   3.503 -0.0369  0.0150 -0.0732
10745W        W30279  10.621   2.118  14.285 -0.2181 -0.1493 -0.1762
10746W        W30280   0.318   5.187  11.588  0.2098  0.3072 -0.1065
10747W        W30281   5.436   4.419  10.042  0.0350  0.1754 -0.3376
10748W        W30282  11.364   3.666   3.452  0.0466  0.2666  0.1145
10749W        W30283   1.025  12.662  13.366  0.2684  0.0341  0.0871
10750W        W30284  16.495   4.053  11.758 -0.0304 -0.0111  0.1148
10751W        W30285  15.351   8.505  11.039  0.0754 -0.2153  0.1456
10752W        W30286  16.218   5.483  13.579 -0.2897 -0.2261 -0.0498
10753W        W30287  17.741  13.344  10.462  0.1086  0.3690  0.2587
10754W        W30288   4.222   7.602   4.427 -0.2862 -0.1656 -0.0929
10755W        W30289  15.063  10.373   4.840 -0.1202  0.3963 -0.4440
10756W        W30290   2.748  16.782   1.781 -0.1989  0.3264  0.1340
10757W        W30291  14.932   5.912   4.283  0.2989 -0.3196 -0.0506
10758W        W30292  16.678   8.520   2.603 -0.0827  0.1397 -0.1946
10759W        W30293   1.248   1.050  12.212 -0.2847  0.3441  0.2012
10760W        W30294   4.067   7.852  13.615  0.0392  0.1813  0.1347
10761W        W30295  19.382   4.854   0.035 -0.0040  0.0228 -0.2176
10762W        W30296   1.626   4.273   9.792 -0.1172  0.1652 -0.3508
10763W        W30297   2.473  12.842  12.976 -0.2976 -0.3586 -0.0626
10764W        W30298   2.465   0.105  11.480 -0.2194 -0.1420 -0.2875
10765W        W30299  10.093  12.094  13.509 -0.0787  0.0797  0.2451
10766W        W30300  16.558   3.649   3.921  0.2115  0.0327 -0.0106
10767W        W30301   4.360   2.198   1.864 -0.2262  0.0592  0.1976
10768W        W30302  12.826  18.992  11.173 -0.2377 -0.0599  0.0535
10769W        W30303  15.809   3.342  13.967 -0.0423 -0.3355 -0.1789
10770W        W30304  19.374   7.397  13.505 -0.1940 -0.1089 -0.0434
10771W        W30305   7.074   2.303  10.133  0.0721  0.1373 -0.4695
10772W        W30306   7.971   0.759  12.657  0.6123 -0.0276 -0.0378
10773W        W30307   9.527  16.684   3.591 -0.0232  0.2479 -0.1349
10774W        W30308  11.850   5.542  14.044  0.4129 -0.2285  0.1915
10775W        W30309  16.478   1.699   4.188 -0.1423 -0.2897  0.0989
10776W        W30310  11.057  11.634   0.558  0.0197  0.3266  0.1894
10777W        W30311  10.918  12.357   1.583 -0.0412 -0.0463  0.1635
10778W        W30312   8.947  15.356  10.790  0.1879 -0.0201 -0.0850
10779W        W30313   8.497   8.697  14.165 -0.2136 -0.0335 -0.0318
10780W        W30314  16.017   3.287  12.002  0.0527  0.0789  0.3467
10781W        W30315   2.558  15.425  11.961  0.1276 -0.0053 -0.0274
10782W        W30316   0.835  16.546   2.938 -0.0779  0.1902 -0.0990
10783W        W30317   4.754  10.047   0.238 -0.0004 -0.0129 -0.2084
10784W        W30318   4.617   1.256  12.516  0.0856 -0.0212 -0.0124
10785W        W30319  13.475  15.496  10.687  0.0366 -0.5021 -0.2669
10786W        W30320  15.353   4.067   1.664  0.3691  0.0685  0.4895
10787W        W30321   4.084   6.395  13.138 -0.3335 -0.1025 -0.0210
10788W        W30322  15.207  17.674   2.962  0.6302  0.0571  0.0039
10789W        W30323   9.089  16.338   3.536 -0.1233 -0.0402  0.2335
10790W        W30324   1.668   7.980   3.230  0.4094 -0.1496  0.3086
10791W        W30325   9.145  18.555   2.578 -0.0694 -0.1583 -0.0167
10792W        W30326   5.364  12.903   3.238 -0.1523  0.0118 -0.2436
10793W        W30327   1.013   0.882   0.412 -0.0587 -0.1733 -0.2795
10794W        W30328  10.025  14.545  10.524  0.3888  0.2413 -0.0564
10795W        W30329  13.254   8.015  14.237  0.0448  0.1236 -0.0836
10796W        W30330  12.443  18.819   2.679 -0.1161  0.3620  0.3774
10797W        W30331  10.567   4.140  14.193 -0.4095 -0.2169 -0.0683
10798W        W30332  15.950   6.684  13.286 -0.1361  0.1756 -0.1443
10799W        W30333   3.242   3.736  12.000 -0.0242 -0.2763 -0.1765
10800W        W30334   2.999  18.156   3.679  0.2869  0.1096  0.0822
10801W        W30335  12.005   1.763  13.160  0.4407  0.0019 -0.3023
10802W        W30336   6.089  14.691  11.780 -0.0629 -0.3021 -0.3553
10803W        W30337   2.281  17.392   2.494  0.0443  0.2488  0.1639
10804W        W30338  19.381   5.754   0.970  0.2369 -0.1198  0.1417
10805W        W30339   8.278   6.319   2.789 -0.0383 -0.2880 -0.1678
10806W        W30340   0.732   0.964   2.050  0.2197 -0.0206  0.3773
10807W        W30341   4.038   6.824   0.542 -0.3351  0.1909  0.1219
10808W        W30342   4.403   6.178  10.523 -0.1668  0.0328  0.0318
10809W        W30343  13.828   7.150   0.337 -0.0257 -0.2563  0.2521
10810W        W30344  16.457  11.211  13.764 -0.1752  0.0890  0.0888
10811W        W30345  18.100   8.836   8.916 -0.1203  0.1482 -0.1463
10812W        W30346   9.838  18.742  12.074 -0.2111  0.1414 -0.1004
10813W        W30347  13.528  15.086   9.243  0.0481  0.2315 -0.2784
10814W        W30348   0.601   9.660   0.479 -0.2681  0.0134 -0.0721
10815W        W30349  10.798  13.291   1.363  0.2244 -0.1986  0.0712
10816W        W30350   6.074  17.483  11.502  0.0923 -0.2749 -0.0248
10817W        W30351   5.983  13.362  13.148  0.3040  0.1257 -0.1754
10818W        W30352  10.526  11.866   0.438 -0.1131 -0.0595 -0.3005
10819W        W30353   6.259   2.204   1.408  0.5627  0.2040  0.1753
10820W        W30354  16.167  14.873   2.927 -0.2069 -0.1577  0.0420
10821W        W30355  12.906   5.465  13.724  0.0847  0.0174  0.2238
10822W        W30356   9.146   6.533  14.017  0.1212 -0.0523  0.2405
10823W        W30357  14.653   8.410   3.066 -0.2092  0.1223 -0.0720
10824W        W30358   6.664  15.603   2.071  0.1026 -0.6145 -0.0903
10825W        W30359   4.731   0.075   4.465 -0.0362 -0.0737 -0.0312
10826W        W30360  12.381  15.092   3.223  0.0817  0.1083 -0.0141
10827W        W30361  15.329   5.935  11.340 -0.2289 -0.1171 -0.2504
10828W        W30362   4.984   8.369  13.165 -0.2413 -0.0079 -0.0327
10829W        W30363  11.022   7.636   4.302  0.2194  0.0274 -0.1680
10830W        W30364  17.465   3.553   1.581 -0.0821  0.2568  0.2086
10831W        W30365   1.454  14.352  11.641 -0.2104  0.1757 -0.2274
10832W        W30366  11.144  16.771  13.055  0.0759  0.3401 -0.1164
10833W        W30367   3.558   7.611   1.182 -0.2704 -0.1100  0.0835
10834W        W30368  16.744   4.237   4.011  0.2954 -0.1282  0.1546
10835W        W30369  16.366  14.769   1.415 -0.1029  0.1234 -0.2679
10836W        W30370   9.493   4.918  12.251 -0.0704  0.1959 -0.0596
10837W        W30371   7.343   2.049  10.518  0.4674  0.4249  0.5382
10838W        W30372   1.519   9.776   3.814  0.0782 -0.4025  0.4672
10839W        W30373   4.481   7.816   1.771 -0.1021 -0.1100  0.2357
10840W        W30374   7.369  17.149   1.216 -0.0396 -0.1003 -0.0383
10841W        W30375  17.135   2.059   2.850 -0.2063 -0.2115  0.1248
10842W        W30376   4.661   0.752   3.959 -0.1369 -0.2278  0.1716
10843W        W30377   7.346   1.242   1.765 -0.0652 -0.1697  0.2534
10844W        W30378  16.076   7.258   1.772 -0.0614 -0.1110 -0.0873
10845W        W30379  16.483   3.137  11.451 -0.0319 -0.1596 -0.1333
10846W        W30380   9.385   4.014   9.582  0.1759  0.0031  0.1715
10847W        W30381   9.820  19.471  13.509  0.3370  0.1365  0.2589
10848W        W30382  14.176  10.490  12.151 -0.0747  0.2891  0.0864
10849W        W30383  12.808  12.822  14.235 -0.0748  0.3699  0.3233
10850W        W30384   9.108   3.586   0.338  0.3798 -0.3103  0.0886
10851W        W30385  10.818  16.383   4.237  0.3123 -0.1189  0.2143
10852W        W30386   1.205   8.731  11.645 -0.1877 -0.0533  0.1564
10853W        W30387  11.748  16.487   2.910  0.2399 -0.0385  0.2029
10854W        W30388   0.652   4.463  10.661  0.2784  0.1251  0.3908
10855W        W30389   6.818  12.498  12.232 -0.0030  0.0812  0.0011
10856W        W30390   9.168   6.941   2.381  0.2130  0.0863  0.5011
10857W        W30391   5.649  11.426   5.699  0.1861 -0.4263  0.1735
10858W        W30392   3.358  19.019  13.390  0.0081 -0.0348 -0.0240
10859W        W30393  17.420  11.772   3.300  0.0321  0.1121  0.3139
10860W        W30394   4.076   0.464  10.806 -0.4728 -0.2974 -0.0617
10861W        W30395  12.758  15.528  14.341 -0.1716  0.1499 -0.1639
10862W        W30396  14.378  18.358   1.799 -0.0480 -0.0771 -0.1019
10863W        W30397  16.939   1.912  12.279 -0.1776  0.1509  0.3828
10864W        W30398  14.764   7.162  13.322 -0.2124  0.0725 -0.1040
10865W        W30399  16.962  13.927  13.639 -0.1209 -0.1659  0.3722
10866W        W30400   0.102  16.837   1.710  0.0005 -0.1936  0.0536
10867W        W30401  12.092   6.754  11.309 -0.0963  0.0095  0.1917
10868W        W30402  13.062   0.353   0.374 -0.0743 -0.1285  0.3497
10869W        W30403  12.870   0.087  11.507  0.1575  0.0927  0.1176
10870W        W30404  14.012  13.744  12.797 -0.3601 -0.0098  0.2497
10871W        W30405   4.608   9.874  12.732 -0.2033  0.2145 -0.0848
10872W        W30406  12.286  12.991   1.871  0.2445  0.3467 -0.0226
10873W        W30407   4.699   3.036  12.834  0.4310  0.2811 -0.0147
10874W        W30408   0.482   0.978  12.403  0.1573 -0.2994  0.1046
10875W        W30409  17.885  10.774  13.117  0.1966 -0.0227  0.3010
10876W        W30410  13.823   3.972  11.927 -0.0610 -0.1965 -0.4821
10877W        W30411   8.504  17.494   1.286 -0.0365  0.0357 -0.1545
10878W        W30412   3.632   9.884   3.081 -0.2935  0.0615  0.1806
10879W        W30413  18.840  12.960   1.514 -0.0373  0.1791  0.1085
10880W        W30414  14.069   2.656   3.876 -0.0982 -0.2422  0.1024
10881W        W30415   0.606  13.570   1.103  0.2839  0.0182  0.0171
10882W        W30416   2.871   1.493   3.122  0.0017 -0.0677 -0.2520
10883W        W30417   4.993   4.409  12.886 -0.2697 -0.0465  0.1477
10884W        W30418  11.631  18.439   0.490 -0.1408 -0.0129 -0.1742
10885W        W30419  10.481  11.092   0.740  0.1461  0.0151 -0.0577
10886W        W30420   5.125   1.286   2.219 -0.0243 -0.1826 -0.3011
10887W        W30421   2.089   9.387  13.082  0.0810 -0.1907 -0.2091
10888W        W30422   7.510   9.246  10.813  0.1172  0.0120 -0.1390
10889W        W30423   3.640   8.655   0.876 -0.1041 -0.1601  0.2438
10890W        W30424  13.359  11.646  10.242  0.1706  0.0679  0.2214
10891W        W30425   9.583  16.190   2.843  0.1413  0.1904  0.0588
10892W        W30426   4.041   3.883   0.487 -0.1787  0.0655 -0.0364
10893W        W30427   2.788   1.698   1.246  0.2037  0.3116  0.0626
10894W        W30428   3.083   3.521  11.462  0.2197  0.0673  0.0470
10895W        W30429  10.992  15.254  12.421  0.1698  0.0005 -0.1085
10896W        W30430  17.782   7.379   0.780 -0.0000  0.2370 -0.1976
10897W        W30431   5.772   8.064  11.142 -0.1688  0.0127 -0.1322
10898W        W30432   4.531  10.888   3.527  0.0293  0.1935  0.0921
10899W        W30433  11.318  11.977   2.305  0.0828 -0.0824 -0.3359
10900W        W30434  18.040  14.892  13.476  0.2317 -0.1528 -0.1737
10901W        W30435  18.738   8.396   2.691 -0.0016 -0.2168 -0.2714
10902W        W30436   7.876  16.531   2.291 -0.1970  0.0151  0.1066
10903W        W30437  12.389   4.322   3.482 -0.0873  0.1672 -0.0946
10904W        W30438  10.999   8.686   2.830  0.1074 -0.0497  0.0313
10905W        W30439   8.120   1.077   3.803 -0.2574  0.3452  0.1014
10906W        W30440   4.080  11.903   0.005 -0.1781 -0.0964 -0.0044
10907W        W30441  13.771  18.283   4.266  0.0200  0.2341 -0.0694
10908W        W30442  13.652  18.044  13.273 -0.1430 -0.0812 -0.3528
10909W        W30443   5.612   3.463  13.815 -0.4738  0.1588  0.2333
10910W        W30444  18.872  12.531  13.544  0.0817  0.4666 -0.0976
10911W        W30445   4.090   5.312  11.087 -0.1663  0.1961  0.0944
10912W        W30446   1.209  10.081   0.621  0.0250 -0.1840 -0.3488
10913W        W30447   1.167   0.425  12.601  0.0932  0.0398  0.1321
10914W        W30448  16.959  15.244  13.359  0.2887  0.0696  0.1189
10915W        W30449   0.382   5.904   1.077 -0.0275 -0.1985  0.1943
10916W        W30450  13.036  11.063  13.302 -0.0077  0.1878  0.1078
10917W        W30451   5.975   3.023   1.745  0.0749 -0.3247  0.0504
10918W        W30452  18.418   8.471  13.289  0.1261 -0.0269 -0.1324
10919W        W30453   6.586   1.737   1.553 -0.1079 -0.2014  0.0196
10920W        W30454   3.550  11.158  13.495 -0.0945 -0.0061 -0.2337
10921W        W30455  15.259   3.676   2.391  0.0853  0.0725 -0.2256
10922W        W30456  13.567  16.498  11.807  0.0796  0.1812  0.1088
10923W        W30457   9.151   9.714  12.098 -0.0567 -0.1805  0.1240
10924W        W30458   2.626  17.093  11.692 -0.0928  0.1486  0.0968
10925W        W30459  12.986  12.206   0.651 -0.0310 -0.5272  0.0840
10926W        W30460   5.567   9.018  12.299  0.4159  0.0045 -0.0176
10927W        W30461  18.033   4.644  13.198  0.0999 -0.2620  0.0766
10928W        W30462  10.041   5.790   2.121 -0.0600 -0.2225 -0.0656
10929W        W30463   1.810   6.784  10.838 -0.1792  0.0192  0.2150
10930W        W30464  16.671   2.198   2.837  0.2919 -0.0428 -0.0453
10931W        W30465  13.461   8.302  11.526 -0.2883 -0.2915  0.2626
10932W        W30466  13.433  13.927  12.408  0.3800  0.2832  0.2825
10933W        W30467   2.216  16.379  11.991 -0.1339  0.0487 -0.0032
10934W        W30468   9.966  19.515   0.048  0.2254 -0.1665 -0.1044
10935W        W30469  18.743  16.462  13.694  0.2048 -0.4165 -0.0801
10936W        W30470   0.581  16.712   3.334 -0.0899  0.1655 -0.2753
10937W        W30471   9.127  13.861   1.968  0.0786 -0.1840  0.3983
10938W        W30472   5.922  10.429   9.749 -0.0264  0.1606  0.1746
10939W        W30473  14.221  15.800  11.895 -0.0705  0.0214  0.0791
10940W        W30474   0.229  14.331   1.617 -0.1603 -0.0793 -0.1383
10941W        W30475   3.943  19.268  13.085  0.2765 -0.2662 -0.1270
10942W        W30476  17.829  14.789   4.226 -0.1057  0.0273  0.1317
10943W        W30477   2.691  16.351  10.855 -0.0940  0.1144 -0.1940
10944W        W30478   0.029  18.911  12.312  0.0794  0.1706  0.1256
10945W        W30479  14.476   5.564   0.007 -0.0303  0.1137 -0.0237
10946W        W30480  13.808  19.159   0.934 -0.1664  0.0021 -0.2182
10947W        W30481   8.939   5.647  11.124  0.2186  0.1118  0.0821
10948W        W30482  14.344   0.011  13.732 -0.1686 -0.1050  0.0213
10949W        W30483   1.049   7.416   3.047  0.1816 -0.0105 -0.0273
10950W        W30484   9.539   0.101  11.488 -0.2828  0.1104  0.1486
10951W        W30485   8.816   8.728   2.830  0.1344 -0.1052  0.0542
10952W        W30486   9.413   4.589   0.345  0.3163  0.1064  0.0343
10953W        W30487   3.207  11.962   2.521 -0.0585  0.2777  0.0791
10954W        W30488  14.890  17.484  10.617 -0.4435  0.0031  0.1543
10955W        W30489  13.734   8.159   1.633 -0.1135  0.1768 -0.1595
10956W        W30490  13.460   2.486   0.045  0.2143 -0.1986 -0.2487
10957W        W30491  15.947   2.714   9.662 -0.0745  0.0768  0.4257
10958W        W30492   9.620   2.768  10.486  0.0846  0.0216  0.2141
10959W        W30493   6.021  12.871  11.729 -0.1952 -0.3701 -0.0864
10960W        W30494   9.919   6.493   2.849 -0.2270 -0.0455 -0.3331
10961W        W30495  12.032   4.008  13.094 -0.0522 -0.1208 -0.0101
10962W        W30496   6.919  14.176   2.231 -0.2340 -0.0477 -0.0276
10963W        W30497   9.536  17.015  10.526 -0.0674 -0.1216  0.2647
10964W        W30498   7.812   5.505  14.130  0.5310 -0.2905 -0.2120
10965W        W30499  16.463   6.580  13.320 -0.3720 -0.2183  0.0522
10966W        W30500   4.621  17.057   3.345 -0.0811 -0.0731 -0.1689
10967W        W30501   0.230   1.014   0.534 -0.0266  0.0335 -0.0048
10968W        W30502  14.397  13.412   2.582 -0.0593  0.4935  0.3817
10969W        W30503   3.601   6.957  12.608  0.0135  0.2093  0.0075
10970W        W30504  18.904  13.634  10.764  0.0724  0.0983  0.4412
10971W        W30505   5.374  16.404   2.555 -0.1830 -0.3953 -0.0876
10972W        W30506   6.799  12.767   3.647 -0.1915  0.3897  0.3648
10973W        W30507   0.095  19.071  11.341 -0.0766 -0.2252  0.0352
10974W        W30508   2.733  10.988   3.053  0.1734  0.1824 -0.2009
10975W        W30509  11.843   0.508  10.968 -0.0631  0.0638  0.0303
10976W        W30510   2.219   1.539  13.725 -0.0298  0.1422 -0.3011
10977W        W30511  12.010  15.252   2.315  0.1106 -0.3732 -0.0487
10978W        W30512   7.538  12.626  12.698  0.0421  0.1819  0.1186
10979W        W30513  13.979  15.282  13.932 -0.3448 -0.0530 -0.0192
10980W        W30514  18.881   0.121   3.392  0.2903  0.2695  0.2134
10981W        W30515  15.857  17.141  10.994  0.2309 -0.2022 -0.1279
10982W        W30516  11.839  14.937   0.146 -0.1198  0.4213 -0.0944
10983W        W30517   2.608   0.766   3.084  0.2106 -0.2521 -0.0534
10984W        W30518   2.110   5.017   3.134  0.1568 -0.1666 -0.2645
10985W        W30519  18.109   3.125  11.129 -0.3732 -0.1402  0.1272
10986W        W30520   0.165  14.767  11.845  0.1186  0.0053  0.0030
10987W        W30521  10.715   3.119   4.317 -0.0713 -0.0110 -0.1565
10988W        W30522  13.451   3.866   3.633  0.0109 -0.1020 -0.2338
10989W        W30523   0.558  14.574   9.326  0.0863 -0.1883 -0.0687
10990W        W30524  11.467  10.886   1.655 -0.3128  0.2924 -0.2454
10991W        W30525  10.087  10.872  13.215  0.0847  0.1913  0.0984
10992W        W30526   2.325   8.900   2.685  0.0155  0.1933 -0.0745
10993W        W30527   1.356  11.326   1.369 -0.2474 -0.1970  0.0169
10994W        W30528  19.535  15.129   2.446 -0.0332  0.1531  0.1550
10995W        W30529  14.230   1.267  13.777  0.0999 -0.0304 -0.0827
10996W        W30530  15.809  17.061   1.749 -0.2407 -0.3692 -0.0657
10997W        W30531   0.417   1.589   3.543  0.0888  0.0701  0.0027
10998W        W30532  11.029   2.640  12.540 -0.1736  0.0430 -0.1396
10999W        W30533  13.889  15.280   0.934 -0.0427 -0.1692  0.1464
11000W        W30534   8.483  17.146   2.522 -0.0646  0.0133 -0.1001
11001W        W30535   8.067  14.376  10.340 -0.0123  0.3462  0.0009
11002W        W30536   4.685   6.181  13.883  0.2094 -0.1421  0.2546
11003W        W30537   2.079   1.252  14.347  0.0238  0.2278  0.1421
11004W        W30538  10.161   9.979   2.495  0.2363  0.2573  0.0197
11005W        W30539  14.640  15.199  10.680  0.0970 -0.3316 -0.1869
11006W        W30540  13.002  14.655  10.485  0.0803 -0.2098 -0.0142
11007W        W30541   0.806  12.335   0.949  0.0753  0.2114  0.1233
11008W        W30542  11.155   5.394   4.731 -0.2752 -0.0083 -0.3391
11009W        W30543  17.697  17.852  13.586 -0.2760 -0.2063 -0.1817
11010W        W30544  10.798  17.095   3.085  0.0004 -0.1645  0.2625
11011W        W30545  14.882  11.302  12.574  0.1412  0.1217  0.2054
11012W        W30546  14.584  14.902   1.225  0.0298  0.0477  0.4262
11013W        W30547  15.682   6.120  12.044  0.2372 -0.2159 -0.1583
11014W        W30548  10.616   0.358  13.766  0.2205 -0.1198  0.1111
11015W        W30549   9.637  17.262  11.844 -0.1438 -0.1550  0.2027
11016W        W30550   6.532   6.536   9.324 -0.0806 -0.0021 -0.0936
11017W        W30551  14.207   9.634  12.656 -0.0568 -0.0313 -0.2244
11018W        W30552   0.520  11.930   0.618 -0.1385  0.3235  0.0505
11019W        W30553  11.194   3.142  12.490 -0.2330 -0.3349  0.0029
11020W        W30554  18.504   2.394  12.956 -0.1446 -0.0692 -0.1869
11021W        W30555  14.024   8.305  11.883 -0.0469  0.2190 -0.2977
11022W        W30556   8.981   4.250  12.314 -0.3705 -0.0339  0.2149
11023W        W30557  13.077   3.094   2.761 -0.1645 -0.3845  0.4016
11024W        W30558  13.037  10.751  12.223 -0.0352 -0.0400 -0.0538
11025W        W30559   5.445  15.514  12.701  0.1148  0.0071  0.0928
11026W        W30560   2.040   4.768   0.073 -0.1651 -0.0340  0.1462
11027W        W30561   6.412  13.832   3.816 -0.3917 -0.0925 -0.0239
11028W        W30562  18.409   2.689  11.302 -0.0824 -0.1785 -0.0836
11029W        W30563   6.779   2.612   0.094  0.1437 -0.3243 -0.2455
11030W        W30564  13.593   8.502  13.098 -0.1296 -0.0671  0.2530
11031W        W30565   9.240   9.319  10.804  0.3626  0.2565  0.4178
11032W        W30566  12.909  13.248  10.829  0.0340 -0.1515  0.0513
11033W        W30567   3.922   3.214   1.480  0.1160 -0.2890 -0.1970
11034W        W30568   3.097  14.933   4.267  0.0479  0.1865  0.0403
11035W        W30569   5.344   1.380   3.954  0.2581  0.1038 -0.0734
11036W        W30570   9.096  17.637   1.082 -0.1168 -0.0347 -0.0392
11037W        W30571  18.538   6.920  13.900 -0.1753 -0.0628  0.0058
11038W        W30572  11.269  12.051   0.671  0.2039 -0.0227 -0.0662
11039W        W30573   5.215   4.324   3.154  0.0464 -0.0280  0.0236
11040W        W30574   7.733   4.409   4.106 -0.0177  0.1857 -0.2424
11041W        W30575  15.037   1.460   0.987  0.3225 -0.4042  0.0622
11042W        W30576  13.026  14.486  12.969 -0.0952 -0.1262  0.3283
11043W        W30577   9.835   5.004  11.884  0.1258  0.0177  0.1062
11044W        W30578  17.303  10.594   2.299  0.1073 -0.1135  0.1799
11045W        W30579  13.085  15.723   2.181 -0.0320 -0.1767 -0.3187
11046W        W30580   2.669  19.197  11.693 -0.0787  0.2488  0.0711
11047W        W30581  10.952   5.884  13.209  0.0960 -0.1899 -0.1292
11048W        W30582   4.459   9.098   0.498 -0.0393 -0.2610 -0.0282
11049W        W30583  16.342   8.566   1.368  0.1994 -0.0193  0.1245
11050W        W30584  11.699   4.285   1.202  0.1636  0.0636  0.0482
11051W        W30585   9.653   9.695  12.283 -0.1830 -0.2316 -0.0453
11052W        W30586   4.930  10.717  14.162 -0.2688 -0.2027  0.3479
11053W        W30587  11.029  18.448   1.065  0.0325  0.3123 -0.0233
11054W        W30588   2.664   1.003   1.101 -0.1782  0.3254  0.1104
11055W        W30589   1.067  11.997   0.714  0.2869 -0.0632  0.0798
11056W        W30590  14.643   3.124  12.433 -0.0383  0.1144 -0.0229
11057W        W30591   6.702   0.123  11.614 -0.1485 -0.1422  0.0018
11058W        W30592   5.664  11.713   2.781 -0.0756 -0.0965 -0.4122
11059W        W30593  17.874  15.853  13.575  0.0019 -0.1129 -0.0490
11060W        W30594   7.429   3.402   0.867  0.2970 -0.1168  0.0961
11061W        W30595  17.608   2.308  13.400 -0.1059 -0.2086 -0.1026
11062W        W30596   1.671   4.830   0.993  0.3294  0.1202 -0.1037
11063W        W30597   4.991   3.804   0.593  0.2596 -0.1752 -0.1638
11064W        W30598  13.344   5.830  10.926  0.1541  0.0518  0.0274
11065W        W30599  11.098  19.339  13.362  0.1818  0.3976 -0.0526
11066W        W30600   6.443  17.882   2.114 -0.0218 -0.1493  0.3357
11067W        W30601   0.998   9.047   1.271  0.1827 -0.0118  0.0648
11068W        W30602  17.512  18.588   3.596  0.0713 -0.0241  0.2337
11069W        W30603  14.615  14.180   0.552  0.0077 -0.2189 -0.0415
11070W        W30604  11.890   7.629  14.143 -0.1502 -0.1109  0.4703
11071W        W30605   0.555   2.488  10.651 -0.1480  0.2794 -0.1458
11072W        W30606  13.082  11.862  11.210  0.0473 -0.4342 -0.1116
11073W        W30607   1.799  11.527   3.899 -0.2504 -0.0910  0.0766
11074W        W30608  10.200  13.242   1.847  0.0474  0.0330  0.0180
11075W        W30609   7.686  17.420   3.648  0.1936 -0.2481 -0.1787
11076W        W30610   3.507   5.106   1.435  0.0662  0.1750  0.2798
11077W        W30611   3.211   5.693   2.661 -0.3007 -0.0174 -0.2771
11078W        W30612   7.386   2.527   0.490  0.1495  0.0477  0.0779
11079W        W30613   8.587  19.216   3.756 -0.0307 -0.1441 -0.1673
11080W        W30614  15.749  16.063   2.198  0.1100 -0.1259 -0.1614
11081W        W30615  14.555  19.296  12.401 -0.1102  0.1998  0.1618
11082W        W30616  18.831   7.607  11.803 -0.0125 -0.1992 -0.1002
11083W        W30617  13.093  10.522  11.752  0.2684 -0.1070  0.1601
11084W        W30618   0.696  18.466   2.325 -0.0559  0.0306 -0.4126
11085W        W30619  11.952  13.785  12.944 -0.3694  0.1967 -0.1327
11086W        W30620   4.325   8.174  11.297 -0.1324 -0.1007  0.2847
11087W        W30621  11.579   0.963  10.758  0.1248 -0.0387  0.1798
11088W        W30622  18.334  15.436   0.991 -0.0011 -0.0981  0.0605
11089W        W30623   5.775  16.140   2.900  0.3364  0.1514  0.0755
11090W        W30624   4.228   9.789  13.612  0.0189 -0.0293 -0.1811
11091W        W30625   4.496   5.279   1.099 -0.0609  0.0918  0.0269
11092W        W30626  13.863  10.775  14.249  0.0426  0.1715 -0.0533
11093W        W30627  12.439   8.031  10.649  0.1124  0.1009 -0.1058
11094W        W30628  10.263   4.874   2.415 -0.0981 -0.1651  0.0616
11095W        W30629  19.288  12.511  11.882 -0.1200 -0.0010 -0.1562
11096W        W30630   5.084   1.156   1.489 -0.0852  0.1985  0.1550
11097W        W30631   3.757  12.543   2.684  0.1501 -0.0916 -0.1910
11098W        W30632   9.399  17.593   4.973  0.1732  0.0846  0.2197
11099W        W30633  10.877   8.719   2.273  0.1000  0.2511 -0.1520
11100W        W30634  18.641  10.015   3.332 -0.0276  0.0686 -0.0640
11101W        W30635   4.491   2.794   3.567 -0.1623  0.1659 -0.2732
11102W        W30636  13.371  10.234   4.038  0.0017  0.2497  0.2608
11103W        W30637   2.688   1.841   0.656  0.0925  0.3375  0.0035
11104W        W30638  15.849   1.802  13.103  0.2040 -0.3010 -0.1401
11105W        W30639  18.102  11.004   2.830 -0.0982 -0.0679 -0.2160
11106W        W30640  11.711   0.195  13.877  0.1289  0.3322 -0.0106
11107W        W30641   0.550  18.702   0.291  0.0412  0.0852 -0.2930
11108W        W30642  18.440  12.108  10.901  0.2745 -0.1460  0.1137
11109W        W30643  14.306   7.053   2.482  0.0967 -0.0142  0.1825
11110W        W30644  11.727  19.026   3.021  0.2363  0.3261  0.2534
11111W        W30645   4.268  17.760   9.981  0.1042  0.0507  0.0366
11112W        W30646   5.836   3.093  10.274  0.1992 -0.3239 -0.0174
11113W        W30647  16.518  13.667  12.882 -0.0958  0.3787 -0.0693
11114W        W30648  11.053   3.369  10.579 -0.3829  0.0840  0.3854
11115W        W30649  13.885   5.211   0.824 -0.5258 -0.2470  0.0637
11116W        W30650  16.680  10.856  13.452 -0.0014 -0.1332 -0.1056
11117W        W30651   5.229   3.890   3.894  0.2504  0.1810  0.3286
11118W        W30652   2.740  10.029  12.784  0.0468  0.0801 -0.2032
11119W        W30653   9.022  13.631   0.118 -0.0300  0.1772 -0.2073
11120W        W30654  19.315  13.447   0.731 -0.0007 -0.1031 -0.0332
11121W        W30655   6.579  17.340   2.922 -0.1949  0.1447  0.0774
11122W        W30656   6.162  15.630   1.794 -0.1939 -0.0267  0.1158
11123W        W30657  12.986  14.419  10.059 -0.1745 -0.0355 -0.3903
11124W        W30658  11.701  15.100  10.788  0.0341 -0.0625 -0.2089
11125W        W30659  18.380  14.713   2.143 -0.0088 -0.1052  0.0330
11126W        W30660   9.135   6.246  12.014 -0.0224  0.2976  0.1347
11127W        W30661   2.534   5.352  12.048  0.1452  0.0706 -0.1298
11128W        W30662  19.474  14.740  13.168 -0.2078 -0.0905 -0.2508
11129W        W30663   5.558   9.906   4.401 -0.0695  0.1281 -0.0849
11130W        W30664  18.682   6.783  10.069  0.2909  0.0557  0.2595
11131W        W30665   8.281  14.494   0.523 -0.3757  0.0664 -0.3232
11132W        W30666  18.414   0.856  11.970 -0.2816 -0.0094  0.2289
11133W        W30667   8.205   4.983  13.166 -0.0473 -0.0109  0.0672
11134W        W30668  11.599  10.798  12.298  0.0734 -0.2566 -0.1107
11135W        W30669   8.007  17.553  13.846  0.2109  0.0055 -0.2194
11136W        W30670  18.842  19.194   0.247  0.2543  0.0723  0.1013
11137W        W30671   3.201   1.930  11.620  0.0331  0.3179 -0.0665
11138W        W30672  18.930  17.397  13.175  0.0436  0.1421  0.1461
11139W        W30673   3.981   7.650   9.294 -0.1679  0.0919 -0.0730
11140W        W30674  16.854   8.591   0.568 -0.1205 -0.0306 -0.0186
11141W        W30675   2.022  16.410   1.135  0.0123 -0.0705 -0.2840
11142W        W30676  11.081  12.983   3.304  0.1211  0.2871  0.1799
11143W        W30677   2.024  10.644   0.493 -0.1721 -0.0455 -0.1348
11144W        W30678   4.589   1.765  11.192  0.0641 -0.1600 -0.4094
11145W        W30679   9.063   9.681   1.519 -0.1574 -0.1643  0.0565
11146W        W30680   6.756  14.732   0.558  0.0318  0.1678 -0.0121
11147W        W30681   1.800  16.878  10.026  0.3195 -0.0970  0.4255
11148W        W30682   5.323   3.491   1.136  0.1867  0.0965  0.1173
11149W        W30683   8.095  13.149  10.045  0.3790  0.1962 -0.2349
11150W        W30684   7.059   4.929  13.548  0.1078 -0.0602 -0.0224
11151W        W30685   7.177  14.447   1.727  0.3145 -0.3559 -0.1663
11152W        W30686  19.240  11.974  13.653  0.1541 -0.0156  0.3947
11153W        W30687  10.534   5.783  12.624 -0.3813 -0.0150  0.1134
11154W        W30688   4.058  10.441   2.856 -0.0529 -0.1404  0.0009
11155W        W30689   4.938   3.574  10.130  0.1855  0.1847  0.2802
11156W        W30690  13.321   7.643   3.776  0.2149 -0.0919  0.0002
11157W        W30691   2.504   8.020   2.653 -0.0437 -0.2526  0.0413
11158W        W30692  11.252   9.359  11.285 -0.0405  0.1606  0.1187
11159W        W30693  18.722  13.604  13.042 -0.4597  0.1892 -0.2129
11160W        W30694  17.955  16.641  11.476 -0.1541 -0.1866 -0.3004
11161W        W30695  18.270   8.538   2.179 -0.0123 -0.4123  0.0927
11162W        W30696   3.830  13.373  10.534 -0.0981 -0.1158 -0.0770
11163W        W30697   1.373  11.268  12.730  0.0407 -0.1818 -0.1523
11164W        W30698  19.420  14.218   2.051  0.0668  0.0028 -0.0784
11165W        W30699  18.183  18.058   1.058  0.0550 -0.0160 -0.2416
11166W        W30700   7.310   5.132  14.151 -0.0486 -0.1600 -0.0027
11167W        W30701  10.030   4.541   1.186 -0.2511  0.0008 -0.1970
11168W        W30702   6.631   3.331  10.672 -0.0537 -0.2320 -0.3130
11169W        W30703   6.181  11.698   1.967  0.1264 -0.0609  0.0523
11170W        W30704  11.796   0.956  12.637 -0.0460  0.3745  0.2055
11171W        W30705  10.578   1.262   2.997 -0.1188  0.0259  0.1010
11172W        W30706  13.029   7.419   4.190 -0.0315  0.1190  0.0469
11173W        W30707  18.185  17.137  14.064  0.3028 -0.2799 -0.0965
11174W        W30708   3.680   9.730  13.769  0.1085 -0.1832 -0.3481
11175W        W30709   9.983   1.439   0.158  0.0935  0.1037 -0.2027
11176W        W30710   0.413   4.966  12.074 -0.0882 -0.1461  0.0982
11177W        W30711   0.199  17.924  10.983 -0.1498  0.2851  0.0282
11178W        W30712  16.038   1.622   2.575  0.0853 -0.0964  0.1663
11179W        W30713   1.516   4.750  12.745 -0.1829 -0.1893 -0.1149
11180W        W30714  18.953  14.056   1.831 -0.3905  0.0080 -0.0740
11181W        W30715   3.771   6.281   3.496 -0.0465  0.3509 -0.5571
11182W        W30716  13.326  11.081  14.026  0.1382  0.2622 -0.3858
11183W        W30717   7.387   0.293  10.669  0.0050  0.3059  0.1036
11184W        W30718   5.672  13.149   0.974  0.2232 -0.1791  0.2192
11185W        W30719   3.288   0.874   0.172  0.0672 -0.3452 -0.3664
11186W        W30720  15.766  18.383  10.260  0.0055  0.1908 -0.0851
11187W        W30721   9.224   1.813  11.452  0.0675  0.0987  0.1288
11188W        W30722   3.720   9.246  14.105 -0.0721  0.0753  0.1676
11189W        W30723   7.922   4.335   1.363  0.3072 -0.0999 -0.2371
11190W        W30724   4.720  14.433   2.308  0.1920 -0.5932 -0.2682
11191W        W30725   0.638  14.115   8.761  0.0258 -0.3691  0.0247
11192W        W30726  18.424   3.845  11.582 -0.1942 -0.0359  0.0189
11193W        W30727  10.858   2.697  13.155  0.1907  0.3435  0.2010
11194W        W30728  17.015   7.146  13.888 -0.0431 -0.1102 -0.2090
11195W        W30729   9.329  10.640   1.314  0.1501  0.3141  0.1547
11196W        W30730   5.453   0.602   2.594 -0.1423  0.1735 -0.0881
11197W        W30731  12.589   8.699  13.630  0.1533  0.0267  0.1526
11198W        W30732   2.965   5.071  11.182 -0.0538 -0.0579  0.0851
11199W        W30733   1.121  18.563  12.310 -0.2424  0.1479 -0.0879
11200W        W30734   7.792  18.140   0.733  0.0220 -0.1209 -0.1203
11201W        W30735   9.377   9.760  13.484  0.3239 -0.0364  0.0214
11202W        W30736  18.705  15.967   1.637  0.1883  0.0163  0.1095
11203W        W30737   5.929   3.013   3.233  0.1297 -0.2160  0.1795
11204W        W30738   2.028  13.096  10.585 -0.2250 -0.2051  0.0105
11205W        W30739   6.253   3.156  11.971  0.1405 -0.1405  0.0749
11206W        W30740   7.367   1.102  14.004  0.1392  0.4368 -0.0483
11207W        W30741  18.691   2.003   0.005  0.1560 -0.1585 -0.0641
11208W        W30742   3.369   8.040   2.001  0.2348  0.3053  0.1115
11209W        W30743   8.089  11.868  11.045  0.0617 -0.0671 -0.2344
11210W        W30744   8.765   6.444  13.641 -0.1581  0.0857 -0.1501
11211W        W30745   8.705  11.574  13.024 -0.0875 -0.2560 -0.1447
11212W        W30746  16.511   8.703  11.539  0.0470 -0.1903 -0.3264
11213W        W30747   8.781  19.116   2.797 -0.0276  0.0408  0.0322
11214W        W30748   0.709   8.874   2.932  0.1970 -0.2138  0.2584
11215W        W30749  11.276   5.678  14.066 -0.1179 -0.0018  0.1324
11216W        W30750  18.343  12.417   2.876 -0.0981  0.0158  0.0760
11217W        W30751  19.196   5.684  10.556  0.1966  0.3443  0.2224
11218W        W30752  11.848   2.498   0.768 -0.0195  0.2414 -0.1323
11219W        W30753   2.792   6.198  11.643 -0.0079 -0.0716  0.0340
11220W        W30754   5.983  19.148  12.034 -0.2621 -0.1382  0.2687
11221W        W30755   3.513   5.369  11.672 -0.1204  0.0877  0.2111
11222W        W30756  13.222   3.885   0.338  0.0195 -0.0832  0.2266
11223W        W30757   0.157   4.169   4.448 -0.1287 -0.0140 -0.1242
11224W        W30758  11.061  16.637  11.307 -0.3237 -0.3506 -0.0063
11225W        W30759   2.215  15.978   1.375 -0.0364 -0.0458 -0.2283
11226W        W30760   1.802   2.158   1.823 -0.0127  0.2823  0.0101
11227W        W30761  15.248   1.137   0.165  0.0382  0.1105  0.1939
11228W        W30762   5.703  13.880   1.720 -0.0374 -0.1961 -0.2159
11229W        W30763  18.867   9.568   1.259 -0.4628  0.1420 -0.2404
11230W        W30764  19.376  18.936  10.514 -0.0743  0.0584 -0.2534
11231W        W30765  16.759   6.246  13.124  0.1815 -0.0048 -0.4436
11232W        W30766  14.752  15.369  10.057 -0.5565  0.4552 -0.0833
11233W        W30767  10.920   9.038   3.730  0.0171  0.0302  0.0112
11234W        W30768  13.513  18.687  11.947 -0.2292  0.1960  0.0297
11235W        W30769   3.310   2.101   1.751 -0.1025  0.2888 -0.0133
11236W        W30770  11.466   8.420   2.725 -0.0034 -0.3796  0.0617
11237W        W30771  15.006   4.535  12.270  0.0213  0.0441  0.0102
11238W        W30772  18.043   5.165  11.588  0.0551 -0.0145  0.0963
11239W        W30773   3.124  18.307   3.139  0.0646  0.1450  0.0631
11240W        W30774   7.368   7.181  12.081  0.0443  0.1350  0.0010
11241W        W30775  15.530   6.233  12.602  0.2352 -0.3556  0.4032
11242W        W30776   3.224  16.584   2.178 -0.0866  0.0125 -0.0435
11243W        W30777  14.433   6.519  11.017  0.0203 -0.3239 -0.1729
11244W        W30778   3.423  16.767   0.507  0.0648 -0.1137 -0.3460
11245W        W30779  12.631   8.283  11.959 -0.1308  0.1986 -0.0566
11246W        W30780   8.026  16.097  10.970  0.0680 -0.1544  0.0581
11247W        W30781   2.200   2.712  12.149 -0.1819  0.1536 -0.1562
11248W        W30782  13.354  13.055  10.527 -0.0501 -0.2780 -0.1044
11249W        W30783  11.597  14.721   3.341  0.3116  0.2494  0.0118
11250W        W30784   4.107   8.378  14.329 -0.1690 -0.2522 -0.1713
11251W        W30785   2.082   1.241   2.104 -0.0457 -0.0052  0.2153
11252W        W30786   6.781   9.742   1.839  0.5079 -0.1205 -0.1266
11253W        W30787   5.183   8.620  10.447  0.1348 -0.4233  0.1208
11254W        W30788  16.093  16.733   3.459 -0.0765 -0.0449  0.2409
11255W        W30789  10.353  15.961   3.453  0.0501 -0.1406 -0.1834
11256W        W30790  14.603   6.036   3.404  0.1544 -0.0731 -0.3167
11257W        W30791  13.142   3.559  13.549  0.0820  0.0273 -0.0886
11258W        W30792   8.931  18.172   3.298 -0.1328  0.2718  0.1284
11259W        W30793  13.191   9.903   2.426 -0.0782 -0.0340 -0.1479
11260W        W30794  11.582  10.845   0.340 -0.0687  0.0953 -0.1143
11261W        W30795   7.991   9.875   3.779 -0.4477 -0.1116 -0.2480
11262W        W30796   2.418  14.958  12.354  0.4342 -0.2338 -0.1156
11263W        W30797  13.464  11.960  12.965 -0.0198  0.0712 -0.3124
11264W        W30798   4.088  15.255  13.192  0.2354  0.2104  0.1433
11265W        W30799  15.101   6.500   2.406 -0.1474  0.0830  0.1500
11266W        W30800  13.111  16.751  12.917  0.2618 -0.1064 -0.1134
11267W        W30801  10.221  10.170  13.807  0.0775  0.3742 -0.0270
11268W        W30802  10.576  11.916  10.516 -0.0742  0.1926  0.0044
11269W        W30803   9.167   8.736   0.310  0.2062 -0.2515  0.0998
11270W        W30804  18.293   3.170   0.489  0.2350  0.0037 -0.1141
11271W        W30805   6.078  16.188  13.913 -0.1831  0.4339 -0.1644
11272W        W30806  15.173   1.609   9.467 -0.0343 -0.3193  0.1629
11273W        W30807   9.980   8.538  13.209  0.3876  0.3527  0.2161
11274W        W30808   4.923  12.820   1.318  0.2373 -0.3736 -0.2190
11275W        W30809   4.708  12.753  13.960 -0.0710 -0.1632  0.0094
11276W        W30810  18.262  12.218  12.016  0.1872  0.1368  0.3344
11277W        W30811  13.270   2.538  13.584  0.2503 -0.0867 -0.0757
11278W        W30812  10.929  12.632  13.679  0.0684  0.2219 -0.1092
11279W        W30813  16.067   3.785   3.074  0.1563  0.0963 -0.3557
11280W        W30814   7.150   7.121   1.286  0.0048 -0.2165 -0.2389
11281W        W30815  15.587  12.897  13.096 -0.1110 -0.1206  0.0841
11282W        W30816  18.952   3.023  12.505  0.3270 -0.3743 -0.0626
11283W        W30817   8.074   4.158   0.420  0.1037 -0.3717  0.0995
11284W        W30818  12.926   7.107   0.625  0.0438 -0.1184 -0.1274
11285W        W30819  11.908  14.513   0.981  0.3763 -0.1187 -0.0751
11286W        W30820   0.254   8.276  12.772 -0.0270  0.0619 -0.1046
11287W        W30821   6.793   4.244   2.798  0.3715 -0.0420  0.1637
11288W        W30822   0.309   9.692   3.150 -0.3846 -0.0119 -0.0425
11289W        W30823  18.184   7.546   2.465  0.0256 -0.2444  0.2217
11290W        W30824   2.393  17.352  14.111  0.0409 -0.2769 -0.1315
11291W        W30825  16.739   9.532   3.430 -0.0729 -0.1771 -0.1054
11292W        W30826   4.116  18.544   2.262  0.0260 -0.2389  0.2066
11293W        W30827   5.299   9.762   3.924 -0.1435  0.0638  0.0745
11294W        W30828   8.770  19.485  13.504  0.0389  0.0829  0.2240
11295W        W30829   0.572  17.761  14.108  0.0385  0.1893 -0.4855
11296W        W30830  12.277   0.104  14.158  0.1654  0.2306 -0.1396
11297W        W30831   3.611   5.422  12.345  0.2756 -0.0414  0.0383
11298W        W30832   1.446  18.163  12.601  0.0333 -0.0355 -0.3567
11299W        W30833  16.860   0.224  13.697  0.0246 -0.0140 -0.1142
11300W        W30834   6.280   5.442  11.288  0.2924  0.0880  0.1465
11301W        W30835   0.302   3.971  13.023  0.2380 -0.2420  0.0691
11302W        W30836  10.592   5.436   3.076  0.1331 -0.1723  0.1397
11303W        W30837  15.604   8.662  12.526 -0.0857  0.1211  0.3436
11304W        W30838  16.068  19.041   5.156  0.0183  0.0049 -0.2231
11305W        W30839   3.429   3.800   2.010  0.0840 -0.1694 -0.1762
11306W        W30840   4.532  10.045   2.192  0.1123 -0.0250  0.4713
11307W        W30841   0.770  12.295   3.629  0.0301  0.6098  0.1007
11308W        W30842  15.288  16.001  14.066 -0.0762  0.3972 -0.0161
11309W        W30843  18.589  15.559   1.408  0.1656  0.0279  0.2334
11310W        W30844  11.320  13.048  13.827  0.2707  0.3053  0.1579
11311W        W30845  15.039   8.764  14.243 -0.2236  0.0049  0.0945
11312W        W30846   0.705  11.085   1.197 -0.2037 -0.0118  0.0815
11313W        W30847   1.896   1.290   1.515 -0.0348  0.2192  0.1438
11314W        W30848  18.791  14.642   4.322  0.1901  0.1231 -0.2077
11315W        W30849  17.704  14.402  13.932  0.1344 -0.0178  0.0612
11316W        W30850   1.792   1.702   3.232 -0.0392 -0.0422 -0.2045
11317W        W30851   3.731   1.780   2.944 -0.0499  0.3485  0.1332
11318W        W30852   3.462   8.457   2.227 -0.1087  0.3151 -0.0862
11319W        W30853  16.723   0.872   4.658  0.2519  0.0006 -0.0920
11320W        W30854  12.723   3.305  10.609  0.1257  0.1665 -0.1318
11321W        W30855  14.163  19.140  11.231  0.1955 -0.0977 -0.0433
11322W        W30856   3.660  18.686   4.281  0.0511 -0.1601  0.2933
11323W        W30857   7.285  13.169  12.091 -0.1741 -0.0356 -0.1285
11324W        W30858  13.360  12.092   0.951  0.1312  0.1022  0.0408
11325W        W30859   1.136  10.271  12.872 -0.1946 -0.2781  0.1933
11326W        W30860  12.210  15.761  12.810  0.3512 -0.3375 -0.1741
11327W        W30861  19.273   3.882   0.237  0.0833  0.0300 -0.1057
11328W        W30862   4.646   2.248   3.622 -0.1347 -0.0640 -0.0512
11329W        W30863   4.075   6.717  11.937 -0.6075 -0.3336 -0.2797
11330W        W30864  18.550   7.242   4.316 -0.2101  0.1892  0.2329
11331W        W30865   1.834   4.980  11.824 -0.0359 -0.0323  0.0278
11332W        W30866  17.388  17.748   9.329  0.0640 -0.3050  0.0856
11333W        W30867   9.353  11.375   4.482  0.0363 -0.0350  0.1704
11334W        W30868   9.746  17.125   0.872  0.0304 -0.1888 -0.0814
11335W        W30869  11.650   3.714  11.882  0.1447 -0.0995  0.4438
11336W        W30870  15.321  10.314  13.442  0.0675 -0.4432  0.0773
11337W        W30871   3.948   3.196   2.144  0.0009  0.0170  0.0282
11338W        W30872  12.554  13.115   2.292  0.3521 -0.1331 -0.0452
11339W        W30873   8.771  14.196   1.631  0.2578 -0.4125  0.1232
11340W        W30874  14.912  18.179   1.574  0.0845  0.0508  0.0349
11341W        W30875  17.558  18.576   0.482 -0.0188  0.1298 -0.2327
11342W        W30876  16.394   5.995  12.857 -0.2229  0.2043 -0.0068
11343W        W30877   6.350  12.449  11.621 -0.1366  0.0051  0.1943
11344W        W30878  12.090   5.832   1.428  0.1610  0.0421 -0.0316
11345W        W30879   3.406  17.032   3.752  0.1416  0.0586 -0.0377
11346W        W30880   0.351   9.625   2.663 -0.2978 -0.1219  0.1005
11347W        W30881  15.800   6.222  11.415  0.1129 -0.2149  0.0206
11348W        W30882  12.184  17.962  10.566  0.3117 -0.0771 -0.2760
11349W        W30883   5.887  17.783  12.390 -0.0890 -0.1193 -0.0044
11350W        W30884   8.420  11.863   2.380 -0.1418  0.0911 -0.2968
11351W        W30885   4.522   3.754   3.338  0.0488  0.2957 -0.2384
11352W        W30886   2.376  14.485   2.927 -0.0810  0.0668  0.3052
11353W        W30887  18.657   6.892  13.051 -0.2729  0.3528 -0.0291
11354W        W30888  15.732   1.654   0.977 -0.2506 -0.1675  0.0948
11355W        W30889   2.049  14.588   1.839  0.0274 -0.2335  0.5158
11356W        W30890  15.580  17.937  14.026  0.0888 -0.0543  0.0971
11357W        W30891   7.348  12.007   0.898 -0.2545 -0.1272  0.2361
11358W        W30892   9.418   5.326   0.947 -0.0176  0.0702  0.2120
11359W        W30893  12.806   4.021   3.525  0.2363 -0.0224 -0.1413
11360W        W30894   9.395   2.095   0.612  0.3993 -0.0507 -0.3807
11361W        W30895   5.246   1.402  11.248  0.4168 -0.1272 -0.0917
11362W        W30896   2.653   7.721   4.443 -0.2523 -0.0083 -0.2103
11363W        W30897   0.540  11.781  12.064 -0.0751 -0.0489  0.3527
11364W        W30898   0.241  10.465  10.349 -0.2652  0.1641  0.0082
11365W        W30899   0.747  11.595  13.132  0.1996  0.0615 -0.2000
11366W        W30900  17.330   2.042  10.506  0.0105 -0.1391 -0.0486
11367W        W30901   0.896  11.722   4.574 -0.3602 -0.3984 -0.1488
11368W        W30902   1.932  14.002   3.387  0.1478 -0.3157  0.2507
11369W        W30903  16.923   3.123  11.252 -0.0546  0.0460 -0.0774
11370W        W30904   5.844   8.174   1.817 -0.2726  0.1650 -0.5883
11371W        W30905   7.122  11.483  11.115 -0.2971 -0.0902  0.1421
11372W        W30906   6.077  13.775  12.928  0.1164 -0.2656  0.2226
11373W        W30907   9.587   0.681  10.859 -0.1276 -0.2407 -0.2120
11374W        W30908   8.255  13.856   2.576 -0.4148  0.1924  0.0776
11375W        W30909  19.295   7.163   3.404  0.3716 -0.0808 -0.1839
11376W        W30910   5.450   5.183   3.325 -0.0395  0.0338 -0.2581
11377W        W30911   2.677   8.250   0.053  0.1107  0.2544 -0.2463
11378W        W30912   0.958   8.835  11.176  0.0055  0.2646 -0.1233
11379W        W30913   4.243   0.110  13.781  0.2116  0.1949  0.0496
11380W        W30914  15.029   2.843  11.547 -0.2060 -0.0985 -0.0495
11381W        W30915   3.688   0.115   2.245  0.2582  0.4068 -0.1008
11382W        W30916  12.062   2.718   1.923 -0.4824 -0.0741 -0.0616
11383W        W30917  13.224  19.058  10.850  0.1097  0.1670  0.1360
11384W        W30918   2.417  13.857   3.590  0.1385  0.2700 -0.2519
11385W        W30919  17.902   1.489   2.338 -0.1868  0.1733  0.0161
11386W        W30920   3.660  15.458  12.262 -0.5056 -0.1153  0.0482
11387W        W30921   8.863   3.373   3.176  0.0302 -0.0156  0.3575
11388W        W30922  12.900   1.960   0.581  0.1421 -0.1761  0.2674
11389W        W30923   1.951  11.271   2.389 -0.1313 -0.0079 -0.1156
11390W        W30924  13.729  11.578  13.335  0.2067 -0.0410  0.1918
11391W        W30925   6.228   3.461   3.132  0.0383  0.1829  0.0121
11392W        W30926  14.433  16.878  12.768 -0.0620  0.0638 -0.0102
11393W        W30927  17.316   1.292   9.596  0.3551  0.2727  0.1683
11394W        W30928  17.949   9.107  12.865 -0.0796  0.0116  0.1967
11395W        W30929   0.832   9.511  12.797  0.2861  0.0377 -0.1254
11396W        W30930   7.812  10.000   0.151  0.0739 -0.0232  0.1708
11397W        W30931  10.281   7.215  13.698  0.1392 -0.0884  0.2295
11398W        W30932   5.268  18.559   3.593  0.1450  0.1020  0.0802
11399W        W30933   3.190   7.711  13.665 -0.0009 -0.0172  0.1066
11400W        W30934  16.369   4.604   1.117 -0.1805 -0.0571  0.2048
11401W        W30935  18.057  19.521   0.655  0.4924  0.4147  0.0236
11402W        W30936  16.702   7.925  11.232 -0.1784 -0.3808 -0.4605
11403W        W30937   1.232   2.904   5.165 -0.0227 -0.2523  0.2812
11404W        W30938  19.307  18.098  13.673  0.1649 -0.1722 -0.0253
11405W        W30939   2.921   7.531   1.565 -0.0801 -0.0726  0.1282
11406W        W30940  10.990   2.389  14.026  0.0723  0.0592 -0.0129
11407W        W30941   2.279   0.474  14.209  0.2022 -0.1041  0.0658
11408W        W30942   2.343   8.471   1.452 -0.0588  0.3036 -0.0087
11409W        W30943  12.689   5.058  12.836 -0.0246 -0.2211 -0.0796
11410W        W30944  16.840   0.555   4.230 -0.0469  0.2483 -0.2308
11411W        W30945  11.332  15.722   0.956  0.0853  0.3455  0.0809
11412W        W30946   2.007  11.620   9.851 -0.0322 -0.0827 -0.0246
11413W        W30947  16.889  16.577  13.353  0.1131 -0.0124  0.0322
11414W        W30948  14.102   8.320  11.412  0.2783 -0.0202  0.0840
11415W        W30949   1.202   7.691   3.897 -0.2815 -0.0659  0.3716
11416W        W30950  15.602   9.557   4.762  0.2811 -0.2656 -0.1368
11417W        W30951   3.411  11.146   2.488  0.2791 -0.0390  0.0701
11418W        W30952  17.989   9.684   0.652 -0.2726  0.0257  0.0148
11419W        W30953   7.950  18.595   4.347  0.0787 -0.0499  0.0574
11420W        W30954  13.963  17.162   3.149  0.1836  0.0969  0.0591
11421W        W30955   0.935  17.141  10.933  0.0182  0.1436  0.0199
11422W        W30956  11.791  15.521  11.067 -0.0540  0.0041 -0.2382
11423W        W30957  18.308  12.833   1.578  0.2795  0.0525  0.2611
11424W        W30958   5.841   6.752  13.635 -0.0869  0.0699  0.1601
11425W        W30959  11.892   6.463  12.077 -0.0186 -0.3179  0.0447
11426W        W30960  14.138  16.211  14.124 -0.0503  0.2268  0.1579
11427W        W30961   7.612  14.316  10.467  0.1109 -0.1580  0.3301
11428W        W30962   5.563  17.160   2.925 -0.0330 -0.2416 -0.0020
11429W        W30963   9.620  11.909  10.692 -0.1686  0.0381 -0.2820
11430W        W30964   0.749  14.147   2.188  0.2134  0.0131 -0.1038
11431W        W30965   0.441   8.740   0.172 -0.3204 -0.0225 -0.0326
11432W        W30966   1.161  10.820   3.482 -0.1417  0.0028  0.2699
11433W        W30967  14.905  10.180   2.366  0.0040  0.2334  0.2208
11434W        W30968   6.122   5.856   0.111 -0.1803  0.0513  0.2615
11435W        W30969   8.204   5.484   1.639 -0.1903 -0.0653 -0.2842
11436W        W30970   3.050   6.873   2.333 -0.0894  0.2225 -0.1516
11437W        W30971  15.383   9.299  13.460 -0.2845 -0.1224 -0.0277
11438W        W30972  18.993  19.432  11.923 -0.0492 -0.1138 -0.1852
11439W        W30973   1.713  15.300   1.379  0.1501  0.0958 -0.0961
11440W        W30974   9.657  13.690   4.988  0.1738 -0.2710  0.1198
11441W        W30975  16.536   9.862   0.744 -0.2897  0.1339  0.1562
11442W        W30976   8.532  15.031   1.535 -0.1636 -0.1578  0.0706
11443W        W30977  14.848  18.824  12.283  0.0267 -0.0080 -0.0979
11444W        W30978  13.543   4.813  12.515  0.1447  0.0867 -0.0769
11445W        W30979  14.611  15.884   1.194  0.1153  0.1313  0.3799
11446W        W30980  11.916  14.306  12.695  0.0043  0.0622  0.0207
11447W        W30981  17.771  11.287  11.019 -0.1625 -0.2023  0.0716
11448W        W30982  14.406  16.894   0.655 -0.1385  0.0643  0.2580
11449W        W30983  15.329   6.691  11.222  0.0233 -0.2942  0.0375
11450W        W30984  16.567   1.730   2.708 -0.1223 -0.2992 -0.3811
11451W        W30985   0.066  16.325  11.808 -0.0191 -0.2496  0.1888
11452W        W30986   7.628   3.861   1.144  0.0068 -0.1758 -0.1356
11453W        W30987  12.679  15.094  12.165  0.3975  0.3477 -0.0388
11454W        W30988   0.505   6.148  11.514 -0.0839  0.1627  0.1831
11455W        W30989   9.365  16.606   2.588 -0.3172  0.0842  0.2022
11456W        W30990   7.634   0.509   0.288 -0.4469  0.2607 -0.1078
11457W        W30991   2.156  14.017  10.449 -0.2678 -0.0440  0.4305
11458W        W30992  11.111   4.964   3.822  0.0735 -0.1310  0.1859
11459W        W30993   3.500  18.251   0.633 -0.0490  0.0230  0.0646
11460W        W30994   1.712  17.864   3.937 -0.0126 -0.2404  0.0694
11461W        W30995   3.222  11.190   1.916 -0.0690 -0.1058  0.0613
11462W        W30996   6.323   4.855  11.577  0.0753  0.5753  0.0024
11463W        W30997   9.577  10.984  12.116 -0.0282 -0.1919 -0.0805
11464W        W30998  10.045  16.632   2.190 -0.0631 -0.0204 -0.1644
11465W        W30999   6.436   4.266  11.564  0.0484 -0.0362  0.2775
11466W        W31000  15.266  18.802  10.307  0.2249 -0.3126  0.1666
11467W        W31001  13.044   1.570   2.258 -0.2184  0.0705  0.0591
11468W        W31002  17.025  14.933  12.969  0.0962 -0.1441  0.0356
11469W        W31003  11.971   9.494  12.070  0.0235 -0.1775 -0.1957
11470W        W31004  11.268   2.492  11.573  0.1919 -0.0316  0.0251
11471W        W31005  14.730  17.603  13.703  0.1451  0.1773 -0.0070
11472W        W31006   1.772   9.028   1.830  0.0704 -0.0635 -0.3162
11473W        W31007   3.108  14.357  12.096 -0.0457 -0.2112  0.0927
11474W        W31008  15.050   6.919  11.735  0.2407 -0.2452  0.1167
11475W        W31009   1.360   7.229   3.609  0.0086  0.3196  0.0452
11476W        W31010  19.063  11.988   9.902  0.1674 -0.0999  0.1472
11477W        W31011  13.435  16.400   1.352 -0.2220  0.1040  0.1862
11478W        W31012   5.254  16.040   0.016  0.0527 -0.3403  0.4277
11479W        W31013   0.054   1.867  13.823 -0.0054 -0.1750 -0.2138
11480W        W31014  18.371   9.983   3.760  0.0245 -0.1221  0.0729
11481W        W31015   6.440  10.696  13.647 -0.0359  0.1446  0.3190
11482W        W31016   2.030   3.552   0.860 -0.1067 -0.0484  0.0013
11483W        W31017   2.159   4.086   2.875 -0.0497  0.3893  0.3883
11484W        W31018  11.835   5.895   0.460 -0.0304  0.2572 -0.0428
11485W        W31019  14.547  11.991   2.337 -0.0133  0.0596  0.0762
11486W        W31020   1.516  11.658  12.431  0.2672 -0.0334 -0.2550
11487W        W31021   6.669   2.559  12.201 -0.4059 -0.0506 -0.0718
11488W        W31022  16.992  11.651   0.394 -0.1228  0.1878 -0.3415
11489W        W31023   1.808  13.189  12.785  0.5954 -0.1782  0.4249
11490W        W31024  18.504   9.808   0.220  0.2756  0.2503 -0.0711
11491W        W31025  16.066  16.250  12.157  0.2820 -0.0038  0.0640
11492W        W31026   1.003   9.638   9.528  0.1475 -0.2172 -0.2073
11493W        W31027   5.242   1.537  12.403 -0.2120  0.1830 -0.0218
11494W        W31028  15.573   4.998   3.742 -0.0574 -0.0109  0.2482
11495W        W31029   1.014  11.513   0.417  0.0757 -0.0278  0.0379
11496W        W31030   0.540   3.311  12.173  0.2074  0.1129 -0.6190
11497W        W31031  12.844  12.674   2.524 -0.0608 -0.1085  0.1653
11498W        W31032   1.619  10.534   0.755  0.1608  0.1189  0.0285
11499W        W31033  16.283  15.817  14.326 -0.0423 -0.2024  0.4276
11500W        W31034   5.913   3.487   1.309  0.2088  0.0738 -0.0232
11501W        W31035  17.291   8.642   1.650 -0.1215  0.1617 -0.2863
11502W        W31036   7.797  14.103   3.500  0.3009  0.0566  0.1395
11503W        W31037  10.646   1.580  13.127 -0.3466 -0.3468  0.1420
11504W        W31038  17.932  13.542  10.883 -0.0642 -0.2106 -0.1068
11505W        W31039   8.581   8.178   1.057 -0.1874  0.1660  0.1163
11506W        W31040  15.337   4.279   2.070 -0.0392 -0.0540 -0.1998
11507W        W31041   2.457  10.420  11.179 -0.0006 -0.0762 -0.0328
11508W        W31042  18.960  11.310  14.189  0.0239 -0.0164  0.1185
11509W        W31043   1.096   1.339  11.782  0.1340  0.3566 -0.1180
11510W        W31044   0.900   7.010   2.694 -0.1309 -0.2208 -0.1314
11511W        W31045  17.894  11.949   0.338  0.4157 -0.3367 -0.1778
11512W        W31046   7.287  12.295  12.411  0.2040  0.1348 -0.0559
11513W        W31047  12.094  11.655   1.122 -0.1355 -0.0011  0.4191
11514W        W31048   0.324  10.983   2.977 -0.2000 -0.2504 -0.1602
11515W        W31049   5.625  18.860   0.578 -0.1139 -0.0149 -0.0131
11516W        W31050  14.196   3.209   9.210 -0.1899  0.3747 -0.0370
11517W        W31051  17.187   8.855  12.749  0.0157  0.3082 -0.1917
11518W        W31052  17.689   5.539   9.998 -0.1249  0.0486  0.1329
11519W        W31053   7.325   1.850  11.114 -0.0965  0.3846 -0.2377
11520W        W31054  13.292   2.020  12.856  0.2206  0.2824  0.1217
11521W        W31055   1.856  17.464   0.555  0.2637 -0.0052  0.4284
11522W        W31056   7.201  16.811   9.278 -0.0800  0.1469  0.0841
11523W        W31057  12.972   8.156  12.498  0.2297 -0.0951 -0.2762
11524W        W31058   3.183  17.819  11.158  0.0864  0.2925 -0.3220
11525W        W31059   4.562  18.195  11.605  0.4167  0.1839  0.1947
11526W        W31060  10.148   6.746  12.881 -0.1342 -0.0663  0.1571
11527W        W31061   5.643  19.246  11.658  0.0029 -0.0109  0.0709
11528W        W31062  13.940   3.573   2.538 -0.2166  0.4117 -0.1510
11529W        W31063  15.174   8.329   1.258  0.1980 -0.0924 -0.0897
11530W        W31064  15.671   0.397   0.892 -0.2275  0.1841 -0.2809
11531W        W31065   5.901  10.093   0.211  0.0087 -0.0159  0.1207
11532W        W31066   6.763  18.951  11.362 -0.3194  0.2392  0.0018
11533W        W31067  16.008   9.807  11.947 -0.1390  0.0216 -0.3786
11534W        W31068   1.937  12.396  13.088  0.0599  0.0975 -0.1348
11535W        W31069  18.852   0.694   9.651 -0.0077 -0.1987 -0.0012
11536W        W31070   8.533   4.124  12.578  0.0780  0.1567  0.0223
11537W        W31071   2.515  18.151  10.848 -0.1237  0.0244 -0.2510
11538W        W31072  15.044   1.608   2.801 -0.1113 -0.1232  0.0342
11539W        W31073   4.235  12.302   1.396  0.0295  0.2428 -0.1398
11540W        W31074  10.005   2.711  11.216  0.5138  0.0226  0.1505
11541W        W31075   5.383   6.054  13.254 -0.3461 -0.3644 -0.0009
11542W        W31076   9.038   0.019   0.854 -0.1423  0.2315 -0.1993
11543W        W31077  19.244  13.656  14.238 -0.2041 -0.2542 -0.1622
11544W        W31078  17.391  16.458  12.770 -0.0812  0.2453  0.2151
11545W        W31079   2.922   9.818  10.832  0.0303 -0.1083 -0.0600
11546W        W31080  12.569   9.007  14.070 -0.5765  0.0030 -0.0273
11547W        W31081   3.530  18.399   1.097  0.1201  0.1323  0.1264
11548W        W31082   6.358   5.205   0.358  0.0287 -0.1087 -0.2004
11549W        W31083   9.155  19.113  12.111  0.0474 -0.1796  0.3304
11550W        W31084   6.596  18.062   2.518 -0.3735 -0.0869 -0.2756
11551W        W31085   2.504   1.381   0.298 -0.0410  0.1088  0.2091
11552W        W31086  15.704   2.079   4.358 -0.4641 -0.2605 -0.1022
11553W        W31087  15.549   0.902   0.664  0.1305 -0.0361  0.1362
11554W        W31088   4.921   5.043   0.173 -0.1554  0.0043  0.2935
11555W        W31089  11.966   4.521  13.129 -0.0347 -0.1982  0.1681
11556W        W31090   6.097   4.928   2.641 -0.1533  0.2254 -0.0493
11557W        W31091   9.276   3.846  12.353 -0.0951  0.0434  0.2853
11558W        W31092  16.051  19.464   1.374  0.0886 -0.1080  0.0693
11559W        W31093  18.862  13.709   0.897 -0.3876  0.3472  0.4900
11560W        W31094   7.165   5.559   0.102  0.1411 -0.1464 -0.3161
11561W        W31095  11.350  18.398  11.546 -0.2376  0.1122 -0.0130
11562W        W31096   6.021  13.696   3.421  0.1683 -0.1294  0.0910
11563W        W31097  19.402  13.853   1.050  0.2319  0.0035  0.0180
11564W        W31098   9.981   6.236  11.854 -0.0664 -0.4984 -0.0632
11565W        W31099   7.190  13.748   0.161  0.0047  0.0630 -0.0958
11566W        W31100  12.261  15.456   0.801 -0.0760 -0.1204 -0.1500
11567W        W31101   2.672   3.521  13.548  0.5342  0.1429 -0.1993
11568W        W31102   1.420   6.431   4.086  0.1330 -0.2378  0.1248
11569W        W31103   9.411   7.935  11.450  0.0895 -0.1696 -0.2708
11570W        W31104   1.272   7.722  11.266 -0.1232 -0.2328 -0.2039
11571W        W31105  11.342   2.412   0.700 -0.1986  0.1229 -0.0388
11572W        W31106  10.446   8.421   1.727 -0.1985 -0.3007  0.3109
11573W        W31107  10.391   6.407  11.379  0.0821 -0.0069 -0.0777
11574W        W31108  11.027  15.537  10.458 -0.0450 -0.1491 -0.0149
11575W        W31109   8.228  11.190  13.759 -0.0415 -0.1854 -0.1122
11576W        W31110   8.853   3.187   1.244 -0.4332 -0.1969  0.0827
11577W        W31111  11.206  19.412   3.921 -0.0675  0.4030 -0.0831
11578W        W31112  10.518   2.447   1.059  0.3169 -0.1607  0.0074
11579W        W31113  13.850  15.569  13.465 -0.2770 -0.0947 -0.4231
11580W        W31114  10.513  16.744   0.342 -0.1749  0.1077  0.2507
11581W        W31115  10.715   3.734  10.577  0.2311  0.3383  0.1784
11582W        W31116  15.873  12.797   9.288 -0.2602 -0.1188  0.0326
11583W        W31117   5.932   1.048  12.919  0.0911  0.1309 -0.1297
11584W        W31118   3.306  16.388   9.948 -0.0382  0.1443  0.2261
11585W        W31119   1.455   5.958  12.091  0.0699 -0.0677  0.0150
11586W        W31120   1.491  10.076  14.140 -0.1654  0.1197  0.0301
11587W        W31121   6.643   0.755   4.178 -0.1599  0.0349  0.2238
11588W        W31122   9.999  11.179   2.749 -0.0023  0.3874 -0.1740
11589W        W31123  13.128   0.056  13.832  0.2947 -0.0153 -0.2594
11590W        W31124   8.230   4.372   3.008 -0.0356  0.2071  0.1478
11591W        W31125  12.371   4.418   2.778 -0.4029  0.4561 -0.1476
11592W        W31126   8.097   2.175   0.852  0.0314 -0.0606  0.3338
11593W        W31127  10.395  13.571   1.215 -0.2985 -0.0829  0.2796
11594W        W31128   1.647   7.414  11.901 -0.0894 -0.0534  0.1573
11595W        W31129   6.053   6.288   1.533  0.1358 -0.1734  0.0984
11596W        W31130   8.811  17.243   3.739 -0.0192 -0.1915  0.1552
11597W        W31131  11.483  16.384  11.508 -0.0885  0.2063  0.1629
11598W        W31132   2.889  16.252   3.880  0.4825  0.1351  0.5131
11599W        W31133  12.005   7.743  12.269  0.1306 -0.2505  0.0003
11600W        W31134  11.884   6.868   4.153  0.1217  0.2420  0.2796
11601W        W31135   8.228  11.582  11.977  0.3180 -0.1395 -0.0708
11602W        W31136  14.919   1.578   0.499 -0.1727 -0.0460  0.3513
11603W        W31137  11.264  13.896   1.596  0.2276 -0.0919  0.1810
11604W        W31138  11.832   3.712  12.321  0.3558  0.1433 -0.1752
11605W        W31139   9.788  14.112   2.251  0.1104 -0.0587  0.3207
11606W        W31140  16.189  10.931  10.657 -0.1476 -0.3297 -0.1178
11607W        W31141  17.237   4.754  11.876 -0.0289  0.2627  0.1123
11608W        W31142   1.728  19.139   0.268 -0.1801  0.2391  0.5557
11609W        W31143  17.849  18.617   1.614 -0.0360  0.3847 -0.0534
11610W        W31144   6.889   8.626  12.205  0.1954 -0.1453  0.1562
11611W        W31145   2.656   8.820   0.016  0.0493 -0.1466  0.0993
11612W        W31146   9.339  11.469   1.764 -0.1809  0.1032 -0.0468
11613W        W31147  14.830  15.633  11.933  0.0974 -0.0850 -0.0445
11614W        W31148  13.062   6.234  12.121  0.2387  0.1750 -0.0642
11615W        W31149  15.632  14.792  13.304  0.1117 -0.1122  0.3933
11616W        W31150   0.283   8.863  10.998 -0.1887 -0.2183  0.2973
11617W        W31151   3.301  15.812   3.040  0.1081  0.1578 -0.2178
11618W        W31152  16.524   8.514  12.053  0.1349  0.0159 -0.1486
11619W        W31153   8.111  10.518  10.623 -0.0300  0.1080 -0.0943
11620W        W31154   0.457   3.814   3.695  0.3065  0.1630 -0.1494
11621W        W31155   0.322  14.444   0.704  0.2097  0.3037  0.3179
11622W        W31156  11.015  19.104   3.575 -0.1409  0.2904  0.2319
11623W        W31157   2.725  14.973  13.334  0.0247 -0.3343 -0.1014
11624W        W31158   0.348  18.277  10.579  0.0747 -0.0598  0.0446
11625W        W31159   1.810  17.817  12.841  0.1024  0.0377 -0.2061
11626W        W31160   2.991  13.090   0.876 -0.0928  0.0393 -0.2532
11627W        W31161   1.009  12.372  12.023  0.0496  0.0721 -0.1743
11628W        W31162   6.958   9.596  12.550  0.2481 -0.0656  0.0139
11629W        W31163   5.212   3.500   3.563 -0.0740  0.2473 -0.1241
11630W        W31164   8.421   2.689  10.992 -0.2321  0.4373 -0.2417
11631W        W31165  10.498   7.309   1.364 -0.0550 -0.2727  0.1013
11632W        W31166   4.361  15.473   3.045 -0.0004  0.3716  0.0144
11633W        W31167   2.304   3.493  12.546 -0.2580  0.1477  0.0089
11634W        W31168  17.455  16.040   0.759 -0.2277 -0.4483 -0.0587
11635W        W31169   9.756  17.111  13.356 -0.0768 -0.2299 -0.0275
11636W        W31170  15.578  11.922   2.150 -0.2382 -0.0605 -0.1780
11637W        W31171   4.337   1.906   1.474 -0.2543 -0.2023  0.0202
11638W        W31172  17.380   4.201  10.780 -0.1644 -0.1446 -0.0730
11639W        W31173  19.122   3.799  13.720 -0.0587  0.0368  0.2881
11640W        W31174   0.064  18.027  12.888  0.1419  0.0152  0.3033
11641W        W31175  17.001  14.069   2.605 -0.3448  0.1078  0.0751
11642W        W31176  13.452  15.636   2.525  0.3189  0.0313 -0.4154
11643W        W31177   3.266  10.670   3.441  0.3299  0.1359  0.0079
11644W        W31178  11.769   3.023  14.030  0.1718 -0.5242  0.0503
11645W        W31179   9.430   3.801   2.609 -0.0148  0.0774  0.1919
11646W        W31180   6.979  12.763  10.956 -0.2145  0.1140 -0.0965
11647W        W31181   7.941  11.544  12.502  0.0864 -0.0687  0.1311
11648W        W31182   7.772  17.149   9.787 -0.3005  0.1535  0.1811
11649W        W31183  13.453   2.535   3.287  0.2064 -0.2352  0.1370
11650W        W31184  16.714   5.971  14.159 -0.1418 -0.1443  0.1707
11651W        W31185   8.235   5.819  11.510 -0.0158  0.2272 -0.1189
11652W        W31186   6.100  13.252  14.036 -0.1384  0.2563 -0.0008
11653W        W31187   1.314  15.579  11.749  0.2038  0.5427 -0.2047
11654W        W31188  15.762   5.503  12.885  0.2159 -0.1044  0.0526
11655W        W31189   8.126  10.863   2.607 -0.2096 -0.2174 -0.1272
11656W        W31190   2.155   7.265  12.470  0.4196 -0.0908 -0.0568
11657W        W31191   8.676  18.181   2.245 -0.1326 -0.0731  0.0666
11658W        W31192   1.733  15.921   1.473 -0.3593  0.1263  0.0954
11659W        W31193  19.446   2.368   2.003  0.2717  0.3871 -0.0260
11660W        W31194   2.256  17.463   1.108  0.0113  0.2289  0.2346
11661W        W31195  17.490  10.972  13.373 -0.1907  0.1543 -0.0723
11662W        W31196  10.173   6.981  12.385  0.2368  0.2524  0.2878
11663W        W31197  12.934  16.010  13.244  0.0763  0.1756 -0.1504
11664W        W31198  14.369   6.504  12.251 -0.1271 -0.1247 -0.2487
11665W        W31199  12.512   1.687  12.375  0.1259 -0.2954  0.1053
11666W        W31200  15.648   8.917   3.483  0.3795 -0.0477 -0.4015
11667W        W31201   7.650  19.374  10.703 -0.0353  0.0877  0.0577
11668W        W31202  17.617  15.932   2.282 -0.0646 -0.2264  0.0169
11669W        W31203   6.273  16.010   4.830  0.0719 -0.1061 -0.0335
11670W        W31204   4.089   7.652   1.238 -0.6133 -0.2114  0.1422
11671W        W31205  19.177   3.121   3.973 -0.1094  0.3847 -0.0157
11672W        W31206  10.838   1.689   3.497  0.1426 -0.1134 -0.0418
11673W        W31207   2.496  13.083   0.769  0.0842  0.2247 -0.0203
11674W        W31208  10.043   5.727  11.907  0.0854 -0.0210  0.0070
11675W        W31209  13.697   0.500  11.544  0.0072 -0.1591  0.2895
11676W        W31210   1.515  12.914  10.607 -0.2013 -0.3425  0.2826
11677W        W31211  17.801   8.154  12.645  0.2336 -0.3795 -0.0583
11678W        W31212   7.648  11.703  11.147 -0.1250 -0.0309 -0.0129
11679W        W31213  14.605  11.144   1.423  0.0775  0.3005  0.0852
11680W        W31214  16.204   1.000  11.193 -0.0642  0.0129 -0.2826
11681W        W31215  14.956   0.067  12.408 -0.1383  0.0399  0.1042
11682W        W31216  14.594  18.377  12.992  0.1000  0.0430 -0.1285
11683W        W31217   0.686   9.226   0.331  0.2210 -0.2034  0.1967
11684W        W31218   3.664   7.671   4.243  0.0836 -0.0595  0.1857
11685W        W31219  17.862   8.240   1.590 -0.1912  0.3211 -0.0627
11686W        W31220   1.650  17.642  11.946  0.1262 -0.1052 -0.0586
11687W        W31221   3.863  17.105   2.827 -0.2754  0.0380  0.0905
11688W        W31222   5.192  13.325   2.867 -0.0100 -0.3433  0.0648
11689W        W31223  13.359   2.734  12.079  0.0019  0.0657 -0.0460
11690W        W31224   2.199  18.861   3.095  0.0950 -0.2680  0.1965
11691W        W31225   9.584  13.956   1.831  0.0171 -0.2495 -0.1565
11692W        W31226  17.907   8.728  13.675  0.0205 -0.0600  0.3650
11693W        W31227   4.417  18.203   5.241 -0.0717  0.1486  0.0366
11694W        W31228   6.002  10.234  10.238 -0.0256  0.1887  0.1172
11695W        W31229  16.042  10.240   4.211  0.3578  0.1982 -0.0931
11696W        W31230  15.491   6.320   3.301 -0.4291  0.1607  0.4885
11697W        W31231   2.518  12.505   1.715  0.1248 -0.1806 -0.0873
11698W        W31232  11.933   1.201   2.125 -0.2197  0.1928  0.2313
11699W        W31233  15.607   6.189  10.899  0.1395 -0.2303 -0.1435
11700W        W31234  15.047  16.276   0.011  0.3124  0.1898  0.2111
11701W        W31235  11.705  11.881   3.214  0.1306 -0.4238  0.2553
11702W        W31236  17.077  10.203  13.021 -0.0412  0.2198 -0.1636
11703W        W31237  17.508  17.645  10.307  0.0254 -0.1143 -0.0238
11704W        W31238   6.536  13.710   1.406  0.1357  0.0313  0.1771
11705W        W31239   3.252   1.404  12.983 -0.2048  0.1077  0.0803
11706W        W31240   7.097  13.325  12.525 -0.0002 -0.1511 -0.0730
11707W        W31241  13.451   9.283  14.340  0.3037 -0.1170 -0.2478
11708W        W31242   1.304   5.694   1.813 -0.2482 -0.0309 -0.0232
11709W        W31243  15.410  16.566  13.181 -0.0029  0.1421  0.1460
11710W        W31244  19.318   9.489  11.719  0.2913 -0.0504  0.1451
11711W        W31245  14.480  17.909  10.575 -0.1535  0.0261  0.3446
11712W        W31246  12.401   0.298  12.817 -0.0073 -0.3718 -0.2226
11713W        W31247   8.394  12.760   1.562 -0.2968  0.1814 -0.3015
11714W        W31248   5.202   5.846  12.614  0.2353 -0.0938  0.0824
11715W        W31249  17.166   0.171   0.535  0.1147  0.2132  0.1403
11716W        W31250   9.102   0.190  13.081  0.1372 -0.3555  0.0078
11717W        W31251   8.309  14.009  12.314  0.1657  0.1305  0.1720
11718W        W31252   7.078   2.902   0.492 -0.2051 -0.0598  0.0002
11719W        W31253   4.468   3.425  13.235  0.1852 -0.1323 -0.2040
11720W        W31254   7.797  13.404  12.917 -0.2111 -0.1606  0.4244
11721W        W31255   2.218   7.910   4.274 -0.0734  0.0170  0.0738
11722W        W31256   5.939  15.217   1.954  0.2116  0.1556  0.0804
11723W        W31257   8.971   4.477  10.676  0.2694 -0.0863 -0.0924
11724W        W31258   7.038   8.971   0.700 -0.3552  0.1183 -0.2731
11725W        W31259   8.265  17.746  11.966 -0.3241 -0.1337  0.1404
11726W        W31260   7.458  11.212   1.783 -0.1961  0.1198  0.0403
11727W        W31261   6.315   9.761   3.153 -0.1052  0.1753  0.2702
11728W        W31262  10.937   2.197   0.468  0.0869 -0.0066 -0.0626
11729W        W31263  14.947  14.555  11.917 -0.1012 -0.5104 -0.2874
11730W        W31264   2.336   6.984   0.306  0.0996  0.1753 -0.0917
11731W        W31265  13.511   5.850   1.310 -0.0260 -0.1957 -0.2663
11732W        W31266   1.766   7.831  13.987  0.0921  0.2721  0.1159
11733W        W31267  11.030   2.354   1.945 -0.1213 -0.3935  0.2131
11734W        W31268  10.497   4.625   0.091 -0.1872 -0.0922 -0.1410
11735W        W31269   8.787   0.612  12.410  0.1821  0.1567 -0.2557
11736W        W31270  12.010   5.704   3.268 -0.0013 -0.2555 -0.0292
11737W        W31271   8.660   2.710   1.313  0.0577  0.1968  0.3367
11738W        W31272  11.846  11.915   0.191  0.3586  0.2399  0.2651
11739W        W31273  14.498  10.536  13.655 -0.2975  0.1406  0.2360
11740W        W31274   3.439   4.620   3.273 -0.1816  0.0184  0.3232
11741W        W31275  16.797   4.162   2.783  0.0557  0.1299  0.1882
11742W        W31276  14.061  11.077  13.015  0.0181 -0.0498  0.2643
11743W        W31277   9.827  10.280   4.041 -0.1478  0.3967 -0.1400
11744W        W31278  13.771  12.500   0.598 -0.0022  0.0353 -0.0373
11745W        W31279  11.667   8.607  12.436 -0.2600  0.0849 -0.1603
11746W        W31280  15.779  12.476  13.345  0.0367  0.5729 -0.0222
11747W        W31281   4.762  18.288   2.340  0.0287  0.1030  0.1386
11748W        W31282  11.941   5.028   1.972 -0.0777 -0.0254  0.1512
11749W        W31283  11.617   4.976  11.196  0.1188 -0.2063 -0.3829
11750W        W31284   6.504  10.857   2.082 -0.2677 -0.1222  0.4471
11751W        W31285   5.924  11.320   5.352 -0.3470  0.1376 -0.0012
11752W        W31286  19.149  11.906  11.982  0.1038 -0.1073 -0.1127
11753W        W31287   7.341  11.668   0.543 -0.2274  0.2271  0.1089
11754W        W31288  18.780  16.282  10.802 -0.0058 -0.0065  0.0646
11755W        W31289  10.698  18.031  13.223 -0.2075 -0.3629 -0.0060
11756W        W31290   3.974  11.117  13.919 -0.0997 -0.1034 -0.1475
11757W        W31291   8.570   8.270   2.024 -0.0752  0.1010  0.0253
11758W        W31292  16.271   6.753   9.741 -0.0973  0.1988  0.1131
11759W        W31293   5.588  18.474   3.965 -0.1369  0.2898 -0.1870
11760W        W31294   4.625   4.250  10.741 -0.2277  0.1553 -0.0889
11761W        W31295  18.721  19.119   3.409  0.2106 -0.1814  0.1333
11762W        W31296  15.287  17.333   0.542 -0.2014  0.0345  0.0350
11763W        W31297  14.839  19.071  14.173  0.1112  0.3920  0.1622
11764W        W31298   7.894  10.423   1.250 -0.0357 -0.2969  0.0005
11765W        W31299   6.271  13.623   1.788 -0.0244  0.3264 -0.3240
11766W        W31300  12.520  16.139  11.932 -0.0525 -0.0490 -0.1674
11767W        W31301  11.715  10.289   4.859 -0.0196 -0.2527 -0.0800
11768W        W31302   7.887  16.911   4.241  0.0189 -0.1252  0.1443
11769W        W31303   9.616  12.058   0.808  0.3785  0.0043 -0.0344
11770W        W31304   9.906   9.018  12.543  0.0599 -0.0521  0.2523
11771W        W31305  18.944   5.971   0.964  0.1242  0.1547  0.2187
11772W        W31306   7.324  18.720  11.810 -0.0944  0.1775 -0.0190
11773W        W31307   0.301   9.677  10.329 -0.0757 -0.0866  0.0099
11774W        W31308   4.666   8.708   3.890 -0.0296 -0.2285 -0.0008
11775W        W31309   9.592   3.465  12.432  0.0810 -0.1128  0.2146
11776W        W31310  11.140  17.923   0.834  0.0249  0.0350  0.1052
11777W        W31311  15.073  13.652  11.985  0.1225  0.0154  0.1259
11778W        W31312  10.631   4.458  13.776  0.2076  0.2074 -0.0332
11779W        W31313  15.734  11.207   2.594 -0.1649 -0.1201 -0.1147
11780W        W31314  12.432  17.057  10.844  0.0530  0.0823 -0.2425
11781W        W31315   4.446   5.347   2.400  0.2079 -0.0419  0.0384
11782W        W31316   7.272  15.533   0.273 -0.0435  0.2075 -0.1885
11783W        W31317   2.793  11.218  10.820 -0.0773  0.1217 -0.0885
11784W        W31318  19.064  10.988   4.616 -0.1394  0.2438 -0.3882
11785W        W31319   6.105  15.766  10.941 -0.1498  0.2299  0.2270
11786W        W31320   8.779   1.323   3.193 -0.0499 -0.1987 -0.0742
11787W        W31321   9.501   7.419   0.488  0.2860 -0.0986 -0.0750
11788W        W31322  17.697  11.397  11.520  0.2324  0.3551  0.1409
11789W        W31323   1.572   7.158  13.934 -0.3909 -0.0431  0.0910
11790W        W31324   7.541  10.127   4.028  0.1061  0.2617 -0.1758
11791W        W31325   7.761  12.958  10.422 -0.1583 -0.0917 -0.2377
11792W        W31326   3.874  10.317   9.867 -0.0592  0.2811  0.1659
11793W        W31327   5.955   5.168   1.241  0.4067 -0.1049 -0.0971
11794W        W31328   7.232   2.254   0.991 -0.0288 -0.2255 -0.0705
11795W        W31329  12.708   7.415   3.786 -0.2806  0.0326 -0.0405
11796W        W31330  14.425   8.044   2.464 -0.1383  0.0028  0.0719
11797W        W31331  18.567  17.564  10.575  0.2154  0.1370  0.0998
11798W        W31332   0.901   1.468   2.146 -0.0166  0.2489 -0.0026
11799W        W31333  10.592   3.178  14.113 -0.3205  0.0044 -0.0773
11800W        W31334  19.407   8.014   3.748 -0.4020  0.3987  0.1508
11801W        W31335   6.719  16.771   1.336 -0.0597  0.1310  0.2122
11802W        W31336   4.729   4.586  12.462  0.0177 -0.1789  0.2221
11803W        W31337  14.148  17.694   3.035 -0.0395 -0.0233 -0.1046
11804W        W31338  11.686  14.921   2.470 -0.0510 -0.1753 -0.0866
11805W        W31339  12.076   7.357   1.129  0.1592 -0.0070 -0.0289
11806W        W31340   9.566   7.663  13.616 -0.1286  0.0862 -0.4313
11807W        W31341  17.930  17.193   3.390 -0.0759  0.0980 -0.1686
11808W        W31342   3.121   9.428   1.761  0.1024 -0.2061  0.2268
11809W        W31343  14.584  11.476   0.485  0.1611  0.1310 -0.1410
11810W        W31344   5.040   4.625  12.021  0.1310  0.1049 -0.0081
11811W        W31345  14.407   3.281   2.193 -0.1377  0.2302 -0.1048
11812W        W31346  18.296  15.713  12.239  0.1150  0.3340  0.0761
11813W        W31347  15.835   0.798  13.096  0.3414  0.2076 -0.2175
11814W        W31348   9.396  14.382  13.469 -0.2600 -0.1026  0.2502
11815W        W31349  10.239  10.460  12.769  0.0922  0.2586 -0.0971
11816W        W31350   7.530  15.676  12.223 -0.1019 -0.0144  0.2922
11817W        W31351   4.699  19.396  12.024 -0.0802 -0.2244  0.0650
11818W        W31352   2.905  13.686   2.444 -0.3693 -0.1112  0.0814
11819W        W31353   2.345   1.885  11.896 -0.0166 -0.2823 -0.3072
11820W        W31354  14.222  18.475   4.347 -0.1882 -0.3232 -0.1560
11821W        W31355  19.042  13.887   2.702 -0.1806  0.1196 -0.0550
11822W        W31356  15.132  11.076   4.021 -0.0194 -0.2765  0.0485
11823W        W31357   9.280   1.520   2.400 -0.0764  0.0971 -0.0863
11824W        W31358   3.624   2.095   0.743 -0.1779 -0.1805  0.0530
11825W        W31359   9.391  10.760  12.926  0.0615  0.0432 -0.1846
11826W        W31360  17.183   6.087  14.328  0.3761 -0.1546  0.0602
11827W        W31361  17.786  14.996   2.400  0.0072  0.0145  0.1045
11828W        W31362   6.529  13.091   3.914  0.1322  0.2450  0.4232
11829W        W31363   0.411  12.592   1.212  0.0807 -0.0064  0.1415
11830W        W31364   7.690   1.978   2.437  0.1084 -0.2876 -0.1646
11831W        W31365   7.879   4.250  14.129  0.0574 -0.0060  0.0581
11832W        W31366  11.236   2.243  12.227  0.0574 -0.0841 -0.0369
11833W        W31367  14.011  12.712  13.613  0.0576 -0.0423 -0.0324
11834W        W31368   3.430   4.551   1.421 -0.1719 -0.2473 -0.1982
11835W        W31369   7.975  12.357  12.318  0.1796  0.0193  0.1153
11836W        W31370  16.386   1.173  11.832 -0.0612  0.1799  0.2024
11837W        W31371   3.002   8.246   2.327 -0.2726 -0.5775 -0.1841
11838W        W31372   1.462  10.397  12.435  0.3858  0.0620 -0.1374
11839W        W31373  11.478   0.166  13.374  0.2918  0.0967  0.2379
11840W        W31374   5.575   4.498   2.876  0.1642  0.0315 -0.0425
11841W        W31375   4.272  18.729  10.769  0.0853 -0.2819  0.0564
11842W        W31376   9.774  12.540   0.871  0.1887 -0.1665  0.2417
11843W        W31377  11.129  14.941   0.875 -0.1015 -0.2114  0.2639
11844W        W31378   5.513  12.629  13.462  0.0311 -0.1924  0.3093
11845W        W31379  16.964  15.286   1.980 -0.4634  0.1224  0.1288
11846W        W31380   2.240  18.424   0.881 -0.1053  0.2206 -0.0135
11847W        W31381  18.334   1.460   0.508 -0.1571  0.0787  0.0290
11848W        W31382  13.216  14.453   0.607 -0.1114  0.3322 -0.0059
11849W        W31383   7.492   0.567  13.405  0.0976 -0.2062  0.0182
11850W        W31384   9.202   9.323  13.252 -0.0488 -0.4641  0.1841
11851W        W31385  14.707  15.237   0.491 -0.2654 -0.3275 -0.3493
11852W        W31386  10.276   2.741   3.112 -0.4189  0.0098  0.1283
11853W        W31387  14.354   2.850   4.336  0.2073 -0.2953  0.0688
11854W        W31388   9.019  18.476   2.013 -0.0222 -0.0258 -0.2813
11855W        W31389  16.988   5.547   4.022  0.1627  0.0760 -0.1564
11856W        W31390   0.249  18.930   2.292 -0.1436  0.1266  0.2701
11857W        W31391  10.104   5.842  14.171 -0.1186 -0.1902  0.1336
11858W        W31392   2.035   3.005   2.822 -0.0664 -0.0136  0.1097
11859W        W31393  11.509  18.922  12.488 -0.0679  0.0754 -0.1347
11860W        W31394   4.106   9.519  12.826  0.2822 -0.0068  0.0340
11861W        W31395  15.792   8.984   2.195  0.2083  0.0639 -0.1889
11862W        W31396   1.415  15.875   1.917  0.3379 -0.0449 -0.1231
11863W        W31397  11.942   9.451   2.481  0.0439 -0.1231  0.0106
11864W        W31398   1.113  18.213  11.167 -0.0186  0.2246 -0.1349
11865W        W31399  14.756  10.233   2.832 -0.1046  0.0778  0.2046
11866W        W31400  14.977  16.674   2.312  0.2400  0.2036  0.0462
11867W        W31401   8.185   9.423   4.502 -0.1101  0.0073  0.0092
11868W        W31402  13.718  11.622   0.994  0.1179 -0.0986 -0.1450
11869W        W31403  17.070  15.459  13.791  0.1381  0.0375 -0.1366
11870W        W31404  12.566   6.975   1.990  0.0799 -0.1097  0.0563
11871W        W31405  11.924   4.772  11.987  0.1164 -0.1418 -0.1200
11872W        W31406  18.960  12.720   2.419 -0.1364  0.1665 -0.0985
11873W        W31407   8.467   1.423   0.951 -0.2729  0.0945  0.3674
11874W        W31408  18.560   4.912  10.687  0.1225 -0.1846  0.0104
11875W        W31409   3.733   1.703  13.828 -0.1786  0.0038  0.3164
11876W        W31410   5.310   1.516  11.730 -0.2157  0.1452 -0.1202
11877W        W31411  19.125  16.324  13.981 -0.1818  0.1108  0.1965
11878W        W31412  14.667   8.384  12.046  0.1598  0.5820 -0.1059
11879W        W31413  19.525   5.971   1.418  0.1008  0.0761 -0.3477
11880W        W31414   9.719  14.831   0.625  0.0247  0.0478 -0.4293
11881W        W31415   5.927   2.643   2.920  0.2249  0.0380  0.3420
11882W        W31416   1.447  11.755   1.108 -0.3442 -0.1708 -0.3101
11883W        W31417  18.449  11.876   1.926 -0.1582 -0.0168  0.0709
11884W        W31418   6.409  16.144   4.163 -0.0229 -0.0980  0.1875
11885W        W31419   6.231   0.925  11.365 -0.0098 -0.1924  0.0764
11886W        W31420  19.183  18.491  13.986 -0.0821  0.1383 -0.0415
11887W        W31421   6.467  15.189  12.647 -0.2934 -0.2460 -0.1984
11888W        W31422  13.614  12.883   3.193 -0.1076 -0.1412 -0.0048
11889W        W31423  13.350  15.789  11.173 -0.0649  0.0267 -0.1061
11890W        W31424  18.436  10.209   1.265  0.1330  0.1535  0.0902
11891W        W31425   2.921  11.329   0.033 -0.3390 -0.0372  0.3600
11892W        W31426   5.506  11.285  13.246  0.0636 -0.1439  0.3057
11893W        W31427   2.051  15.992   0.368  0.0340 -0.1777  0.1060
11894W        W31428   4.750   0.127   0.084  0.1040 -0.0087 -0.2618
11895W        W31429  12.100   3.512   2.830  0.0102 -0.1389 -0.0780
11896W        W31430  15.769   1.243   3.447  0.0447  0.0857  0.1539
11897W        W31431  14.079   5.568   2.031 -0.0186  0.0312 -0.0666
11898W        W31432  15.058  14.050  13.326  0.1253  0.1057 -0.2932
11899W        W31433  11.084   3.841   1.621 -0.2000  0.4917  0.0304
11900W        W31434  17.532   6.726   1.840  0.2915  0.1980  0.3646
11901W        W31435   6.465  15.221   1.808  0.2351  0.1635 -0.3717
11902W        W31436  16.662  16.542   1.032  0.1448 -0.1443  0.3500
11903W        W31437  19.409   6.364   0.364  0.0529 -0.4190  0.2305
11904W        W31438  10.165  13.959  12.174  0.1630  0.2814  0.2748
11905W        W31439  11.702  12.179  12.714 -0.0116  0.0918  0.0293
11906W        W31440  10.936   2.421  13.551 -0.1983  0.1175  0.2807
11907W        W31441   9.165   8.666  13.534 -0.3028 -0.2152  0.1133
11908W        W31442  18.611  19.535  10.838  0.2510 -0.1267  0.2206
11909W        W31443   7.727  11.505   9.681  0.1855  0.0578 -0.1236
11910W        W31444   1.668  16.584  13.134 -0.1967  0.4033 -0.2034
11911W        W31445  16.917  15.281   0.784 -0.0926 -0.3612  0.0606
11912W        W31446   3.736   5.882   0.690  0.2264  0.2355  0.3116
11913W        W31447  12.750   7.277  14.099 -0.0384 -0.3259  0.1430
11914W        W31448  13.551  14.202   2.571  0.0293 -0.0644  0.3414
11915W        W31449   3.998   6.327  12.250  0.2552 -0.0891 -0.1349
11916W        W31450  10.452   0.913   1.337 -0.0920 -0.0342 -0.1233
11917W        W31451  17.903   8.546   3.805 -0.0038 -0.1637 -0.0822
11918W        W31452   5.172  17.097  13.625 -0.2182 -0.1251 -0.0232
11919W        W31453   7.290  10.919  14.348  0.1060 -0.2227  0.0094
11920W        W31454  10.391   5.877   1.747  0.1266 -0.1471 -0.1617
11921W        W31455   5.043   9.328  11.056 -0.0405 -0.1140 -0.0783
11922W        W31456   2.909   3.188   0.794  0.3168 -0.3385 -0.1052
11923W        W31457  19.217  18.511   3.189 -0.1885 -0.0450 -0.2220
11924W        W31458   0.585   1.024   0.205 -0.1372  0.0936  0.0231
11925W        W31459  16.129   8.804  10.601 -0.0173  0.0604  0.1518
11926W        W31460  13.559   5.610  12.091  0.2799  0.3063  0.0139
11927W        W31461  17.927   7.070   3.167 -0.3582 -0.2719  0.3303
11928W        W31462   6.943  15.218  12.557 -0.0953 -0.2006  0.0903
11929W        W31463  16.931   1.932  10.314 -0.0383  0.2425  0.1867
11930W        W31464   7.333  11.888   3.397  0.0165  0.3263  0.1251
11931W        W31465  13.442   8.758  14.161  0.2578  0.1847  0.2258
11932W        W31466   5.601   9.210  11.861  0.0575 -0.1592  0.6820
11933W        W31467  12.638  13.066   0.306 -0.0141  0.0716 -0.0519
11934W        W31468  10.364  10.916  14.059  0.0252  0.4204  0.1392
11935W        W31469  17.848   1.084  14.043 -0.2602  0.1264 -0.1924
11936W        W31470  17.214  18.692   2.465  0.2392  0.0098  0.0025
11937W        W31471  16.611   5.877  10.704 -0.0135  0.5517 -0.0147
11938W        W31472   9.621   4.097   2.256 -0.0621  0.0233  0.1207
11939W        W31473   1.340  11.400  13.575 -0.0513  0.4094  0.1227
11940W        W31474   4.994   8.879   0.392  0.1114 -0.1690  0.1245
11941W        W31475   0.190   5.596   2.236  0.2478 -0.0551  0.0967
11942W        W31476  12.679   0.652  10.307 -0.0805 -0.2207 -0.1654
11943W        W31477   1.614  14.410   1.308 -0.1608 -0.4250 -0.0024
11944W        W31478  14.492   0.213  13.232 -0.2855 -0.2180 -0.2090
11945W        W31479   8.205  12.478   2.614 -0.1162 -0.1567 -0.0935
11946W        W31480   6.572   9.256  14.339 -0.1809  0.1481 -0.1109
11947W        W31481   1.827  12.929   1.230  0.0961 -0.0472 -0.0337
11948W        W31482   4.928  10.386  11.952 -0.1395  0.3000  0.1518
11949W        W31483   3.532   9.416   2.186 -0.3209 -0.3201 -0.1624
11950W        W31484   2.063  12.844   3.206  0.1286 -0.3064 -0.0055
11951W        W31485  17.135  10.502   1.840 -0.2228 -0.2164 -0.0123
11952W        W31486   3.338   4.349   0.098 -0.0530 -0.2174 -0.3444
11953W        W31487   9.105   2.929  12.987  0.3184  0.0294  0.0637
11954W        W31488   5.222   0.734   0.819 -0.3113  0.1914 -0.1623
11955W        W31489  19.018  18.541  11.777  0.1648  0.0589 -0.0419
11956W        W31490   1.548  15.904  13.936 -0.3543 -0.1391 -0.0235
11957W        W31491   5.935   3.657  14.130  0.0581  0.2127  0.1123
11958W        W31492  18.224   9.815  11.972 -0.0375 -0.0858 -0.2127
11959W        W31493  16.182  10.680  12.967  0.1763 -0.0655  0.2513
11960W        W31494   9.119  16.263   1.422  0.1706 -0.3112  0.1406
11961W        W31495  14.597  11.540  14.306 -0.0302  0.1770 -0.1050
11962W        W31496  11.802  12.680  11.928  0.1477  0.0186 -0.6795
11963W        W31497   4.969   3.913   2.225 -0.2623  0.3997  0.0567
11964W        W31498  13.022   4.899   0.648  0.0734  0.4262  0.1511
11965W        W31499  10.668  12.514   9.459 -0.3278 -0.0111  0.0624
11966W        W31500  14.443  18.956   0.078 -0.2827  0.1653 -0.0823
11967W        W31501   5.743  13.008  12.753 -0.3363 -0.3656  0.4841
11968W        W31502  12.078  14.711   0.548  0.1331  0.1315  0.0860
11969W        W31503   0.529  14.449  11.690  0.1183  0.0440 -0.2687
11970W        W31504   8.349   2.860  10.529  0.0095  0.1409  0.1055
11971W        W31505  12.648  12.687   1.953  0.1179 -0.2049 -0.1070
11972W        W31506   1.795   6.738  13.639 -0.0279  0.2631 -0.0092
11973W        W31507  17.413  13.388   3.332  0.1366  0.1442 -0.2034
11974W        W31508   5.294  11.129  10.903  0.0551 -0.0952 -0.1220
11975W        W31509   5.002   8.394  10.894  0.0775  0.0129 -0.0483
11976W        W31510  13.920   0.613   3.608  0.2134  0.0074 -0.4970
11977W        W31511  14.206   6.480  13.691  0.3602 -0.3315 -0.5886
11978W        W31512   6.272  15.857  13.622  0.2168 -0.1365  0.0235
11979W        W31513  10.096  11.064   3.672 -0.1098 -0.0981  0.2680
11980W        W31514  19.241  17.332   1.753 -0.3020 -0.0478  0.3237
11981W        W31515   5.976  13.395   9.346 -0.0861 -0.1244 -0.1193
11982W        W31516   9.915  16.827   4.823 -0.2482  0.1337 -0.0473
11983W        W31517   0.555  16.974   1.710 -0.0284  0.0150  0.0946
11984W        W31518  15.933  10.053  12.397 -0.0190  0.1132 -0.2826
11985W        W31519  11.821  18.182  11.810  0.3173 -0.2276  0.1527
11986W        W31520  10.995   3.066  14.346 -0.1660 -0.1553  0.1806
11987W        W31521  10.622   0.037  13.368  0.1503  0.0679  0.0339
11988W        W31522   6.834   5.708  11.632  0.1259 -0.3339  0.1155
11989W        W31523   7.243   9.069  14.024  0.1303 -0.3953 -0.0380
11990W        W31524  18.809   1.783  10.790 -0.1130 -0.0982  0.1364
11991W        W31525  11.722   5.957  12.458  0.0898  0.0904  0.0103
11992W        W31526   8.161  11.200   0.009  0.0737 -0.1997  0.0118
11993W        W31527  14.831   2.191   2.665 -0.0711  0.0699 -0.1308
11994W        W31528  16.950   8.597   2.136 -0.0074  0.0967  0.2239
11995W        W31529   1.394   8.146  13.798  0.0285 -0.1352 -0.1661
11996W        W31530  18.545   9.508  11.638  0.2237  0.0816  0.1404
11997W        W31531   3.400   9.000   1.935 -0.0997 -0.2919  0.0778
11998W        W31532  18.150  10.175  14.240 -0.2419 -0.0264 -0.2988
11999W        W31533   8.236   3.554  13.151 -0.0894  0.2233  0.1212
12000W        W31534  15.145  18.531   2.686  0.1496 -0.3280 -0.1128
12001W        W31535   9.982  16.647   0.857  0.1517 -0.1123 -0.2289
12002W        W31536  16.980   6.908  12.986 -0.0127  0.0341  0.1248
12003W        W31537   4.582  13.394  14.075  0.1485 -0.1339  0.0784
12004W        W31538  14.601   0.050   4.141 -0.1604 -0.2900 -0.1098
12005W        W31539  14.683   5.355   1.397  0.1414  0.0911 -0.1488
12006W        W31540   0.342  18.608  12.057 -0.0683  0.1602  0.1564
12007W        W31541  10.813   3.667   4.129 -0.0465  0.1173 -0.0019
12008W        W31542   8.108   7.409   9.406  0.0704  0.0856 -0.1227
12009W        W31543  15.270   2.157  12.388  0.0127  0.0327 -0.0651
12010W        W31544   9.194  12.568   3.217  0.3479  0.2441 -0.0866
12011W        W31545  16.353   5.127   3.700  0.0465  0.0438  0.2875
12012W        W31546   7.822   8.940  12.487 -0.2086 -0.2520 -0.0651
12013W        W31547  14.364  18.619  13.426  0.0220 -0.3066  0.0570
12014W        W31548   6.200   7.202   0.370 -0.2220 -0.3719 -0.0298
12015W        W31549   7.739  16.734   1.029 -0.1909  0.1004  0.3927
12016W        W31550   9.172   3.871  14.258  0.1197 -0.0948  0.5374
12017W        W31551   7.895  11.464   2.720 -0.0215  0.0659 -0.0870
12018W        W31552   1.648  17.804   9.682 -0.0675 -0.1003 -0.1180
12019W        W31553   9.158  17.762  10.837 -0.1247 -0.3085  0.0381
12020W        W31554  10.882  15.669  10.904 -0.0438 -0.1338  0.0170
12021W        W31555  12.869  17.741   3.751  0.2754 -0.0671  0.3086
12022W        W31556   7.491  10.418   4.446  0.1712  0.2695 -0.0352
12023W        W31557  13.531  14.004  10.667  0.0631  0.0155  0.0078
12024W        W31558   7.247   3.981  12.200 -0.0650 -0.0346  0.0036
12025W        W31559   4.698   4.579   1.440 -0.0486 -0.0399  0.2718
12026W        W31560   7.303   9.422   4.435  0.5108  0.1713 -0.1418
12027W        W31561   2.664   5.027  14.332  0.0889 -0.0353 -0.0248
12028W        W31562   6.378   2.348  11.590  0.0363 -0.0277 -0.0125
12029W        W31563   8.283   6.145  11.904  0.0908 -0.1081 -0.2095
12030W        W31564   1.566   2.356  12.966  0.1250 -0.0614  0.1550
12031W        W31565   4.826  11.939   1.119 -0.0938 -0.1263  0.0285
12032W        W31566   8.303   2.786  12.343  0.1196 -0.0107  0.3275
12033W        W31567   3.606  13.522   3.075 -0.4038  0.0182  0.2419
12034W        W31568  13.980   3.490   3.067 -0.2202  0.1335  0.0761
12035W        W31569   2.179  18.893  12.414  0.1163  0.5502  0.2680
12036W        W31570  10.385   9.354   1.086  0.0694 -0.1095  0.4464
12037W        W31571  17.101   4.250   1.258  0.2562  0.0446  0.0240
12038W        W31572  11.905   5.076  11.594 -0.0285 -0.0218 -0.0772
12039W        W31573   4.434  18.511   3.327 -0.1912  0.0346  0.0737
12040W        W31574   4.549  10.143  11.760 -0.0113  0.0959 -0.0028
12041W        W31575  14.968   4.904   1.442 -0.0560  0.1034 -0.0146
12042W        W31576   4.306  11.441  14.246  0.2202 -0.1384  0.4272
12043W        W31577   1.263  16.524  13.551 -0.3699  0.0895  0.0200
12044W        W31578  17.760   2.123  12.883  0.0196 -0.2251 -0.3135
12045W        W31579  19.119  12.022   1.541  0.3324 -0.1114 -0.1359
12046W        W31580   4.303  16.237  11.268 -0.0413  0.1877 -0.1301
12047W        W31581  18.105  11.067   0.632 -0.5063  0.3824 -0.1378
12048W        W31582   8.989  15.899   3.835  0.0180 -0.1352  0.0170
12049W        W31583   9.729  14.431   3.255 -0.0177 -0.3178 -0.1838
12050W        W31584  19.090  10.285  11.934  0.0744 -0.1577  0.1562
12051W        W31585   8.900   0.282   0.464 -0.4108 -0.3369 -0.0105
12052W        W31586   4.086  16.889  14.223 -0.1237 -0.0736 -0.3060
12053W        W31587   7.938   3.800   0.056 -0.2956 -0.1127  0.1248
12054W        W31588   7.461  18.267   1.458  0.2454  0.1550 -0.1230
12055W        W31589  10.320  15.172  11.023  0.1952  0.0969  0.1982
12056W        W31590  12.959  14.500  12.438  0.0489 -0.1207  0.1043
12057W        W31591   3.244  13.136  11.346  0.2262 -0.3146  0.1012
12058W        W31592  15.274  19.195   0.093 -0.0205 -0.1502 -0.1620
12059W        W31593   7.945   5.749  11.991  0.0985 -0.0856 -0.1880
12060W        W31594   0.770   6.126  12.680  0.2579  0.1085  0.1776
12061W        W31595   7.894  16.493   5.002  0.0348 -0.0916  0.2823
12062W        W31596  12.238   3.535  13.226 -0.1527 -0.0711 -0.2086
12063W        W31597  17.312  14.712  11.690 -0.0235 -0.1601 -0.2418
12064W        W31598   7.873   2.158  12.920 -0.0086  0.3492 -0.1330
12065W        W31599  16.082   9.205  10.918 -0.1313  0.3725  0.0867
12066W        W31600  10.446  10.398   2.529 -0.0657  0.3122  0.0862
12067W        W31601   2.468   3.349  12.065 -0.2069 -0.3091 -0.1644
12068W        W31602  15.279   6.432  12.134  0.0952  0.1667 -0.2814
12069W        W31603  12.843   2.771   1.244  0.1164  0.0729  0.1036
12070W        W31604   4.577  10.379  13.980 -0.0432 -0.1045  0.3575
12071W        W31605  11.358   4.330   3.245  0.0193  0.0093  0.1780
12072W        W31606   9.730  17.968   3.059 -0.0737 -0.2201  0.1455
12073W        W31607  17.186  12.014  10.436  0.0309 -0.0265 -0.0842
12074W        W31608  18.894   4.096  14.189  0.0755  0.1516  0.0224
12075W        W31609   1.620  16.999  12.711 -0.1710 -0.1424 -0.0058
12076W        W31610  13.024  13.294   0.037 -0.2016 -0.2808  0.1382
12077W        W31611  16.916   4.673  13.047  0.1916 -0.0044  0.1171
12078W        W31612   5.586   0.783  12.648  0.1364 -0.0599  0.2129
12079W        W31613  15.889  15.736  13.400 -0.0004  0.0521  0.1286
12080W        W31614   2.461  17.222  12.617 -0.0624 -0.4579  0.2374
12081W        W31615   1.891  12.337  11.785 -0.0351 -0.1084 -0.0609
12082W        W31616   6.013   4.050  11.446 -0.0067  0.2472  0.0860
12083W        W31617   1.154  16.652   2.561  0.4653  0.0366 -0.0092
12084W        W31618   4.445   7.824   3.035  0.0707  0.1760  0.0322
12085W        W31619   1.565   0.345  11.764 -0.1873  0.2535 -0.2254
12086W        W31620   3.523   5.899  11.306  0.4318  0.0983 -0.1710
12087W        W31621  18.643   4.543   0.842  0.1711  0.0510  0.0969
12088W        W31622  11.325  11.500   2.578  0.0461 -0.0047 -0.0687
12089W        W31623   4.408  10.150   4.220 -0.0642  0.0876  0.0229
12090W        W31624   2.291   3.407   1.277  0.1244 -0.4297  0.0827
12091W        W31625  14.887   0.130   3.372  0.1952  0.3007  0.0462
12092W        W31626   1.850   1.278   0.750 -0.3754  0.0713 -0.0540
12093W        W31627   6.571   0.363   3.123  0.2490  0.0025 -0.0827
12094W        W31628  12.674  15.622   4.728 -0.0454  0.0812 -0.0471
12095W        W31629   6.684  15.613  11.626 -0.0488  0.2099 -0.1652
12096W        W31630   3.099  14.248  12.794 -0.0423  0.3578  0.2869
12097W        W31631   0.652  12.488   4.647  0.2315 -0.3859 -0.2645
12098W        W31632  18.225  16.932  11.766  0.1684 -0.0283  0.1226
12099W        W31633   8.669   3.075  13.900  0.1499  0.1028 -0.1670
12100W        W31634  12.936  16.410  11.984  0.2200  0.0936  0.0452
12101W        W31635   8.412  16.566  10.227 -0.0075 -0.1805  0.1044
12102W        W31636  14.291   3.502   0.096 -0.1522  0.0055  0.1350
12103W        W31637   4.197  12.001  12.993  0.2363  0.0465  0.2647
12104W        W31638  15.335  12.416   4.261 -0.2002 -0.4643  0.0536
12105W        W31639   7.170  12.801  11.474 -0.0634  0.2102  0.0806
12106W        W31640   1.279   6.042   2.835 -0.0619  0.1540 -0.0485
12107W        W31641  17.201   2.901  12.871  0.0823 -0.0420  0.1761
12108W        W31642  16.858   1.761   3.830 -0.1927 -0.4313 -0.0977
12109W        W31643  10.517   9.169   2.216 -0.1515 -0.2471 -0.4114
12110W        W31644  13.972   8.626  13.413  0.2878 -0.0872 -0.0829
12111W        W31645  10.178  13.353  11.510 -0.1945  0.1114  0.0817
12112W        W31646  10.214  17.836  13.456 -0.2559  0.4697  0.0882
12113W        W31647   8.440  17.030  13.829  0.3004  0.1570  0.2678
12114W        W31648  12.047   2.531  10.251 -0.1088 -0.0222 -0.0741
12115W        W31649   1.084  18.104   2.408 -0.4344 -0.0341  0.0152
12116W        W31650   0.400   1.363  14.111  0.1994  0.2349  0.0134
12117W        W31651   1.003   8.494   1.101 -0.1687 -0.0479 -0.1997
12118W        W31652  18.395  14.586  13.424  0.2965 -0.0717 -0.0422
12119W        W31653   1.753   9.730  11.676  0.0078 -0.3683 -0.3401
12120W        W31654  17.897   6.897  10.966  0.1151 -0.1444 -0.3241
12121W        W31655   1.092   4.235   1.641 -0.1178 -0.3893 -0.0526
12122W        W31656   9.378  18.788  10.282  0.0027  0.2467 -0.2404
12123W        W31657   9.019   4.760  12.135 -0.1119 -0.2396  0.0806
12124W        W31658  16.484   2.553   3.270  0.0333 -0.1449  0.3266
12125W        W31659   6.918  17.561   0.779  0.0618  0.4363 -0.1277
12126W        W31660   7.014  10.595  10.398 -0.3410  0.1132  0.0867
12127W        W31661   0.705   1.386  13.645  0.1590  0.0253 -0.0553
12128W        W31662   1.200   7.659  14.142  0.0316 -0.0661 -0.1660
12129W        W31663   6.402   6.868   1.992  0.0055 -0.0513 -0.0706
12130W        W31664   3.859  18.122   3.950  0.1069 -0.0533  0.0535
12131W        W31665  18.499  14.945  12.663  0.1189 -0.1810  0.0915
12132W        W31666   7.569   0.011  11.194 -0.0178 -0.1950  0.0528
12133W        W31667   2.834  13.506  11.712  0.0337 -0.2504 -0.1594
12134W        W31668   0.489   3.518  12.896 -0.0547 -0.4124 -0.1382
12135W        W31669  18.453   7.304   1.606 -0.2424 -0.2046 -0.0831
12136W        W31670   2.658  17.589   0.798  0.1940  0.0310  0.0652
12137W        W31671  13.492  18.236  11.393 -0.0870 -0.1870  0.0088
12138W        W31672  16.719   2.385  11.873  0.0995 -0.2333 -0.0293
12139W        W31673   9.908  10.373   2.241  0.1417 -0.0063 -0.1078
12140W        W31674  16.373   3.558   0.368  0.2705  0.0505 -0.0437
12141W        W31675   9.398   9.993  14.259 -0.0815 -0.4524  0.0670
12142W        W31676  15.942  13.842   2.393 -0.4489 -0.1701 -0.2466
12143W        W31677   2.221  17.759  12.077  0.0667  0.1698  0.2675
12144W        W31678   6.007  18.935   1.470 -0.1273  0.0007  0.1749
12145W        W31679  13.924   5.783  12.551 -0.0700  0.1622  0.1761
12146W        W31680  12.536   1.856   3.338  0.0964 -0.0051 -0.0128
12147W        W31681  17.014   9.127  12.354  0.0712  0.0467  0.1076
12148W        W31682   2.145  18.998  11.838 -0.3998 -0.0091 -0.3081
12149W        W31683   1.250   6.007  12.535  0.0757  0.1625 -0.1355
12150W        W31684   8.237  13.807  10.318 -0.0861  0.4541 -0.2693
12151W        W31685   6.972   4.119   5.199 -0.0952  0.0731 -0.0415
12152W        W31686   4.078  11.050  13.423  0.2784  0.0455 -0.1097
12153W        W31687   3.296  18.496   3.528 -0.0030 -0.1814 -0.2145
12154W        W31688   6.333  18.012   3.150 -0.3060  0.1930  0.2305
12155W        W31689  14.510  17.178  12.335 -0.1172 -0.1296 -0.2788
12156W        W31690   8.738  13.677   0.803 -0.0491 -0.1086 -0.2064
12157W        W31691   0.561  13.196   2.926  0.0771  0.0603  0.2314
12158W        W31692   6.751   7.241  11.963  0.4126 -0.3563 -0.0530
12159W        W31693   7.204   3.925   3.664 -0.0958 -0.1509 -0.1740
12160W        W31694   8.136   4.434  12.153 -0.1790  0.2023  0.1624
12161W        W31695  12.428   0.527   1.478 -0.0063  0.0956 -0.0845
12162W        W31696  11.417   0.698  14.250 -0.3537  0.2713 -0.0235
12163W        W31697   3.332   6.259  11.572  0.0671  0.3395 -0.3187
12164W        W31698   3.662  12.944   2.256 -0.0687  0.1613  0.1837
12165W        W31699  11.916  13.648  10.985  0.3737 -0.1491 -0.1520
12166W        W31700   0.887   6.976  10.547  0.0407  0.1136  0.0654
12167W        W31701  11.896   3.515   9.420 -0.3268 -0.1149  0.0735
12168W        W31702  16.979  15.301   2.738  0.0745  0.0376 -0.2843
12169W        W31703  10.027  10.584   3.720  0.2164 -0.0383 -0.2628
12170W        W31704   4.340  18.831   0.076  0.2298 -0.1516  0.0714
12171W        W31705   8.689   7.428  10.719 -0.0467  0.1548  0.1299
12172W        W31706   4.969  16.550  12.263 -0.0346  0.1543 -0.2226
12173W        W31707  15.150   3.675   5.120 -0.1484 -0.3150  0.3394
12174W        W31708  14.469  11.370  10.955  0.1261 -0.0375  0.0338
12175W        W31709   7.632   3.704  11.297  0.1027  0.3388  0.0535
12176W        W31710  19.257   7.181   1.534  0.0763  0.1136  0.1205
12177W        W31711   4.816   4.935  12.987  0.0143 -0.0532 -0.0785
12178W        W31712   7.287   4.358   2.701  0.1142  0.0320  0.1751
12179W        W31713  12.191   4.507   1.746 -0.1383  0.1625 -0.1436
12180W        W31714   1.297  18.148  10.598  0.0621  0.0257  0.0168
12181W        W31715   0.737   7.219   2.300  0.2600 -0.1178  0.1629
12182W        W31716  11.413   2.368   2.499 -0.2344  0.2396  0.0347
12183W        W31717   0.828  14.495  12.998 -0.1079  0.1871 -0.1804
12184W        W31718  14.683  13.639   3.355 -0.1612 -0.1848 -0.0004
12185W        W31719   7.605  13.395  12.416 -0.1786 -0.1376  0.2214
12186W        W31720   2.237  10.027  10.983 -0.0123 -0.1706 -0.0789
12187W        W31721  11.183  15.108  10.209 -0.2045 -0.0055  0.0835
12188W        W31722   0.817  14.397  10.758 -0.0711 -0.0816  0.1930
12189W        W31723  17.170   5.148   0.374 -0.2285  0.0140 -0.1060
12190W        W31724   6.559  16.305  14.226 -0.0491  0.1654  0.0500
12191W        W31725   8.020   1.547  10.968  0.0012  0.0099 -0.0072
12192W        W31726  19.072  10.394   0.017  0.0056 -0.2411  0.1702
12193W        W31727   5.628  18.817  11.386 -0.3010 -0.0564  0.2171
12194W        W31728   3.855   6.664   1.072 -0.3743 -0.2055  0.1622
12195W        W31729  13.081  16.559   2.548  0.2075 -0.3534 -0.3774
12196W        W31730  14.378  17.955   0.176 -0.1281 -0.0846 -0.0167
12197W        W31731  10.931   0.349  12.151 -0.0855 -0.3622 -0.0432
12198W        W31732  11.789  14.774   1.418 -0.1829 -0.3660 -0.3350
12199W        W31733   1.142   4.206  13.204 -0.2364 -0.0110  0.0770
12200W        W31734  16.822  15.013   1.366 -0.2061 -0.0876  0.0134
12201W        W31735   1.260  12.580   0.784  0.1032  0.0372 -0.1271
12202W        W31736  18.199   3.291  11.563 -0.1024 -0.3079 -0.2941
12203W        W31737  13.333  17.597  14.153 -0.0992 -0.0443 -0.1462
12204W        W31738  19.431   2.956   3.537 -0.0365 -0.0346  0.1435
12205W        W31739  14.875   0.748  11.436 -0.0223  0.0483 -0.1268
12206W        W31740  13.152   4.337   2.697 -0.1693  0.0675  0.0618
12207W        W31741  15.911  12.064   9.974 -0.0770  0.3513 -0.0042
12208W        W31742  19.454  10.535  13.805 -0.0450 -0.1604 -0.1529
12209W        W31743  11.554  19.176  13.526  0.0953 -0.3515 -0.1702
12210W        W31744  16.677  18.112  10.991 -0.2376  0.0814 -0.0547
12211W        W31745   8.136  19.229  10.535  0.0921 -0.3379  0.1716
12212W        W31746  10.440  14.577  14.282 -0.0869 -0.1011 -0.0236
12213W        W31747   4.476  15.047  11.912 -0.0391 -0.1915  0.1051
12214W        W31748   6.064   4.582   4.482 -0.3388  0.0369 -0.0237
12215W        W31749  14.961   7.525   2.100 -0.0069  0.0260 -0.0357
12216W        W31750   6.326  13.709  11.597 -0.5511 -0.1705  0.1600
12217W        W31751   2.644   4.257  11.356 -0.0916  0.1240  0.1623
12218W        W31752  11.675  17.804  10.561 -0.0452  0.3356 -0.0377
12219W        W31753  11.984  11.351  11.698  0.0085  0.2720 -0.1146
12220W        W31754  17.544  10.497   1.533  0.0553 -0.1443 -0.0525
12221W        W31755  13.623  18.144   0.778  0.0124 -0.0154  0.0551
12222W        W31756   7.511   1.838   1.047  0.1779 -0.1256  0.4163
12223W        W31757   1.713   7.617   2.694  0.5253 -0.1627  0.0922
12224W        W31758  14.933   5.811  13.217 -0.1508 -0.0343 -0.0968
12225W        W31759  17.708   3.518  14.185 -0.2210  0.1244 -0.2467
12226W        W31760   4.765  17.494   3.089  0.0332 -0.2046  0.2023
12227W        W31761   7.098   3.493  10.562  0.1437  0.1122 -0.1071
12228W        W31762  19.407  15.055  11.494  0.0038 -0.2013  0.3625
12229W        W31763   8.450   0.557   1.445  0.0473  0.0602  0.1666
12230W        W31764  13.061   5.248   2.655  0.0376  0.1021 -0.0860
12231W        W31765  17.669   8.733   1.373 -0.2370 -0.0290 -0.0591
12232W        W31766   0.662   1.230  12.933 -0.0295  0.1825  0.0963
12233W        W31767  15.527   6.855  10.800 -0.0954  0.2760  0.1868
12234W        W31768  18.930  11.473  11.818  0.3199 -0.5131 -0.0042
12235W        W31769  15.112   8.383   0.509 -0.4097  0.1008  0.0583
12236W        W31770   5.099   6.035   1.735 -0.0215 -0.0357 -0.2559
12237W        W31771  16.575  18.815   4.017  0.1027  0.1591 -0.2275
12238W        W31772  12.220  14.583   3.167 -0.4589 -0.0134  0.1011
12239W        W31773  17.039   5.013   0.861  0.1953 -0.5672  0.1711
12240W        W31774  14.108  15.379  11.327  0.1765  0.0643  0.1539
12241W        W31775   2.020   7.290   2.852 -0.0981 -0.2014  0.1206
12242W        W31776  14.906   2.262  10.185  0.1432 -0.1258  0.1021
12243W        W31777   0.792  14.230   0.611 -0.0211  0.1444  0.0327
12244W        W31778   2.014  15.668  13.795  0.1645 -0.0799 -0.2175
12245W        W31779   6.949  11.125   2.976  0.0091 -0.2236 -0.0310
12246W        W31780  14.873   3.496  12.166  0.0201  0.0512  0.3419
12247W        W31781  12.422  11.157  11.973 -0.2211 -0.0444 -0.0152
12248W        W31782  15.361  19.517  13.693  0.0870 -0.0330 -0.1719
12249W        W31783  12.026  18.307   1.752 -0.0625  0.0016 -0.0369
12250W        W31784   4.146  12.951   2.540 -0.1275 -0.1344  0.2477
12251W        W31785   8.779  12.356   1.306  0.1492 -0.2631  0.0004
12252W        W31786  15.946   1.868  13.678 -0.1450  0.0738 -0.0743
12253W        W31787  14.639   5.471   4.222 -0.1160 -0.0588 -0.1851
12254W        W31788   6.273  12.787  11.167  0.0928  0.1803 -0.0194
12255W        W31789   3.456  11.419   9.607 -0.1782 -0.0981 -0.0356
12256W        W31790   0.828   8.292   2.815  0.1202 -0.2137  0.0048
12257W        W31791  14.063   1.724  13.531  0.0440  0.3209  0.0010
12258W        W31792   1.501   5.547   2.827  0.3769  0.0897 -0.0448
12259W        W31793  10.387  16.972   3.732  0.0229 -0.0985  0.0460
12260W        W31794   9.772   5.256  13.997 -0.3535  0.0606  0.0352
12261W        W31795  14.099  12.789   3.279 -0.0176 -0.1660 -0.3444
12262W        W31796   8.563  10.108   0.750 -0.2770  0.1997  0.0826
12263W        W31797   9.578  11.696   3.164 -0.2467 -0.0590 -0.3958
12264W        W31798   3.674   2.330  13.792  0.2110  0.0612 -0.0891
12265W        W31799  18.021   3.689  11.880 -0.2161 -0.0476  0.1912
12266W        W31800  10.175   7.226  11.311  0.0824  0.2443  0.3417
12267W        W31801   6.314   4.048   0.453 -0.2837 -0.1588 -0.0443
12268W        W31802   5.426  16.795  13.908 -0.0179 -0.1213 -0.1170
12269W        W31803  18.060   1.671   1.801 -0.2762  0.0303  0.0025
12270W        W31804   2.046  14.580  11.003  0.0633 -0.1550 -0.0401
12271W        W31805  16.930   7.419  12.942  0.0395  0.0242 -0.0320
12272W        W31806  18.365   5.586  11.287  0.3334  0.0430  0.1523
12273W        W31807  14.454  15.902   4.847  0.1297 -0.3845 -0.1765
12274W        W31808   1.092  19.182   4.521 -0.1744 -0.0467  0.0351
12275W        W31809  11.696  10.573   2.287 -0.0899 -0.0537  0.0820
12276W        W31810  14.073  10.760   0.809  0.2522  0.4180 -0.0660
12277W        W31811   1.446   4.409  13.868 -0.2430 -0.4034 -0.1891
12278W        W31812   4.635   9.278  11.385  0.0456  0.0030  0.0333
12279W        W31813   3.298   4.822  11.576 -0.0500  0.0202  0.1168
12280W        W31814   8.751  11.643   4.895 -0.3175 -0.3038  0.0146
12281W        W31815  11.150   0.938  13.877  0.1181 -0.1138 -0.0180
12282W        W31816  10.379  17.770  12.838 -0.2570 -0.0881  0.2674
12283W        W31817   6.797   4.622  11.390 -0.0043 -0.0552  0.1735
12284W        W31818   2.834   3.103   9.647 -0.1773 -0.0940  0.2527
12285W        W31819   8.580   7.963   0.388 -0.1743 -0.1304  0.5087
12286W        W31820  13.167  18.336   0.935 -0.0429 -0.0424  0.2349
12287W        W31821  10.773  19.143  10.593 -0.3081 -0.1677 -0.2516
12288W        W31822   5.398  16.319   1.259  0.0826  0.5692 -0.2253
12289W        W31823   9.114   9.287   3.445 -0.1037  0.0970  0.0464
12290W        W31824  10.142   4.876   3.815  0.1115  0.2965 -0.0795
12291W        W31825   3.310   9.517   5.291 -0.2172 -0.0056 -0.1603
12292W        W31826   7.308  17.325   2.235  0.1519  0.4641  0.1629
12293W        W31827  14.799  14.606   2.506 -0.0215  0.2377 -0.2344
12294W        W31828   5.751   3.836  10.276  0.2229 -0.2121  0.0982
12295W        W31829   4.064   5.278  11.575 -0.1997  0.2222 -0.1640
12296W        W31830  18.981  17.602  11.937 -0.0825 -0.1525  0.0171
12297W        W31831  13.771   9.552   1.276 -0.0259 -0.1641 -0.3601
12298W        W31832   5.508   7.989   1.489  0.0815  0.2612  0.4236
12299W        W31833   1.950  14.861  11.932  0.2025  0.2191 -0.1366
12300W        W31834   3.715  14.763  13.528 -0.1381 -0.0718  0.1083
12301W        W31835  11.545  11.294  10.559 -0.1863 -0.0980 -0.0387
12302W        W31836  14.214   6.922   3.228 -0.2068  0.3626  0.0656
12303W        W31837  17.394  18.167  10.461 -0.0614  0.0219 -0.1513
12304W        W31838  13.839   4.774  10.318  0.1472  0.1452 -0.1844
12305W        W31839   1.480   6.934  11.786  0.1410 -0.4852  0.1028
12306W        W31840  14.118  10.227  13.451 -0.0247 -0.0477  0.1438
12307W        W31841  19.488   1.750  12.355 -0.1707 -0.3812  0.0450
12308W        W31842   7.252  15.194  12.934  0.1493  0.0431  0.0676
12309W        W31843  16.095  17.257   3.336 -0.4272  0.0632 -0.0805
12310W        W31844  11.892  11.199   0.639 -0.0519  0.0004 -0.0319
12311W        W31845   6.180  10.623   4.251 -0.1466 -0.4558 -0.2699
12312W        W31846  14.397   8.928  13.344  0.1159  0.3967 -0.1960
12313W        W31847   6.138   0.361   4.922 -0.4101 -0.0333 -0.1058
12314W        W31848  18.615   0.291  12.608  0.3594 -0.0610 -0.0751
12315W        W31849   4.986  11.835   3.510  0.5123 -0.1766  0.0302
12316W        W31850   9.301   7.650  12.359  0.4266 -0.0219  0.2543
12317W        W31851  10.839   7.398   1.040  0.0641  0.1749  0.0224
12318W        W31852  18.914  14.947  11.050 -0.3052  0.0153 -0.0886
12319W        W31853  11.010  16.688   0.363  0.2751  0.2773  0.0332
12320W        W31854  14.000  10.376   2.273  0.2563  0.1711 -0.1197
12321W        W31855  11.154  15.033  14.186  0.0130 -0.0791  0.2680
12322W        W31856   7.449  18.211  10.273  0.1041 -0.0534 -0.0667
12323W        W31857   9.609  14.894   3.011 -0.1256 -0.0954  0.0420
12324W        W31858  16.737   0.097  10.386  0.1213  0.2090 -0.1667
12325W        W31859  10.252  12.049  11.324 -0.1266  0.2877 -0.2178
12326W        W31860  10.566  15.218   9.450 -0.0459  0.2649  0.1629
12327W        W31861   8.772   7.774  13.688  0.0089  0.0243 -0.0899
12328W        W31862  17.302   9.608   1.899  0.3966 -0.0305 -0.4205
12329W        W31863   8.735  11.919  14.222 -0.1584 -0.2022 -0.0409
12330W        W31864   4.047  15.533   0.861  0.0088  0.0184 -0.0135
12331W        W31865   9.244   3.093   0.476 -0.2847  0.3418  0.2093
12332W        W31866   3.740  16.450  12.975  0.3659  0.0997  0.1735
12333W        W31867   1.017   9.619  10.791 -0.0933  0.0591  0.4671
12334W        W31868   3.988  13.278  10.994  0.0236 -0.0087 -0.2977
12335W        W31869   3.022  15.154   2.714 -0.3170 -0.0800  0.0978
12336W        W31870  12.085   6.078  13.291 -0.0307 -0.1349 -0.1038
12337W        W31871  11.660   7.227   0.641 -0.1525  0.1233 -0.0651
12338W        W31872   7.365  13.070  11.129 -0.2232  0.0981  0.0622
12339W        W31873   3.101  16.954  11.071  0.2720  0.3471  0.2039
12340W        W31874   9.920  10.466   0.387 -0.0026 -0.0202  0.1832
12341W        W31875  16.012  19.019   1.757  0.0268 -0.2562 -0.1591
12342W        W31876  15.369   4.957  12.213  0.2137 -0.3153  0.0194
12343W        W31877  11.900  18.925   4.012  0.0709 -0.0215  0.1893
12344W        W31878   2.022   9.168   3.098  0.2129 -0.1595 -0.2520
12345W        W31879  11.918  14.314  14.317 -0.0002  0.1031 -0.0386
12346W        W31880   5.897   3.279  13.450 -0.0363 -0.1735  0.0845
12347W        W31881   6.969  11.277   4.092  0.0159  0.2657 -0.1973
12348W        W31882  15.212  18.097   1.949  0.0248 -0.1151  0.2263
12349W        W31883   2.191  14.079   0.787 -0.2304  0.0992 -0.1721
12350W        W31884  18.711   2.458   2.914 -0.2088 -0.0771 -0.0642
12351W        W31885   4.929  10.225  12.625  0.0559 -0.0427  0.0028
12352W        W31886   7.173   9.833   4.161  0.0376 -0.0635  0.0416
12353W        W31887   5.802  18.661   3.523 -0.0566 -0.0273  0.0773
12354W        W31888   9.601  10.942   4.794  0.0003  0.0010 -0.0430
12355W        W31889  11.206   1.969   2.732 -0.1011 -0.1110  0.1083
12356W        W31890  18.165  18.663   2.364 -0.2109  0.0711  0.1420
12357W        W31891   1.085  12.370  11.371 -0.1009  0.2217 -0.0392
12358W        W31892   0.745  13.574  13.220 -0.0952 -0.0362 -0.1610
12359W        W31893   1.877  16.847   1.388  0.0423  0.5946  0.1174
12360W        W31894  17.238   4.292  12.223 -0.0318  0.0842  0.2729
12361W        W31895   2.478   7.204   4.197  0.1361 -0.0615  0.0049
12362W        W31896   9.326   5.306   0.412  0.0424 -0.0144 -0.0941
12363W        W31897  13.084  15.289  10.894  0.2501  0.0431  0.3070
12364W        W31898  10.770  14.312  13.356 -0.0271  0.1187  0.3002
12365W        W31899  14.941  11.894   3.542 -0.2069 -0.1118 -0.0984
12366W        W31900   6.588   3.607   1.145  0.1066  0.0077  0.2986
12367W        W31901  14.520   8.585   4.060 -0.1078  0.1841  0.1345
12368W        W31902   6.070  12.024  11.560  0.0581 -0.0205 -0.2083
12369W        W31903   5.569   9.884  10.080  0.3526 -0.0992 -0.1076
12370W        W31904  10.037   5.100  11.076 -0.0297  0.1265  0.2458
12371W        W31905   3.078   1.910   0.943 -0.1190  0.2726  0.0914
12372W        W31906   1.059  12.541   3.309  0.0133  0.0536 -0.2011
12373W        W31907   2.896  14.694  10.610  0.2345 -0.0104 -0.2957
12374W        W31908  12.930   0.999   3.401 -0.1058 -0.2902 -0.3139
12375W        W31909   7.459   7.819  10.933 -0.0910 -0.4449 -0.1344
12376W        W31910  11.219  17.128   3.924  0.4480  0.2100  0.0031
12377W        W31911   4.242   5.800  10.742 -0.1449  0.2500  0.1285
12378W        W31912   7.376   2.338  13.102  0.2475  0.0143 -0.2564
12379W        W31913   5.866   9.787  12.832 -0.2250 -0.2898  0.0482
12380W        W31914  13.583  14.196  11.973 -0.2704 -0.2863 -0.1457
12381W        W31915  19.518   1.634   3.999  0.0048  0.1933 -0.1386
12382W        W31916   7.876   9.586   0.884 -0.2656 -0.1637  0.1383
12383W        W31917  12.895  17.765   2.748  0.0432  0.0024 -0.0413
12384W        W31918   3.930  14.174   0.412 -0.1071  0.2268  0.1771
12385W        W31919   1.957   9.300  14.163 -0.0015  0.2145  0.0448
12386W        W31920  18.742  16.359   4.226  0.2429 -0.2145  0.2815
12387W        W31921  18.636  16.427  13.232  0.0696  0.3870  0.1185
12388W        W31922  13.146  16.441  13.317 -0.0182 -0.2324 -0.0876
12389W        W31923   4.370   5.409  12.040  0.1157 -0.0861  0.0987
12390W        W31924  15.211  11.444  14.215  0.0599  0.0819  0.0659
12391W        W31925  19.087  10.314  10.029  0.0033  0.2152  0.2836
12392W        W31926  13.227  12.939  13.801 -0.1941 -0.0249 -0.0721
12393W        W31927  18.844  12.113  11.292  0.2197  0.1961 -0.1828
12394W        W31928  15.369  18.948   3.057  0.0879  0.1183 -0.1257
12395W        W31929  13.718   8.321   3.133 -0.3860 -0.1201  0.0128
12396W        W31930   4.941   4.430  13.408  0.2832 -0.1041 -0.1242
12397W        W31931  12.038   5.148   3.564  0.3256  0.3560  0.3276
12398W        W31932  13.283  12.436   1.544  0.0618  0.2485  0.1106
12399W        W31933   5.146  16.203   0.457  0.1304 -0.0161 -0.0108
12400W        W31934   8.373   3.599   0.253 -0.2321  0.0231  0.1561
12401W        W31935   0.321  12.884  11.489  0.0671  0.1523 -0.1733
12402W        W31936   5.094  12.858  11.990 -0.1070  0.2908  0.2223
12403W        W31937  14.816   0.537  13.367 -0.0601  0.2459  0.3040
12404W        W31938   6.748  11.016  11.267 -0.0383 -0.3197  0.0793
12405W        W31939   2.448  11.952  11.240  0.1676 -0.2721 -0.2608
12406W        W31940  11.537   3.751  13.881 -0.1088  0.2913 -0.2460
12407W        W31941   1.745  10.559   2.846  0.0928 -0.0318 -0.0986
12408W        W31942   7.279  13.774  12.288 -0.0304  0.0483  0.1333
12409W        W31943  13.108   0.571  12.440 -0.2420 -0.2618  0.2671
12410W        W31944   8.497   3.658  13.537  0.5211  0.5939  0.1839
12411W        W31945   9.460   7.504  11.175 -0.0254  0.3350  0.0857
12412W        W31946   4.769   4.877   1.006  0.1130 -0.0809 -0.5040
12413W        W31947  15.199  12.792   3.463  0.2761 -0.0107 -0.2563
12414W        W31948   8.002  14.087  13.642 -0.1268  0.0322  0.3846
12415W        W31949   5.783   0.932  12.094 -0.1573 -0.4465 -0.0195
12416W        W31950  13.147   9.055   2.404  0.2143  0.0947 -0.2054
12417W        W31951   7.966   1.442  13.249  0.2049 -0.0131  0.1655
12418W        W31952  18.591  17.366   0.074 -0.1270 -0.0894 -0.1713
12419W        W31953  14.373  14.748   2.853  0.1149 -0.1500 -0.1247
12420W        W31954   0.479   8.320  12.285 -0.0620  0.1877  0.0322
12421W        W31955  13.745  11.043   1.064  0.2795  0.0554 -0.0527
12422W        W31956   1.603  12.047   2.887  0.4098 -0.1101  0.0737
12423W        W31957   2.600   8.033  13.970  0.4137 -0.1675 -0.1764
12424W        W31958   8.373   9.061   4.164  0.2000  0.0499 -0.3008
12425W        W31959   3.267  10.514  12.125  0.6458  0.1867  0.1177
12426W        W31960  12.545  13.133   1.457  0.1158  0.1646  0.0808
12427W        W31961  11.836   9.912   3.325 -0.1934 -0.3971  0.3149
12428W        W31962  16.696   6.261  13.657  0.1177 -0.1789  0.2159
12429W        W31963   3.862   6.859   3.705 -0.0720  0.2292  0.1356
12430W        W31964   3.593   0.115  13.125  0.1267  0.0722 -0.1490
12431W        W31965  18.074  15.251   0.546  0.1634 -0.0069 -0.0379
12432W        W31966  12.955   2.510  13.155 -0.1806 -0.0677  0.2445
12433W        W31967   9.983   6.355   0.427  0.2139 -0.2918 -0.2818
12434W        W31968   4.721  15.085  13.982 -0.0348 -0.0484  0.2196
12435W        W31969  15.300  12.769   0.974 -0.1112 -0.3252 -0.0121
12436W        W31970  18.229   1.627  11.101  0.0887 -0.1703 -0.1843
12437W        W31971  13.459   5.012   0.895  0.2800  0.3616 -0.2166
12438W        W31972   1.902  15.907   2.422 -0.1462 -0.4679 -0.1061
12439W        W31973  16.020  14.528  12.490  0.0600  0.0558  0.2004
12440W        W31974   5.574  17.304  11.535 -0.3359  0.1938 -0.1897
12441W        W31975  12.603   0.582   3.311 -0.3874 -0.1196  0.1395
12442W        W31976  12.761   9.197   1.996  0.0372  0.1558 -0.1475
12443W        W31977   8.664   2.402   0.890  0.1854 -0.0353  0.2838
12444W        W31978   6.756   0.296   9.920 -0.3018  0.2494  0.3020
12445W        W31979   1.615  14.389   0.570  0.1984  0.0597 -0.2454
12446W        W31980  12.034  11.264  10.596 -0.0086  0.5041 -0.1857
12447W        W31981  14.682   0.397  11.934  0.1409  0.1458 -0.1458
12448W        W31982  13.909   9.537  12.236 -0.3307  0.1130  0.0348
12449W        W31983  18.873  13.884  12.238  0.0689  0.1365 -0.1996
12450W        W31984  16.069  16.762  13.437 -0.0242 -0.0975 -0.3468
12451W        W31985   6.711   0.827   2.974  0.1614 -0.2599 -0.0676
12452W        W31986   6.990   1.680  11.497 -0.2446 -0.1582  0.0121
12453W        W31987   3.672   8.785   3.509  0.1145  0.1435 -0.1676
12454W        W31988  19.108  16.090  12.422  0.2839 -0.2050  0.1982
12455W        W31989   5.350   7.651   1.101  0.1727 -0.1043 -0.1907
12456W        W31990   2.140  18.970  10.858 -0.0768  0.0756 -0.0554
12457W        W31991  15.438  15.618  13.196 -0.2489  0.0728  0.1735
12458W        W31992  18.372  18.735   3.253  0.2260 -0.1439  0.0161
12459W        W31993  16.062  11.864   0.068  0.0416 -0.0581  0.1244
12460W        W31994   8.608  10.570   2.647  0.0334  0.0935 -0.2937
12461W        W31995   3.055   3.257  14.060  0.0291  0.2481  0.1437
12462W        W31996   7.108  14.930   1.660  0.2024 -0.0336 -0.0563
12463W        W31997  17.461  12.977  12.854 -0.2301 -0.4008  0.4054
12464W        W31998  11.589   8.610   3.467 -0.0952 -0.1804  0.2499
12465W        W31999  19.391  12.636  10.287  0.0280  0.1781 -0.0890
12466W        W32000   8.366  18.233   2.663  0.1555  0.1719 -0.1478
12467W        W32001   7.377   5.786  11.813  0.0008 -0.0571 -0.0458
12468W        W32002   0.910  19.112  12.389  0.2171  0.1431 -0.1908
12469W        W32003   5.791  11.030  10.921 -0.3496  0.0342  0.1249
12470W        W32004   6.528   9.173   3.836  0.0131 -0.0511 -0.0429
12471W        W32005   5.796   2.020   1.306  0.2596  0.0234  0.0409
12472W        W32006   0.200  16.901   0.006  0.0861 -0.0944  0.1976
12473W        W32007   0.330  13.412  12.346 -0.2697 -0.1740 -0.0426
12474W        W32008  18.593  18.438  10.985  0.0965  0.0755 -0.1686
12475W        W32009   5.249   6.341  12.580 -0.4069 -0.3937  0.0894
12476W        W32010   7.331   0.267   3.284 -0.0334  0.2894 -0.3030
12477W        W32011  10.885  14.634   1.193  0.0758 -0.0918 -0.0153
12478W        W32012   1.602   9.051  13.251 -0.0901 -0.2961 -0.1587
12479W        W32013   4.654   6.394  11.460 -0.0033 -0.0489  0.2038
12480W        W32014   3.175  16.419  14.308  0.0404  0.2239  0.1652
12481W        W32015  14.518   7.010   9.482  0.0078  0.0361  0.3779
12482W        W32016   2.971  10.369  13.921 -0.2456  0.4028 -0.2528
12483W        W32017  18.013  15.518   0.039 -0.0107 -0.0085  0.4072
12484W        W32018  19.247   1.680  12.757  0.0601 -0.0690 -0.1754
12485W        W32019  16.812  13.660   3.353 -0.3447  0.1052  0.0256
12486W        W32020  14.752   1.035  13.348  0.1622  0.0851 -0.0856
12487W        W32021  14.865  17.754  13.222  0.0605 -0.0921  0.1172
12488W        W32022  13.001   7.659   2.926  0.5066  0.0239  0.1710
12489W        W32023   9.074  11.175  11.306 -0.1269 -0.1810  0.3625
12490W        W32024  12.749  19.297   2.967 -0.1096  0.3257 -0.1654
12491W        W32025   6.057   5.321  11.782 -0.1519 -0.1330  0.0421
12492W        W32026  13.242  10.944  11.250  0.2867  0.0024  0.2062
12493W        W32027   9.009  14.678  13.258 -0.0784  0.0178 -0.4609
12494W        W32028  13.052   5.481   4.527 -0.1783 -0.0153  0.2378
12495W        W32029  10.279  17.349   1.132  0.1283  0.1280 -0.1653
12496W        W32030   4.339  10.320  10.966  0.0910  0.1365 -0.0688
12497W        W32031   2.754  10.479   2.362 -0.0098 -0.2024 -0.3159
12498W        W32032  16.688  17.464  10.090  0.0249  0.1986 -0.1944
12499W        W32033   8.873  17.520  13.339  0.1570 -0.1224  0.2011
12500W        W32034  14.302   0.146   1.442 -0.0621 -0.0626 -0.0935
12501W        W32035  14.842   8.419   2.266 -0.0134 -0.0518 -0.0780
12502W        W32036   9.107  19.283  10.827  0.0435  0.0760  0.2155
12503W        W32037  12.790  17.742   3.253 -0.4740 -0.3108  0.0276
12504W        W32038  11.391   6.015   3.863 -0.2148  0.0846 -0.0719
12505W        W32039  11.825   8.826  13.870 -0.0638 -0.0965  0.2822
12506W        W32040   1.344   7.883   2.783 -0.1267 -0.4515 -0.0806
12507W        W32041  15.981  12.103   1.461  0.1983 -0.3944 -0.0461
12508W        W32042   9.011   6.675  10.227 -0.0340 -0.0478 -0.0509
12509W        W32043  11.533   0.565  11.377 -0.0447  0.3474  0.0022
12510W        W32044  16.921  10.937  11.111  0.0453  0.1657  0.0221
12511W        W32045   2.786  15.123  10.334  0.0916 -0.0633  0.1003
12512W        W32046  10.176  11.280   4.203 -0.0198 -0.0520 -0.0504
12513W        W32047  16.207  10.079   2.857 -0.4180  0.3450 -0.0840
12514W        W32048   0.758  19.518  13.322  0.1672  0.0992 -0.0253
12515W        W32049  11.441   9.837   4.560  0.1756 -0.1331 -0.1734
12516W        W32050   6.808  17.804   2.924 -0.2142  0.2827  0.1043
12517W        W32051   4.617  13.077   2.771  0.1627 -0.0193 -0.2611
12518W        W32052   9.181   8.203   0.382  0.0496 -0.0542 -0.2153
12519W        W32053   3.186  13.526   1.061 -0.3536 -0.0933  0.1608
12520W        W32054   3.042  12.556  13.803 -0.1017  0.0499 -0.2711
12521W        W32055   0.661   6.637   3.018  0.5523  0.3244 -0.0862
12522W        W32056  16.017  15.288   4.506  0.3047  0.2861  0.1114
12523W        W32057   2.503  16.288   3.304  0.1879 -0.1291  0.0588
12524W        W32058  15.305  13.276   2.668 -0.3105  0.1128 -0.4366
12525W        W32059   0.089  12.501   2.748  0.0658  0.2797  0.0914
12526W        W32060   0.477   9.159  12.951  0.1164  0.2958  0.1172
12527W        W32061  12.494   1.717  11.824 -0.1897  0.1312  0.3069
12528W        W32062   5.634   0.636   1.179 -0.1672 -0.2049 -0.1397
12529W        W32063  10.765   5.599   0.535 -0.2567  0.1509  0.1261
12530W        W32064   5.204   5.218  13.235 -0.2064  0.4574 -0.5375
12531W        W32065   3.637  10.698   3.801 -0.0688 -0.1711  0.0248
12532W        W32066   0.717   3.906  11.315 -0.1889  0.1307 -0.3780
12533W        W32067   2.827  17.034   0.507  0.0961  0.1462 -0.2236
12534W        W32068  14.533  17.755  11.485 -0.3452  0.0239  0.1363
12535W        W32069   9.418  14.441  12.953 -0.1172 -0.2943  0.0100
12536W        W32070   2.671   6.409  11.105 -0.0872  0.2077 -0.2076
12537W        W32071  12.516   4.054  11.258  0.1812  0.1208 -0.2223
12538W        W32072  17.598   4.874   2.825  0.0084 -0.0229  0.0805
12539W        W32073   8.278  17.981  14.005  0.2551  0.0836  0.0343
12540W        W32074   4.171  18.370   4.835  0.0261  0.0878 -0.0697
12541W        W32075  11.511   9.542   3.211 -0.0122  0.0766 -0.0751
12542W        W32076   8.531  16.014   0.068 -0.0122 -0.0913  0.2942
12543W        W32077  18.070  13.655   1.678 -0.1394  0.1766 -0.0116
12544W        W32078   7.141  12.223   1.380  0.0470  0.0864 -0.0787
12545W        W32079   5.401   1.842   4.211 -0.0119  0.3001 -0.1329
12546W        W32080  11.207  17.470   3.518 -0.1972  0.1278  0.0030
12547W        W32081   3.603   6.964  10.516 -0.2414 -0.1688 -0.0230
12548W        W32082  16.752  12.857  13.178 -0.0879 -0.2547 -0.1075
12549W        W32083  10.491   2.189   4.077 -0.0262 -0.0353  0.4776
12550W        W32084   1.342   2.110  13.399 -0.0316  0.0742  0.0698
12551W        W32085   8.999   5.174  11.362 -0.0590  0.2262 -0.0755
12552W        W32086   8.025  16.978  10.660 -0.0469  0.0663 -0.0520
12553W        W32087  17.006  14.644   2.515 -0.0200 -0.2522 -0.2102
12554W        W32088  18.468   9.434   1.529  0.0661  0.0308 -0.3058
12555W        W32089  10.921   0.168  14.176  0.0518 -0.2065  0.4176
12556W        W32090   5.750   7.761  13.469  0.1609 -0.1013  0.0034
12557W        W32091   2.109  10.088  12.980 -0.2171 -0.0971 -0.0960
12558W        W32092  19.305   6.945  14.204 -0.1003  0.0288 -0.3427
12559W        W32093   9.714  13.457  11.016  0.0679  0.0440 -0.1162
12560W        W32094  13.842  12.332  10.179  0.1900 -0.1201 -0.0141
12561W        W32095  15.785   6.953   0.728 -0.1896 -0.4273  0.3221
12562W        W32096   2.033   0.934  12.410 -0.1254  0.0762  0.0190
12563W        W32097   2.144  15.025   3.483  0.1359 -0.2360 -0.3402
12564W        W32098  16.596  17.506   3.535  0.1976  0.0578  0.1615
12565W        W32099   3.087   7.631   2.059  0.4565  0.2007  0.2576
12566W        W32100  13.541  18.189   1.244 -0.0902 -0.0392 -0.0021
12567W        W32101  17.642   3.369   2.082 -0.1700 -0.0399  0.2042
12568W        W32102   3.109   6.985  10.634 -0.0067 -0.2515  0.0304
12569W        W32103   5.436  13.173   2.388 -0.1793 -0.0848 -0.0194
12570W        W32104   8.870  14.848  10.078  0.0162  0.0747  0.0456
12571W        W32105   8.997   6.387  12.555  0.0951 -0.1840 -0.1441
12572W        W32106  15.341  13.373  10.185 -0.0678 -0.1481  0.0317
12573W        W32107  10.880  12.291   2.186  0.0392  0.1491 -0.2037
12574W        W32108  17.889   5.550   1.534  0.2380  0.2127  0.0922
12575W        W32109   7.322  16.724   2.878  0.0937 -0.0344 -0.2967
12576W        W32110  19.109  13.141  12.374  0.0128  0.3378  0.0236
12577W        W32111   0.037   9.760  14.246 -0.1639  0.1636  0.0469
12578W        W32112  17.104   7.093  10.516  0.0720  0.3021  0.4792
12579W        W32113   0.086  17.610   1.119 -0.3733 -0.2229  0.1359
12580W        W32114  13.143  15.788   8.914 -0.0308  0.2922  0.1123
12581W        W32115   0.909  14.071  10.382 -0.0619 -0.2627 -0.1463
12582W        W32116   4.381  16.682  10.923 -0.0187  0.3516 -0.2728
12583W        W32117  19.469  14.863   1.502 -0.2605  0.1522 -0.0573
12584W        W32118   8.626  11.959  10.895 -0.2386 -0.0759  0.2729
12585W        W32119  17.377  17.398  14.185 -0.3061 -0.2217  0.4604
12586W        W32120   6.091   9.915  13.907 -0.0247  0.0158 -0.0827
12587W        W32121   3.475   4.420   2.817  0.3392 -0.0725 -0.0186
12588W        W32122   2.654   6.001   3.785 -0.0460 -0.1264 -0.3274
12589W        W32123   5.558   1.060   0.569  0.2813  0.1843 -0.2798
12590W        W32124   0.806  18.667   3.850  0.0917 -0.0633 -0.0240
12591W        W32125   6.681  16.976  13.514  0.1914  0.1224 -0.2430
12592W        W32126  17.756   6.094   3.209  0.0529  0.1914  0.0496
12593W        W32127   8.676   4.456   2.540  0.2865 -0.4161  0.0155
12594W        W32128  15.531  10.599   9.561  0.0651  0.0955 -0.1447
12595W        W32129  17.546  11.192  10.557  0.0461 -0.0146 -0.2427
12596W        W32130  11.769   4.010  14.320 -0.0700 -0.0518 -0.1250
12597W        W32131   9.814  16.362   1.807  0.3008 -0.0691 -0.2064
12598W        W32132   2.011   1.535  12.111  0.0011 -0.0176  0.0210
12599W        W32133  16.752   8.977   2.568  0.2739 -0.1005 -0.0747
12600W        W32134  18.742  16.283   1.291  0.1073 -0.3032  0.1907
12601W        W32135   1.516  10.089   2.448 -0.1219 -0.4249 -0.2226
12602W        W32136  14.491   5.074  13.494 -0.0405 -0.2634  0.0076
12603W        W32137   3.674  17.785   2.121  0.2947 -0.1768 -0.0421
12604W        W32138   1.505   1.933  10.742 -0.3441  0.0171  0.2816
12605W        W32139  16.901  18.398   2.779  0.2010 -0.3169 -0.2998
12606W        W32140   1.989   9.626   0.354 -0.4124  0.3560 -0.1131
12607W        W32141   6.460   5.814   2.259 -0.0730  0.0033 -0.1740
12608W        W32142   9.154  18.806  11.704  0.2599  0.3352 -0.0086
12609W        W32143   3.990  15.399   3.977  0.0246 -0.1770  0.1437
12610W        W32144   8.680  11.370   0.752  0.0860 -0.1462 -0.0853
12611W        W32145   9.255  14.912   2.083 -0.2572 -0.1868 -0.0307
12612W        W32146  15.345  10.329   3.523  0.4038  0.3243  0.0443
12613W        W32147  15.915   6.806   3.996  0.0548  0.0068 -0.0497
12614W        W32148   7.195  13.261  11.634  0.2210 -0.0136 -0.1548
12615W        W32149  13.504  10.409  13.462  0.0201  0.2297 -0.4363
12616W        W32150  18.998   2.388  12.791  0.1807  0.0177 -0.0389
12617W        W32151   3.611  16.456  14.047  0.2585 -0.2712 -0.4564
12618W        W32152   8.098   4.377   3.786 -0.0573  0.1653  0.0794
12619W        W32153   6.850  12.412  11.757  0.3011  0.0447  0.1305
12620W        W32154   0.620  15.845  13.607 -0.1968 -0.5318 -0.0949
12621W        W32155   9.712   6.663   2.440 -0.1459 -0.1037 -0.2658
12622W        W32156   9.130   1.558  10.298 -0.2414 -0.0090  0.1968
12623W        W32157   0.421   7.466   2.630  0.0018 -0.3088 -0.0614
12624W        W32158   9.058   3.150  12.259 -0.2194  0.1984 -0.1138
12625W        W32159   9.514  16.526   4.140  0.0691  0.1346 -0.0446
12626W        W32160  15.934   0.714   3.212  0.0310  0.3150  0.0652
12627W        W32161   4.885   4.557   2.736 -0.0329  0.2343 -0.1907
12628W        W32162  17.048   2.346   1.472 -0.0577 -0.0876 -0.1025
12629W        W32163  15.773  15.271  13.121  0.0526 -0.3847  0.0290
12630W        W32164  11.658  13.271  12.850 -0.5396  0.3368 -0.2300
12631W        W32165   3.321  15.320  13.565  0.2832  0.0804 -0.2216
12632W        W32166  16.054   6.092   0.544 -0.3646 -0.1333  0.0158
12633W        W32167  10.627   1.103   0.723 -0.1593  0.1309 -0.2938
12634W        W32168  15.274  10.161   2.760  0.0570 -0.1757 -0.0138
12635W        W32169  11.119   9.427   3.601  0.2260 -0.0259  0.1947
12636W        W32170   1.768   5.282  13.533 -0.0317 -0.2886  0.1775
12637W        W32171  15.051   8.773   9.305 -0.1670  0.0411  0.0617
12638W        W32172  19.339  17.670  14.032 -0.0765 -0.1938 -0.2214
12639W        W32173  15.188   2.248  11.062 -0.2336 -0.1387 -0.1513
12640W        W32174  11.115  10.371  14.135  0.2577  0.2778 -0.1120
12641W        W32175  16.910  13.375   4.027  0.0575  0.1719  0.0801
12642W        W32176   6.493   0.904   0.020  0.0047 -0.0946 -0.0432
12643W        W32177   0.748   7.518   1.170  0.1045 -0.0545 -0.1227
12644W        W32178  16.493   7.018  12.929  0.1552  0.0685  0.1350
12645W        W32179  13.059  11.277  10.411 -0.1797  0.2370 -0.0985
12646W        W32180  14.039  19.162   3.386 -0.4128  0.0380  0.2379
12647W        W32181   5.156  15.677   0.550 -0.1385  0.1842  0.0640
12648W        W32182  16.451   4.526  13.797  0.4255 -0.3447 -0.1113
12649W        W32183  18.866   5.151  14.309  0.0350 -0.1336  0.0922
12650W        W32184  18.799  17.222   1.503  0.0026  0.1102  0.2109
12651W        W32185  19.380   4.400  12.492  0.1089 -0.0537  0.0921
12652W        W32186  12.199  15.467  12.389  0.2251  0.0999  0.3823
12653W        W32187   7.151  13.384   2.681 -0.1734 -0.1855 -0.2664
12654W        W32188  11.745  17.652   2.048 -0.2943 -0.0276  0.2814
12655W        W32189  13.809   7.137   3.296  0.1389 -0.2159 -0.1464
12656W        W32190  11.876   3.386   0.054 -0.1574 -0.2229  0.0956
12657W        W32191  11.278  16.639   4.134  0.0089 -0.0424 -0.3701
12658W        W32192   4.085  15.814  12.487 -0.1571 -0.2852  0.2106
12659W        W32193   5.818  14.626  13.978  0.1588  0.0007 -0.0344
12660W        W32194   3.254  14.739   0.446  0.0579 -0.0694 -0.0198
12661W        W32195  17.873   6.396  12.378 -0.0029 -0.0782 -0.5724
12662W        W32196   7.097  13.135   4.939  0.1194 -0.1015  0.3207
12663W        W32197  15.969  11.904   0.996  0.1968  0.1696  0.1164
12664W        W32198   1.579  18.842   0.944 -0.0945 -0.1565  0.1155
12665W        W32199   3.582   8.048  13.819  0.2643 -0.0995  0.1355
12666W        W32200  18.881  13.398  12.022 -0.2779  0.1888 -0.1256
12667W        W32201  14.069  18.330  13.181 -0.2658  0.1475 -0.3748
12668W        W32202   1.973   2.251  10.802  0.1449  0.1905  0.1041
12669W        W32203   2.770  17.409   3.243 -0.1694 -0.1314  0.3512
12670W        W32204   8.410   0.882  11.090 -0.1786  0.0608 -0.2091
12671W        W32205  16.976   9.444   0.917 -0.0001 -0.0909  0.0674
12672W        W32206  12.536   3.734  10.835 -0.0673 -0.3703 -0.0486
12673W        W32207  13.539   8.042   2.113 -0.3225  0.1177  0.1445
12674W        W32208  12.406   4.355  13.388 -0.0323 -0.3138 -0.0079
12675W        W32209  14.381   3.534   1.756  0.1594 -0.2334 -0.1184
12676W        W32210  17.567   2.222   1.359  0.2345  0.1488  0.0248
12677W        W32211   3.017  10.372   9.543 -0.2480  0.1349  0.2287
12678W        W32212   3.309   2.387  13.405  0.0971 -0.1129  0.0620
12679W        W32213   2.062  12.277   0.566 -0.0840 -0.1493  0.0134
12680W        W32214  15.508  15.814  10.390  0.0851  0.1564  0.1883
12681W        W32215  14.979   0.327   2.073 -0.0466 -0.1266 -0.1798
12682W        W32216   5.838   2.526   1.514 -0.0946 -0.2533 -0.2293
12683W        W32217   9.105   3.436  12.646 -0.2299  0.1645  0.2620
12684W        W32218  17.621  12.861  11.381  0.2221  0.1557 -0.0849
12685W        W32219   4.517   1.122   2.833  0.0451 -0.0027 -0.1978
12686W        W32220  14.345  18.596  12.394 -0.1333 -0.0782 -0.3880
12687W        W32221   9.095   7.728   0.412  0.2407 -0.1474 -0.1931
12688W        W32222  10.818   6.025   1.488  0.1274 -0.0527 -0.0846
12689W        W32223  12.301  17.775   3.402  0.0861  0.1841  0.2022
12690W        W32224  15.507  15.115   2.165  0.1677  0.1633 -0.2139
12691W        W32225   2.410   5.918   3.300  0.0817 -0.0151  0.1519
12692W        W32226  10.123   1.233   2.102 -0.2752  0.1399 -0.0594
12693W        W32227   2.986  14.947   0.994 -0.0572  0.2280  0.0805
12694W        W32228   0.016  13.359  14.002  0.0692  0.0613  0.0608
12695W        W32229  17.066   7.285   3.372  0.0494  0.0747 -0.2423
12696W        W32230   7.382  10.719  12.051  0.0122  0.0886  0.0606
12697W        W32231   7.265   5.582   2.079  0.0945 -0.2194  0.0138
12698W        W32232   5.039   6.335  13.539 -0.0778  0.1305 -0.0153
12699W        W32233  14.839  19.411  13.082  0.0416  0.1386 -0.1185
12700W        W32234  16.793   4.888   1.378  0.2850  0.2141  0.2727
12701W        W32235   9.109   8.154   0.940 -0.0758 -0.2842  0.0717
12702W        W32236   6.304  15.247  11.733 -0.0910  0.1658  0.0892
12703W        W32237  17.537  12.959   2.599 -0.0708  0.1617 -0.0315
12704W        W32238   3.096   8.782   2.217 -0.1002  0.0452 -0.3550
12705W        W32239   6.395  14.799  13.920 -0.1823 -0.2403 -0.0726
12706W        W32240  12.686  16.595  10.960 -0.1718  0.2176 -0.4401
12707W        W32241   4.752   9.913   3.454  0.2265  0.4029 -0.2187
12708W        W32242   9.225   8.163  13.774 -0.4429  0.1045  0.1764
12709W        W32243  16.271  13.892  13.767 -0.0801  0.0750  0.2188
12710W        W32244  18.161   1.472  13.205 -0.2835  0.4026  0.0358
12711W        W32245   5.503   3.842   0.585 -0.1968  0.3617 -0.1617
12712W        W32246   3.218  14.443   0.976  0.2027 -0.1047 -0.1090
12713W        W32247  17.576  10.094  12.890  0.1343 -0.1661  0.1203
12714W        W32248  16.240  15.214  11.848 -0.0264  0.1652  0.1283
12715W        W32249  12.179  10.421   2.510 -0.0293 -0.0377 -0.6872
12716W        W32250  12.035  10.019   2.884 -0.0163  0.0493 -0.2014
12717W        W32251  14.600  13.066   1.282 -0.1172 -0.2402 -0.0728
12718W        W32252   5.914   9.100  11.107  0.0014  0.0933  0.0361
12719W        W32253  18.075  10.071  10.574 -0.1634 -0.1084 -0.0845
12720W        W32254   7.756   5.354   0.976  0.3290 -0.2189  0.1603
12721W        W32255   1.556  17.803   0.846 -0.2555  0.4419 -0.0590
12722W        W32256   4.718   4.914   3.740 -0.1121 -0.0826 -0.0217
12723W        W32257  16.798   3.867   0.580  0.0972  0.2426 -0.1571
12724W        W32258  13.048   7.715  13.918 -0.0949  0.0010 -0.1639
12725W        W32259   6.091   7.067   9.819 -0.2685 -0.1632  0.1289
12726W        W32260   1.898   3.461   5.275 -0.4903 -0.3468  0.0216
12727W        W32261   9.082   2.707   1.621  0.5348 -0.0628  0.2393
12728W        W32262  19.118  14.395   5.086  0.0138 -0.0043  0.0289
12729W        W32263  15.510   7.635  14.064  0.0612  0.1104  0.0078
12730W        W32264   1.727   0.304  14.169  0.0102 -0.0742 -0.0787
12731W        W32265  13.480  13.069  14.210  0.1572 -0.0008  0.0198
12732W        W32266  14.501   1.815   2.577  0.2713 -0.3671  0.2231
12733W        W32267   8.549   7.919   3.240  0.3873 -0.0608 -0.0544
12734W        W32268   7.456   7.741   0.149  0.0086  0.4673 -0.2775
12735W        W32269  17.837  16.363  13.523  0.0685 -0.2768 -0.1575
12736W        W32270   6.079   2.808  11.473 -0.1170  0.1580  0.1731
12737W        W32271   6.434   6.230  10.394  0.1092  0.3781 -0.0628
12738W        W32272   7.630  14.575  13.506  0.1758  0.1721 -0.1570
12739W        W32273   9.712   6.727  13.227  0.2823  0.4185 -0.0996
12740W        W32274  12.595  13.476  12.660 -0.1932 -0.2018  0.0849
12741W        W32275   6.744  11.819   3.959  0.2042  0.3221 -0.1079
12742W        W32276  19.179  15.556  13.836  0.1220  0.2584 -0.1032
12743W        W32277  15.822  12.763   1.030 -0.0363 -0.3234  0.1568
12744W        W32278   7.355  13.619  10.362  0.1027 -0.2179  0.2086
12745W        W32279   7.836   5.584  12.509  0.1293 -0.3627  0.1372
12746W        W32280  14.404  17.358  13.128  0.2319 -0.1259 -0.0507
12747W        W32281  12.511   2.106  12.979 -0.1163 -0.2350  0.2941
12748W        W32282  18.494  19.510   3.725 -0.1834  0.0524 -0.0917
12749W        W32283   8.774  13.954  10.909 -0.2370 -0.0694  0.1006
12750W        W32284  12.392  18.619   5.289 -0.1467 -0.0396  0.0372
12751W        W32285   8.111  10.844   0.332 -0.0919  0.1437 -0.2251
12752W        W32286  12.957   5.115   1.061  0.0050  0.1290  0.1691
12753W        W32287   2.962   3.373  11.916  0.0606  0.0649 -0.3236
12754W        W32288  13.403  17.270   3.016 -0.2486 -0.0798 -0.0095
12755W        W32289  13.064  14.877   0.742  0.2561  0.0581 -0.2161
12756W        W32290  16.977  11.193  12.645  0.0868 -0.1737  0.5062
12757W        W32291   3.048  18.714  12.966 -0.1972  0.0573 -0.0356
12758W        W32292  13.588  10.338   3.539  0.0859  0.3298 -0.1106
12759W        W32293   7.440   8.530  13.414 -0.1726 -0.0084  0.3322
12760W        W32294  18.414   4.576   0.386 -0.3238  0.3957 -0.3670
12761W        W32295   6.808   0.593  11.348 -0.2529 -0.0326  0.1684
12762W        W32296   3.770  16.037   0.931 -0.1249 -0.0657  0.3441
12763W        W32297  14.401  10.067   2.399 -0.0546 -0.1377 -0.2850
12764W        W32298  16.316   2.721   1.764 -0.1359 -0.2404 -0.0464
12765W        W32299   3.855   8.805   4.034 -0.1817 -0.0882  0.1990
12766W        W32300   7.810   0.286  10.413 -0.0737 -0.0781 -0.0652
12767W        W32301  15.587   8.045   1.423 -0.3283  0.1594 -0.3113
12768W        W32302   2.005  19.509   3.132 -0.0969 -0.1787 -0.0449
12769W        W32303   8.344  15.660  13.585  0.0594 -0.5354 -0.2150
12770W        W32304   2.848   8.530  13.969 -0.1138  0.1800  0.1691
12771W        W32305  14.004   3.252  10.593  0.0690 -0.0579 -0.0783
12772W        W32306  18.369  13.448  12.686  0.0387 -0.0935  0.1098
12773W        W32307  11.464   4.727  12.179  0.2050  0.1497  0.1649
12774W        W32308  10.321  16.037  14.095 -0.2230 -0.0640 -0.2162
12775W        W32309  10.297   9.830  14.236 -0.2397  0.1391  0.1625
12776W        W32310   2.971   5.791   3.093 -0.1053 -0.1550 -0.0316
12777W        W32311   0.405   6.229  13.680 -0.2218 -0.1064  0.2029
12778W        W32312  10.565   0.758   0.252  0.0891  0.5390 -0.1295
12779W        W32313   7.571   7.557   4.358 -0.0276 -0.1151  0.0112
12780W        W32314  10.343  15.748   2.312  0.1532 -0.3024 -0.3465
12781W        W32315  12.279  18.801   1.839 -0.0235  0.0190 -0.2404
12782W        W32316   0.451  13.037   3.535 -0.1148 -0.1180  0.4314
12783W        W32317   4.425  19.176   0.847  0.0054 -0.0871  0.2321
12784W        W32318   9.603   0.216  10.959  0.1636 -0.0460 -0.1089
12785W        W32319  11.657   7.107  11.124 -0.3817  0.1233  0.3970
12786W        W32320  10.199   6.560   2.044  0.0826 -0.0521 -0.3275
12787W        W32321  10.535   5.382  13.623  0.0532  0.2004 -0.0643
12788W        W32322  17.751   5.993   1.315  0.1269 -0.1342 -0.2894
12789W        W32323   8.124   4.568  11.316 -0.0284 -0.0991 -0.1222
12790W        W32324   2.758   8.660   3.821 -0.1347 -0.0455  0.2846
12791W        W32325   6.229   6.033   1.111 -0.0217 -0.0107  0.0676
12792W        W32326   3.397  11.201   0.225  0.2386 -0.1429  0.3049
12793W        W32327  10.019   0.930  14.238 -0.2851  0.0984 -0.3647
12794W        W32328   4.635  12.471   1.217 -0.0631  0.0644 -0.1700
12795W        W32329   6.471   5.455  12.239  0.0881 -0.0695  0.2615
12796W        W32330   2.980   5.474   2.209  0.0137  0.2554  0.1684
12797W        W32331   5.737  19.040  14.150 -0.0873  0.4412 -0.1532
12798W        W32332  13.180  15.828   0.819 -0.3036 -0.1066  0.1494
12799W        W32333   4.025  17.198  11.392  0.1580  0.0268 -0.0689
12800W        W32334   8.422  18.745  11.934  0.0274  0.1888  0.1285
12801W        W32335  18.896  13.269   2.481 -0.0450 -0.2094 -0.1641
12802W        W32336   4.478   7.621  10.934  0.2720  0.1058  0.0480
12803W        W32337  17.703  16.868  12.620 -0.1278 -0.0916  0.3214
12804W        W32338   7.607   9.541   1.297  0.1449  0.0625  0.0295
12805W        W32339  13.239   3.916  14.128  0.4517  0.0346  0.1492
12806W        W32340   7.956   0.212  11.939 -0.1122 -0.0166 -0.1302
12807W        W32341  15.091   7.868   1.171  0.1973 -0.1758  0.1989
12808W        W32342  17.973  12.874  12.735  0.0910  0.1609  0.4657
12809W        W32343   8.825  17.110   1.067  0.0126  0.1801 -0.1625
12810W        W32344  13.866  17.726  14.292 -0.0795 -0.3327 -0.3745
12811W        W32345  10.637   4.507   2.311  0.0714 -0.2556 -0.0467
12812W        W32346   7.956   5.954   0.291 -0.3262  0.0459  0.1004
12813W        W32347   1.384   4.627   0.421 -0.0043  0.0341  0.0432
12814W        W32348   5.500   8.059   3.601 -0.1599 -0.2919 -0.0911
12815W        W32349   9.850   7.925  12.088 -0.1182  0.0894  0.0194
12816W        W32350   4.890  14.180  13.138 -0.1080  0.4650  0.4190
12817W        W32351  11.676   3.201  10.754 -0.1543  0.2440 -0.1016
12818W        W32352   5.158   7.647  11.405 -0.0579 -0.0650 -0.0202
12819W        W32353   1.535   6.476   3.030  0.1753 -0.0812  0.0800
12820W        W32354   5.771  18.985  13.493 -0.3993  0.2374  0.1738
12821W        W32355  17.254   6.267   3.341  0.0430  0.1101  0.2581
12822W        W32356  13.809   0.197   0.641  0.0334 -0.2182 -0.2019
12823W        W32357   0.775   7.588   3.690  0.1087 -0.0847  0.1770
12824W        W32358   0.309   3.625  11.388  0.0348  0.4016 -0.0530
12825W        W32359   5.209   9.792   0.313 -0.0800 -0.3945 -0.2387
12826W        W32360  12.368   5.005  12.141  0.0549  0.2530 -0.0219
12827W        W32361  17.293  14.391   2.793 -0.1390  0.0372 -0.1007
12828W        W32362  10.381  13.213  12.521 -0.2535 -0.3382 -0.0324
12829W        W32363   1.773  10.707   1.987  0.0943 -0.0172 -0.1173
12830W        W32364   7.572  11.147  11.740 -0.1034  0.0913 -0.0459
12831W        W32365   1.353  17.200   0.629 -0.2714 -0.2838 -0.1904
12832W        W32366   8.554  11.490  13.967  0.2927  0.0262 -0.1036
12833W        W32367   6.910   0.828   1.424 -0.1690 -0.1316 -0.3318
12834W        W32368   0.990  15.228  10.562 -0.1560  0.2236 -0.1419
12835W        W32369   1.793  11.698   1.486 -0.0261 -0.0430 -0.0599
12836W        W32370  15.262   7.485   2.720  0.3030 -0.0071 -0.2020
12837W        W32371  13.503  12.205  11.542 -0.1357  0.4345  0.0709
12838W        W32372  13.351  10.903   0.625  0.1605  0.1211  0.0582
12839W        W32373   5.914   5.477   3.405 -0.4696  0.1864  0.0005
12840W        W32374   2.230   4.088  14.013 -0.1497 -0.2258  0.0716
12841W        W32375   4.095  18.627  13.868  0.2155  0.1000  0.0583
12842W        W32376   7.618   8.274  12.983 -0.2112 -0.0813 -0.0118
12843W        W32377  19.098  18.833  12.607 -0.1724 -0.3700 -0.3080
12844W        W32378  18.191   9.525   1.998 -0.0996  0.0540 -0.1427
12845W        W32379   2.687   3.775  11.191 -0.0317  0.0782 -0.1792
12846W        W32380   9.611  19.467   4.423 -0.1192 -0.3371 -0.0125
12847W        W32381  14.655   5.749   3.855  0.2371 -0.2048 -0.2176
12848W        W32382   2.915  15.689   2.079 -0.0813 -0.1337  0.1268
12849W        W32383   3.440  14.253  11.743 -0.1383 -0.0447 -0.2984
12850W        W32384   6.985   5.375   0.534 -0.1920  0.2715  0.0292
12851W        W32385  12.556   9.210  13.081 -0.0270 -0.0363  0.1748
12852W        W32386   0.645   9.195   3.538  0.0559  0.1252 -0.1405
12853W        W32387  19.219  19.353  13.591 -0.1722  0.0794 -0.3488
12854W        W32388  17.192   7.084   0.364  0.1207  0.1523  0.0081
12855W        W32389   1.089   6.904   3.158 -0.1781  0.0045  0.2921
12856W        W32390  18.174  18.586   1.233  0.2887  0.0319 -0.0154
12857W        W32391   2.890   9.744  13.192  0.1253  0.1799 -0.0721
12858W        W32392   7.070   1.120   3.194 -0.1787 -0.0067  0.6096
12859W        W32393   4.233  17.290   1.544 -0.0209  0.2318  0.0409
12860W        W32394  11.244  15.848  10.089 -0.0677  0.0057 -0.0671
12861W        W32395   1.985   5.528   3.281 -0.0259  0.1788 -0.2046
12862W        W32396   0.573  10.921   9.450  0.2627  0.3437  0.0286
12863W        W32397   2.866   2.223  13.324  0.0360 -0.0656  0.1096
12864W        W32398  10.772  17.317   3.631 -0.0655  0.0396  0.0787
12865W        W32399   9.360   6.268  10.669 -0.0685 -0.3350  0.1296
12866W        W32400  14.419   5.574  12.425  0.0911  0.2693  0.1662
12867W        W32401   6.711   1.357   0.792 -0.1018 -0.1915 -0.0566
12868W        W32402   2.028   5.030  13.988  0.3278 -0.0150 -0.3427
12869W        W32403   2.454   1.470  10.496 -0.1381 -0.2149  0.1507
12870W        W32404   5.375   1.604   1.346  0.0295 -0.0609  0.2556
12871W        W32405  15.908  18.076   4.923 -0.1285  0.0868 -0.1756
12872W        W32406   3.405  13.253  10.822 -0.0254 -0.1102  0.2896
12873W        W32407  12.067   9.068  14.217  0.0143 -0.1536 -0.0559
12874W        W32408   6.849   3.179  12.890 -0.0909  0.0440 -0.1675
12875W        W32409   0.053   7.025   0.229 -0.0411 -0.2584  0.2351
12876W        W32410   1.094  15.802  11.272 -0.2500  0.2325  0.0072
12877W        W32411  18.605  14.609   0.726  0.0178  0.1104 -0.1687
12878W        W32412   8.825   8.609  11.285  0.0201 -0.1501 -0.2476
12879W        W32413  17.068   0.500  10.899  0.0615  0.0447 -0.1258
12880W        W32414   0.553   6.875   9.696 -0.3030 -0.0167 -0.0214
12881W        W32415  10.640   0.266   0.198 -0.0002  0.1500 -0.0439
12882W        W32416   2.592   4.873  13.843 -0.0492 -0.0007 -0.3214
12883W        W32417  12.056   7.320  12.460 -0.0667  0.0720  0.1567
12884W        W32418   6.799   1.290  14.138  0.0437 -0.2453 -0.2483
12885W        W32419  10.134   0.287   4.090  0.0553 -0.0253  0.0273
12886W        W32420   1.247   4.361   0.062 -0.2525  0.0958 -0.0044
12887W        W32421   1.601   5.145  12.364  0.1902 -0.3479 -0.2198
12888W        W32422   2.266   4.615   2.837  0.1264  0.1499  0.2377
12889W        W32423   2.219  13.588  12.289 -0.0450  0.0238  0.4236
12890W        W32424   5.009   3.297   0.801 -0.3875  0.1291 -0.1584
12891W        W32425   2.978   6.960   1.002  0.2832 -0.0956  0.0898
12892W        W32426   5.489  10.194  14.260 -0.0608 -0.0578  0.3158
12893W        W32427  17.351   5.640  14.173  0.1580  0.2861  0.0845
12894W        W32428   8.621  13.864   9.867  0.3592 -0.0826  0.3360
12895W        W32429   9.095   3.387   2.466 -0.1788  0.0193  0.1845
12896W        W32430   0.149   5.134   3.003  0.1945 -0.0543 -0.1271
12897W        W32431   5.780  12.587   1.991  0.0761  0.0264  0.2637
12898W        W32432  16.347  14.255  12.841 -0.1409  0.0334 -0.0243
12899W        W32433  12.644  15.696  12.282 -0.2295  0.0118  0.1373
12900W        W32434   4.772   6.142   0.628 -0.0721 -0.4246 -0.2556
12901W        W32435   6.884   8.895   1.748  0.0083  0.2415 -0.0078
12902W        W32436  17.542  13.929   4.074  0.0772 -0.0856 -0.2299
12903W        W32437  17.272  17.585  13.753 -0.1639 -0.1887  0.1802
12904W        W32438  15.021  10.977  10.584 -0.0430 -0.0037 -0.3319
12905W        W32439   4.664   8.097  12.812  0.1997 -0.1757 -0.2388
12906W        W32440   4.685   4.703  10.458  0.3315 -0.3142 -0.2143
12907W        W32441  13.847   2.771  12.813 -0.3470 -0.3719 -0.1157
12908W        W32442   3.314   1.000  10.500 -0.0257 -0.0464 -0.2337
12909W        W32443  10.445   6.878  10.979 -0.3243 -0.0790 -0.3637
12910W        W32444   3.604  17.359   1.829 -0.3317 -0.5753 -0.2436
12911W        W32445   0.130   7.742   2.325 -0.2050 -0.1503 -0.0735
12912W        W32446  11.115  18.914  13.626  0.0867  0.2535  0.0881
12913W        W32447  15.336  16.758   4.097  0.3584 -0.3338 -0.0333
12914W        W32448  13.977   3.785   3.512  0.0297 -0.4784  0.1472
12915W        W32449   7.457   5.024   2.089  0.0164  0.1645  0.0381
12916W        W32450  14.975  14.870  10.494 -0.0292 -0.2372  0.1435
12917W        W32451   1.364  15.413  12.319 -0.0670 -0.0581 -0.0905
12918W        W32452   9.244   2.896   4.024  0.1812 -0.0931 -0.3291
12919W        W32453  12.729  15.310   4.024 -0.3222  0.2057 -0.0157
12920W        W32454   6.027  17.640   3.150  0.0847  0.2465  0.0329
12921W        W32455  16.167  16.802   0.958  0.3516  0.0110  0.1479
12922W        W32456  12.040  15.437   1.250 -0.1607 -0.0099  0.0222
12923W        W32457   9.352  11.821   2.459  0.1302  0.1961  0.0200
12924W        W32458  19.025   3.023  10.712  0.0493  0.2523 -0.1136
12925W        W32459  13.519   8.507   3.647  0.4935 -0.2184 -0.0310
12926W        W32460   3.940  10.941   3.486 -0.1776  0.0830 -0.1652
12927W        W32461  18.347  12.557  12.691  0.1430  0.2537 -0.0525
12928W        W32462  18.497   9.234  12.262  0.1248 -0.1264  0.1118
12929W        W32463  14.446   9.588   4.916  0.0098  0.0344 -0.0593
12930W        W32464   8.749  15.983   0.533  0.2877 -0.3455 -0.1665
12931W        W32465  10.369   2.934  13.043 -0.2427 -0.1482 -0.1518
12932W        W32466   9.177  16.471  13.280 -0.2814 -0.4295  0.1756
12933W        W32467   6.145   1.316  11.677 -0.0289  0.2771  0.0551
12934W        W32468   1.010  18.028   1.744  0.1132 -0.1018  0.0977
12935W        W32469  17.682   9.130   2.575  0.0489 -0.0621 -0.1488
12936W        W32470   8.322   5.526   2.690  0.2774 -0.1490  0.1732
12937W        W32471   7.504  19.161   1.081 -0.0936 -0.0510  0.3036
12938W        W32472   7.180   7.290  11.623 -0.0874 -0.5621  0.1089
12939W        W32473   8.863  15.779   2.103 -0.1517 -0.1106  0.0108
12940W        W32474  10.655  14.068   0.821  0.1623  0.0273 -0.2107
12941W        W32475  10.471  14.476  13.729  0.1762  0.3906 -0.0995
12942W        W32476   7.444   3.430   0.185 -0.2091 -0.2019 -0.2012
12943W        W32477   8.059   7.685   2.396  0.1663  0.0747  0.0783
12944W        W32478  18.201   8.408   0.290 -0.1300 -0.2055 -0.3783
12945W        W32479   9.938   8.527   1.546  0.0475 -0.1623 -0.1965
12946W        W32480  16.517   9.659  14.269  0.2212 -0.2427 -0.2569
12947W        W32481  16.829  11.159  14.110 -0.0580 -0.0132 -0.1243
12948W        W32482  18.794   9.412  11.096 -0.2390 -0.1041  0.0381
12949W        W32483  16.879  13.087  13.686 -0.2235 -0.1131 -0.3613
12950W        W32484   3.818   4.485  10.995 -0.3261  0.2925  0.0901
12951W        W32485  17.177   5.341   1.258  0.1263 -0.1653 -0.0454
12952W        W32486   2.641   7.880   1.381 -0.1763  0.0753  0.0338
12953W        W32487  18.813  16.994  11.451 -0.1154  0.1222 -0.0764
12954W        W32488   7.465   2.918   0.820  0.0763  0.1154 -0.2067
12955W        W32489  14.034   8.177   2.739 -0.0074  0.1267  0.2155
12956W        W32490  14.680   9.570   0.341 -0.0118  0.0782 -0.2748
12957W        W32491  15.607   2.512   2.568 -0.1420  0.0561 -0.2866
12958W        W32492   3.058  12.859   2.997  0.0882 -0.0541  0.0701
12959W        W32493   1.245   9.366   3.022 -0.1794 -0.2419 -0.0015
12960W        W32494   4.538   0.056   3.180  0.0082  0.2426  0.1691
12961W        W32495   2.206   8.336  11.591  0.2474 -0.1464  0.3499
12962W        W32496   7.815  14.768  10.490 -0.1942  0.0037  0.0589
12963W        W32497  11.904  13.126   0.728 -0.1206  0.2559 -0.2130
12964W        W32498  16.635  18.639  14.005  0.1626 -0.2394 -0.1552
12965W        W32499   5.697  14.568  12.606  0.1975 -0.0103 -0.0559
12966W        W32500  16.785  19.115  11.675 -0.0170 -0.0275  0.0272
12967W        W32501   9.181   7.902   2.570 -0.0449 -0.0693 -0.1629
12968W        W32502   2.329   0.509  10.271 -0.2051  0.3315  0.0662
12969W        W32503  18.840   8.705  13.517  0.1377 -0.1218 -0.1949
12970W        W32504   3.696  12.594  13.591  0.1339  0.0000  0.3642
12971W        W32505  18.451   9.026   1.903  0.1318 -0.0718 -0.4017
12972W        W32506   0.102   2.364   1.540 -0.0440  0.0477  0.0633
12973W        W32507   4.334  10.944  12.780 -0.1752 -0.3045  0.0053
12974W        W32508  12.840   9.441  10.630 -0.0113 -0.1871  0.1478
12975W        W32509  14.005  17.081   0.896 -0.0607  0.2670  0.0170
12976W        W32510  12.372  10.931  13.605  0.1176 -0.2729 -0.1092
12977W        W32511   0.268  15.261  11.811 -0.1974 -0.0261  0.1270
12978W        W32512  11.388  14.766  10.495 -0.4083 -0.2933 -0.1955
12979W        W32513   9.704   6.711   1.930  0.0528  0.0141 -0.0377
12980W        W32514   3.471  17.955  11.564  0.0678  0.0981 -0.0096
12981W        W32515  13.097   7.191  12.245  0.0166  0.1030  0.0164
12982W        W32516   7.351  11.633   2.676  0.2142  0.2050  0.0781
12983W        W32517   4.896  16.562  13.437 -0.1020 -0.2762  0.0393
12984W        W32518   1.379   5.834  11.622  0.4409 -0.3340  0.2539
12985W        W32519  16.187   2.223  11.951  0.2165  0.0918  0.1232
12986W        W32520  19.274  15.628   3.289  0.2291 -0.2376  0.1948
12987W        W32521   4.585  11.893   0.059 -0.1543 -0.2405  0.0418
12988W        W32522  10.271  16.207   2.025  0.3428 -0.1964  0.0653
12989W        W32523  11.334   6.550  13.689 -0.0443  0.2375 -0.4971
12990W        W32524  19.149   9.624  13.167 -0.1233  0.1689  0.0184
12991W        W32525  15.640  15.258   2.859 -0.2172 -0.4519  0.1999
12992W        W32526   8.717   8.218  13.901 -0.1931 -0.0679 -0.1031
12993W        W32527   6.367  16.276  10.969  0.2192  0.0285  0.0368
12994W        W32528  14.626   7.152   2.134  0.1092  0.1210 -0.0209
12995W        W32529  13.255  13.657   2.658 -0.0899  0.0114 -0.1998
12996W        W32530   2.452  14.858  13.832  0.1180  0.0262  0.0505
12997W        W32531  14.131   6.198  11.294  0.0585  0.4272 -0.0180
12998W        W32532   7.777   3.715   1.778  0.1052  0.0248  0.0380
12999W        W32533  10.300   3.959  12.255 -0.1241 -0.1357 -0.2609
13000W        W32534  18.653   4.831  11.313  0.1637  0.0149 -0.1185
13001W        W32535   5.790  15.653   3.024 -0.2651  0.2569  0.3511
13002W        W32536   4.024   5.039  13.974 -0.0255 -0.1221 -0.1091
13003W        W32537   4.746   5.099   1.522 -0.2025  0.0797  0.1563
13004W        W32538  15.204   6.831  13.427 -0.0435  0.1600 -0.2937
13005W        W32539   4.497  17.710  13.440 -0.0125 -0.1322 -0.0605
13006W        W32540  14.553   4.170  13.975  0.3204  0.0813 -0.1500
13007W        W32541   8.804  10.074   4.137 -0.0211 -0.3657 -0.0602
13008W        W32542   1.191  10.509   5.044  0.0382  0.1996  0.2488
13009W        W32543  11.288   6.040   1.271  0.0562 -0.1010 -0.1710
13010W        W32544  11.476  12.932   3.712  0.1673  0.0774 -0.4520
13011W        W32545  12.517   3.147  13.363  0.2455  0.0433 -0.3737
13012W        W32546   5.662   2.661   0.877 -0.0470  0.1290 -0.0759
13013W        W32547   2.151   8.887  13.169  0.0503  0.0558  0.1744
13014W        W32548  19.401  11.589  11.604  0.2753 -0.0139  0.0504
13015W        W32549   9.651  15.867  12.021  0.0868  0.0581 -0.5362
13016W        W32550  14.485   0.968   3.939 -0.1349  0.1024 -0.1760
13017W        W32551  15.552   1.110  11.908  0.5213 -0.3389  0.0832
13018W        W32552  17.604   5.244   2.428  0.0481 -0.2447  0.0348
13019W        W32553  15.314  14.176  14.040  0.0784 -0.2240  0.0184
13020W        W32554  18.162  10.862  11.038  0.0436  0.2686  0.2512
13021W        W32555  16.550   4.142   1.076 -0.1485 -0.0253  0.1708
13022W        W32556  11.561   8.778  11.632 -0.2462 -0.0221  0.0317
13023W        W32557  19.360  10.312  11.175  0.0681  0.1641 -0.2423
13024W        W32558   1.340  18.653  12.791 -0.1762  0.0540 -0.0669
13025W        W32559  11.742   1.251  12.202  0.1652 -0.0726 -0.0506
13026W        W32560   0.009  12.356   4.031  0.0713 -0.3106  0.2252
13027W        W32561  17.498  10.717   0.220 -0.2220 -0.2406 -0.0726
13028W        W32562   6.352  16.424   3.293 -0.1541 -0.0668  0.0227
13029W        W32563   2.552  17.935   3.428  0.0254  0.4586 -0.0157
13030W        W32564   8.043   6.290   3.714 -0.4062  0.1092  0.3030
13031W        W32565   2.904  14.430   3.011  0.1505  0.1664  0.0550
13032W        W32566   6.560  14.270   3.980 -0.0524 -0.1702 -0.0746
13033W        W32567   5.678  10.923  12.423  0.1212 -0.0586  0.1037
13034W        W32568   4.875  12.827   3.208 -0.1915  0.0452  0.0612
13035W        W32569   8.813   1.660  10.726 -0.0820 -0.1006  0.2739
13036W        W32570   8.292   8.670  12.151  0.1648 -0.0890  0.3735
13037W        W32571  11.031   1.592   3.057 -0.1691 -0.0470  0.2934
13038W        W32572   6.143   3.424  10.043 -0.0896  0.3406  0.2881
13039W        W32573  14.776   4.684  14.051  0.1008 -0.0659 -0.0353
13040W        W32574   9.770   6.590  10.622  0.0754 -0.0677 -0.0309
13041W        W32575   9.168   6.174   2.947  0.0044  0.1228  0.1009
13042W        W32576   0.014   0.734   1.440 -0.0029  0.0008 -0.1897
13043W        W32577  19.052  19.419   2.578 -0.0054 -0.1417 -0.0252
13044W        W32578  11.023  17.536  10.767 -0.2390 -0.3564 -0.1496
13045W        W32579  16.469  19.120  12.076  0.0419 -0.1188 -0.4509
13046W        W32580   4.515  12.869  12.696 -0.1105  0.0755  0.3497
13047W        W32581  13.563   4.169   1.840 -0.2373  0.1086 -0.0892
13048W        W32582   8.249  14.727   0.069 -0.1088  0.1878  0.1778
13049W        W32583   3.229   9.574   3.172  0.1939 -0.3255  0.3673
13050W        W32584   4.878   2.762   9.424  0.0673  0.0684  0.3265
13051W        W32585   0.800   5.586   1.128  0.0430 -0.2064 -0.0943
13052W        W32586   2.138  11.523  12.428 -0.0690  0.1639  0.4626
13053W        W32587  18.381  16.334   0.880 -0.1244  0.0087 -0.0325
13054W        W32588   8.299  13.530  12.909 -0.3331 -0.0399 -0.1596
13055W        W32589  15.958   1.389  13.850  0.2933 -0.1792 -0.3527
13056W        W32590  10.409   8.647   9.995  0.1177  0.1481 -0.0438
13057W        W32591  18.219  12.319   0.156 -0.1570 -0.0249 -0.0856
13058W        W32592  14.881   1.519   2.318 -0.1823 -0.1110  0.1835
13059W        W32593  13.995  15.499   2.437 -0.2395  0.2032 -0.3340
13060W        W32594  16.077   7.385   3.302  0.0708 -0.1307 -0.0068
13061W        W32595   2.033   7.176  11.119  0.1176 -0.1964  0.2967
13062W        W32596  18.003  14.182   1.398  0.2692  0.0524 -0.3361
13063W        W32597  13.318  17.274  13.747  0.1327 -0.3160 -0.1327
13064W        W32598   1.753  15.228   2.697  0.2298  0.0720  0.1138
13065W        W32599   1.387  10.646  13.281 -0.1618 -0.2266  0.1239
13066W        W32600   7.257  14.317   0.461 -0.1141  0.1007 -0.0834
13067W        W32601   4.721  19.264  13.035  0.0505  0.1209  0.1384
13068W        W32602   7.544  15.258  11.298  0.1666 -0.2825 -0.0062
13069W        W32603   6.646   9.056   4.305  0.0394  0.0129 -0.0692
13070W        W32604   9.197  13.084  12.985 -0.0969 -0.0939  0.0279
13071W        W32605  18.917   1.121  13.926  0.1089  0.2855  0.1396
13072W        W32606   9.708  13.584  12.762  0.1224 -0.1677  0.3203
13073W        W32607   9.014   1.767  14.103 -0.2847 -0.3704 -0.3340
13074W        W32608   7.780  12.504   1.898  0.1646  0.1930 -0.1017
13075W        W32609  10.176   4.118   0.279  0.1432 -0.4257 -0.0235
13076W        W32610  16.695   0.396   3.599 -0.0208  0.1015 -0.1903
13077W        W32611  16.129   2.493  12.369 -0.1195  0.3647 -0.2244
13078W        W32612  13.365   8.827  10.785 -0.1558 -0.1384 -0.0352
13079W        W32613   1.336   4.861   4.568  0.1076  0.0642 -0.3546
13080W        W32614  12.312   3.249  11.498 -0.0566 -0.0054  0.1191
13081W        W32615   5.894   9.857   2.222 -0.2028 -0.1568 -0.1725
13082W        W32616   9.312  12.110   2.012  0.1783 -0.1963  0.0340
13083W        W32617  15.915   5.976  12.841  0.1495 -0.4554  0.0063
13084W        W32618   6.609   1.500   3.789  0.1485 -0.1481  0.0297
13085W        W32619  11.966   0.370   2.939 -0.0833  0.2951  0.1519
13086W        W32620  15.046  11.169   1.203  0.3163  0.0774  0.1305
13087W        W32621  12.165   7.849  11.450 -0.1489  0.0654 -0.2744
13088W        W32622  13.488  11.113   2.366 -0.0256  0.2324  0.1481
13089W        W32623  15.718  17.589   9.999  0.1055 -0.4349 -0.4160
13090W        W32624  19.455   0.342  13.612  0.1230 -0.0816 -0.1630
13091W        W32625   0.519  14.329  13.376 -0.0224 -0.4236  0.0460
13092W        W32626  18.393  13.275   1.794 -0.1967 -0.0654  0.2170
13093W        W32627  10.579   6.925  11.445 -0.1820 -0.2233 -0.2307
13094W        W32628  15.444   0.383  12.462  0.1959 -0.0264  0.3269
13095W        W32629  15.928  15.620  12.273  0.0065  0.2284  0.3190
13096W        W32630  13.526  15.933   2.968  0.2392 -0.1113 -0.0216
13097W        W32631   0.284   4.249  13.804  0.1065 -0.2915 -0.0988
13098W        W32632   7.196  11.752   1.785 -0.2248 -0.1160  0.1094
13099W        W32633  10.499   5.821   2.505  0.1372 -0.4924  0.0967
13100W        W32634   7.036  13.196   0.008  0.0017 -0.2149  0.1118
13101W        W32635   4.619  17.748  10.962 -0.0884  0.0821  0.1397
13102W        W32636  15.454  19.008   1.002 -0.1183 -0.0075  0.0016
13103W        W32637   9.665  15.629   1.555  0.1797  0.0045 -0.0805
13104W        W32638   7.097   9.538   2.109  0.1604  0.0726  0.0985
13105W        W32639  13.201   9.589   3.268 -0.0166 -0.5186 -0.2658
13106W        W32640   3.191  18.502   0.272  0.0769  0.0702  0.2081
13107W        W32641   2.503   0.883  13.344 -0.2555 -0.1002 -0.1398
13108W        W32642   7.336   7.927  14.023  0.2637  0.2629  0.0389
13109W        W32643  18.462  12.187   3.726 -0.1414  0.1729 -0.1063
13110W        W32644   0.477   4.171   1.754 -0.2666  0.1347  0.1366
13111W        W32645   1.206   9.124   0.391 -0.2496 -0.3188 -0.1508
13112W        W32646  11.459  14.302   1.859 -0.3421  0.0929 -0.3390
13113W        W32647   4.881   1.833   3.897 -0.0934  0.0901 -0.1185
13114W        W32648  15.277  13.314   1.854 -0.3397  0.1103  0.2177
13115W        W32649   9.875   4.101  10.771 -0.3752  0.2167  0.3162
13116W        W32650  15.196   2.336  14.204 -0.2212  0.0785 -0.0476
13117W        W32651  11.976  12.517   0.993  0.0827 -0.3629 -0.1857
13118W        W32652   1.852  18.885  14.177 -0.2022 -0.2504 -0.3418
13119W        W32653   9.028  14.442  12.242 -0.0307  0.1376 -0.1727
13120W        W32654  16.718  13.951   1.100 -0.2148 -0.0850  0.1132
13121W        W32655  19.523   3.120  14.116  0.0797 -0.1017 -0.1202
13122W        W32656   0.426   3.305  14.069 -0.2265 -0.0934 -0.0271
13123W        W32657  15.147  17.276   0.080  0.1700 -0.1211  0.0108
13124W        W32658   4.721   9.084  13.227 -0.0508  0.1139 -0.0184
13125W        W32659  10.234   4.532  14.042 -0.1770  0.1268  0.1778
13126W        W32660  12.754  17.653   5.026  0.3239 -0.1612  0.3824
13127W        W32661   4.600   2.986  13.364  0.1115 -0.1093  0.0687
13128W        W32662   1.366   7.088   4.891  0.1085  0.1986  0.0768
13129W        W32663   5.185  16.514  11.349 -0.0518 -0.4608  0.2183
13130W        W32664  14.289   2.318  10.121 -0.0845  0.1666 -0.2772
13131W        W32665   8.707  11.765  11.962  0.0147  0.1602 -0.0342
13132W        W32666  10.489  13.031  11.890  0.0447 -0.3469  0.0332
13133W        W32667   0.201   4.086   0.176 -0.1663  0.3431  0.0004
13134W        W32668   2.759  16.193   0.663 -0.2717  0.0029  0.1896
13135W        W32669   8.698  17.827   9.592 -0.3062  0.0308  0.0487
13136W        W32670  15.353   5.303   1.520  0.0367  0.3112  0.1572
13137W        W32671   5.560   2.971   1.489 -0.1304 -0.2595  0.0732
13138W        W32672  14.581  11.080   3.852 -0.0828  0.0434 -0.1401
13139W        W32673  15.307  16.981  12.918  0.2015  0.1620  0.1444
13140W        W32674  15.000   3.273   1.004 -0.0019 -0.0700  0.0174
13141W        W32675  19.319   1.758  10.588 -0.3291 -0.0290  0.2414
13142W        W32676   3.776   1.124   0.345  0.2546  0.1362 -0.0240
13143W        W32677   3.548   9.330   1.478 -0.0540  0.2637 -0.0508
13144W        W32678   3.534   5.968   4.060 -0.1177  0.1932 -0.0140
13145W        W32679  16.252   1.999   0.376 -0.2579 -0.2246 -0.2494
13146W        W32680  10.130   3.316   0.027 -0.0600 -0.2849 -0.1437
13147W        W32681   4.816   1.186   3.700  0.1394  0.1150  0.0471
13148W        W32682   7.267   5.605  11.302  0.1063 -0.1017 -0.0882
13149W        W32683  17.007  18.299   1.212 -0.0873 -0.3956  0.1270
13150W        W32684  14.399  17.727  12.266 -0.1455  0.2040 -0.2705
13151W        W32685   2.905   4.093  10.860  0.1480 -0.2144  0.0025
13152W        W32686   8.804  13.333   2.832  0.3099 -0.2171  0.1087
13153W        W32687   2.070   5.720   1.131 -0.0523  0.2155  0.0559
13154W        W32688  17.887   4.239  13.557 -0.1302  0.0436 -0.2654
13155W        W32689   4.069  18.186   0.459 -0.0161  0.1557  0.3884
13156W        W32690   8.853  19.242   0.552  0.0197  0.0897  0.1240
13157W        W32691  15.143  11.860  10.629  0.1202  0.1469  0.0867
13158W        W32692   5.821   6.839  13.119  0.1747 -0.3020  0.0781
13159W        W32693   7.130   8.030  12.654  0.0836  0.1512  0.2106
13160W        W32694   5.450   8.705  13.935 -0.1346  0.4542  0.2498
13161W        W32695  18.906   3.693  11.880 -0.2570 -0.1820 -0.0621
13162W        W32696  11.174  14.099   3.363 -0.1383 -0.1474  0.2951
13163W        W32697  15.410   9.271   1.481  0.4489  0.1068  0.5605
13164W        W32698   3.731   7.618  11.694  0.0804 -0.0631 -0.0960
13165W        W32699   1.279   2.729   1.661 -0.0021  0.0458  0.0169
13166W        W32700   3.195  19.129  14.143  0.2124  0.1068 -0.0424
13167W        W32701   0.275  10.800  14.051 -0.3791 -0.0547 -0.0041
13168W        W32702   3.160   7.407   0.950 -0.0701 -0.1940 -0.1064
13169W        W32703  18.379  11.411   0.991 -0.0238 -0.1313  0.1033
13170W        W32704  12.222   3.375  10.776 -0.0081 -0.0352  0.0082
13171W        W32705  16.187  15.310  12.843 -0.0515  0.3301  0.0269
13172W        W32706   9.642   0.284  13.139 -0.3015  0.1018  0.3304
13173W        W32707  17.575   6.831   4.939  0.0187 -0.0453 -0.3116
13174W        W32708   4.066  13.390  14.076 -0.0309 -0.0395 -0.2207
13175W        W32709   8.932  19.000   0.072  0.0576 -0.0145  0.0101
13176W        W32710  10.724   2.061  10.891  0.2430  0.0167 -0.1163
13177W        W32711  15.331   1.672  13.066 -0.2384  0.0423 -0.3225
13178W        W32712  11.152   9.825  14.329 -0.0735  0.1733  0.1138
13179W        W32713   8.884   7.912  14.321 -0.0910  0.0370 -0.1340
13180W        W32714   0.094   8.736  13.002 -0.1792 -0.1983 -0.0396
13181W        W32715  13.708  10.521  10.260 -0.1167 -0.3738 -0.0202
13182W        W32716  19.286   5.233   0.933 -0.0847  0.0780  0.0557
13183W        W32717   1.558   4.528   1.824 -0.3507 -0.1437 -0.0603
13184W        W32718   9.694   8.626  12.778  0.1705 -0.1163  0.0045
13185W        W32719   6.398  15.913  12.455 -0.2187 -0.2076  0.0996
13186W        W32720   8.581  13.558  10.604  0.0358 -0.0377  0.0752
13187W        W32721   5.092   8.909  12.101  0.1745  0.1092 -0.1380
13188W        W32722   7.294   3.236   4.717 -0.0067  0.1103  0.2443
13189W        W32723   1.927   2.666   1.788 -0.0396  0.2229  0.0367
13190W        W32724   3.292   1.993  13.731 -0.0751  0.2787 -0.2047
13191W        W32725  19.240   6.535  10.849 -0.1141 -0.0988 -0.3563
13192W        W32726   8.357   4.750   9.181  0.1059 -0.1118 -0.0113
13193W        W32727   3.620   9.136  12.810  0.1632  0.2912  0.2120
13194W        W32728  13.875   2.245   4.113 -0.3034 -0.1446  0.0429
13195W        W32729   3.093  10.241   1.069  0.0725 -0.4306  0.1892
13196W        W32730   3.374  16.821   1.299  0.2294  0.0129 -0.0727
13197W        W32731  17.335   5.085   1.957 -0.1852  0.0490  0.0486
13198W        W32732   8.943  13.258  10.337 -0.1998 -0.4260  0.2595
13199W        W32733  14.940   5.516  14.339 -0.0180 -0.0627  0.2709
13200W        W32734   0.601   0.293  10.974  0.7336 -0.0582 -0.0245
13201W        W32735   7.478  14.708  13.008 -0.0259 -0.1491  0.4018
13202W        W32736  17.397   4.988  12.718 -0.0458 -0.0160 -0.2508
13203W        W32737  12.528  14.096   9.989 -0.7059 -0.0762  0.1302
13204W        W32738  17.720   5.230  10.969 -0.0408 -0.1608  0.0492
13205W        W32739  12.417   1.450   1.860 -0.0646  0.1476 -0.2129
13206W        W32740   8.081  18.911   1.937 -0.1867 -0.2561  0.0960
13207W        W32741  13.022   0.848  13.329  0.1598  0.0254 -0.1369
13208W        W32742  12.146  11.178   3.849  0.1793  0.0858  0.0556
13209W        W32743  10.074   5.525  13.740 -0.1400 -0.0883  0.0148
13210W        W32744  17.255   1.136   0.857 -0.1763  0.4251 -0.1404
13211W        W32745   1.036   8.419  13.554 -0.1624  0.1127  0.0740
13212W        W32746  17.386  10.661  11.066  0.0253 -0.4094 -0.0022
13213W        W32747   9.741  11.586   0.973 -0.1515  0.0919  0.2724
13214W        W32748  16.850   2.109   4.209 -0.2167 -0.4520 -0.2842
13215W        W32749  13.336   7.309   0.391 -0.0971 -0.3588  0.1169
13216W        W32750   6.436  12.753  12.028  0.4020  0.0998  0.4307
13217W        W32751   9.089   0.651  10.799 -0.0950  0.0943  0.0536
13218W        W32752   5.884   7.710   3.549 -0.3026 -0.1060  0.1539
13219W        W32753  12.197  16.398   3.108  0.0449 -0.1318 -0.4148
13220W        W32754  11.615  15.191   1.095  0.2743  0.0847  0.2119
13221W        W32755  19.497   8.247  13.771 -0.1235  0.4157  0.1412
13222W        W32756   8.586  19.399   0.976 -0.1881 -0.0190 -0.3848
13223W        W32757  11.150   1.406   1.914 -0.2216  0.1113  0.1857
13224W        W32758  15.951   8.253  12.718 -0.2033 -0.3214 -0.0433
13225W        W32759  16.065   9.637   3.511 -0.0823 -0.2981  0.0072
13226W        W32760  14.420  10.326  11.616 -0.3758 -0.1715 -0.1575
13227W        W32761   5.906   5.408  10.974 -0.1409 -0.1416  0.0883
13228W        W32762   8.799  16.916  11.930  0.0616  0.2934 -0.1350
13229W        W32763   4.759  11.819   3.082  0.0682  0.1388 -0.2661
13230W        W32764  13.393   6.726   0.278 -0.2002  0.3138  0.0638
13231W        W32765   4.997  13.535  11.993  0.2702 -0.0117 -0.0011
13232W        W32766   2.969  19.302  10.789 -0.0090  0.2076 -0.1470
13233W        W32767  19.126   3.443   1.169 -0.1920  0.1956  0.0851
13234W        W32768  10.647   7.907  12.609  0.1234  0.0433 -0.2350
13235W        W32769  17.333   9.514  12.289 -0.2574 -0.0514  0.1738
13236W        W32770   2.369  19.120   0.414 -0.0535 -0.0923  0.1203
13237W        W32771   3.553  10.765   2.078 -0.3644  0.0372  0.0010
13238W        W32772  12.397  11.568  11.239  0.2640  0.3004  0.0548
13239W        W32773   4.848  17.939   2.820 -0.0819  0.1855  0.2685
13240W        W32774  10.053   3.613   0.465 -0.2396  0.1059  0.2356
13241W        W32775   9.050   0.242  11.141  0.2718 -0.1277 -0.0614
13242W        W32776   7.064  16.866  10.382 -0.2795  0.0586 -0.0576
13243W        W32777   4.281  17.533   2.947 -0.3501  0.2458  0.0004
13244W        W32778  15.720   2.508  11.612 -0.2197 -0.1714  0.0744
13245W        W32779   4.571  16.951   2.279  0.2080 -0.0335  0.2714
13246W        W32780   4.006   9.814  14.177  0.3654  0.1043 -0.1240
13247W        W32781  19.055  11.383  12.781 -0.0567 -0.1406  0.2924
13248W        W32782   9.099   6.648   0.642 -0.2064  0.1052 -0.0397
13249W        W32783  15.277  13.807   1.787 -0.2965  0.0263 -0.1504
13250W        W32784  14.726  18.426   0.676  0.0587 -0.2862  0.1954
13251W        W32785  10.924  11.531  10.224 -0.0310  0.0913  0.0016
13252W        W32786  17.369   4.525  13.938 -0.3241 -0.0336 -0.0003
13253W        W32787   8.705   2.300  13.569  0.0118  0.2458  0.0688
13254W        W32788   9.002   3.833   3.030 -0.2618  0.0023 -0.0568
13255W        W32789   1.333  13.247  13.768  0.0781  0.5857 -0.1914
13256W        W32790   6.028   1.769   3.084  0.1330  0.2411  0.1896
13257W        W32791  11.856   8.335   0.649  0.2537 -0.0014 -0.1771
13258W        W32792   8.698   1.519   0.455  0.2687  0.0756 -0.1866
13259W        W32793   9.593   5.550   2.475  0.1397 -0.1048  0.0978
13260W        W32794   7.112   9.230   2.970  0.0464 -0.4681  0.3175
13261W        W32795   5.034  10.821   2.086  0.2846 -0.1840  0.1810
13262W        W32796   3.690  16.408   0.187  0.0146 -0.2528  0.0908
13263W        W32797  15.853  11.762   2.508  0.0401 -0.0376  0.1512
13264W        W32798   0.428   9.969   0.108 -0.1387  0.2258  0.0841
13265W        W32799   7.290  10.883   4.219 -0.3703  0.2775 -0.0060
13266W        W32800   2.130  18.468  10.793 -0.1463 -0.0853  0.0094
13267W        W32801   0.900   9.579   0.046 -0.4231 -0.1211  0.0162
13268W        W32802  15.638   0.781   2.179 -0.1814  0.1963 -0.0610
13269W        W32803  14.349   1.660   0.250 -0.4899 -0.2813 -0.0482
13270W        W32804  12.646  14.308   1.545  0.4251 -0.1657 -0.1350
13271W        W32805  17.616   9.819  10.624 -0.1336  0.0755  0.0163
13272W        W32806   6.092  19.173   3.819  0.0148  0.0179  0.2130
13273W        W32807   9.236   2.637   0.626 -0.3087  0.2865  0.1209
13274W        W32808  15.090  12.875   2.120 -0.0277  0.2151  0.0719
13275W        W32809   7.985  19.043  14.333 -0.0912 -0.1674  0.0748
13276W        W32810   2.703  13.281   2.267  0.0941 -0.2745 -0.3274
13277W        W32811   5.050   7.485  14.022 -0.1081  0.1690 -0.2097
13278W        W32812  18.272   7.072  14.291  0.0937  0.0727 -0.2198
13279W        W32813   7.320   4.921  12.335  0.1654  0.2727 -0.0373
13280W        W32814   9.496  12.786   0.186  0.1399  0.0164  0.2173
13281W        W32815   5.075   7.090   1.552 -0.2123  0.3889 -0.1904
13282W        W32816  12.923   0.293  13.344 -0.2047  0.0342 -0.1289
13283W        W32817  16.569  17.592  10.552 -0.0894  0.2444 -0.1338
13284W        W32818  13.377  13.385   3.035  0.2924  0.1009 -0.2046
13285W        W32819  13.422  11.358   3.205 -0.0481 -0.2320  0.3067
13286W        W32820   1.743   5.184   0.034  0.1014 -0.0590 -0.1224
13287W        W32821   8.222  14.119   0.190 -0.0565 -0.0457 -0.1132
13288W        W32822   2.025   4.409   1.063  0.0194  0.0438 -0.2542
13289W        W32823  18.582   6.701   3.929 -0.0584  0.1255  0.1210
13290W        W32824  16.235   9.734   2.478 -0.3418  0.0360 -0.0239
13291W        W32825  17.711   0.841  13.085  0.4328 -0.0959  0.3076
13292W        W32826   3.064   7.568   9.636  0.0051 -0.0977  0.0915
13293W        W32827  13.988   3.874   1.738 -0.0314  0.0333  0.2588
13294W        W32828  16.487   9.894   1.609  0.1158 -0.1066  0.0765
13295W        W32829   1.898  17.703   1.831  0.2149 -0.1244 -0.0517
13296W        W32830   6.408  12.464  14.183  0.0778  0.1434  0.0839
13297W        W32831  17.548  14.262   3.753  0.0438  0.2657  0.0760
13298W        W32832   7.219  13.113  10.661  0.0421  0.0617 -0.0264
13299W        W32833  17.340   8.123   1.384  0.2220  0.1382  0.1015
13300W        W32834  11.597   6.996  13.425  0.1274 -0.0366 -0.0413
13301W        W32835  15.126  11.926   2.427  0.0577 -0.1003  0.3017
13302W        W32836   1.312   3.621   2.841  0.0854 -0.1120 -0.1089
13303W        W32837   2.457   0.576   3.854  0.3851  0.0884  0.0026
13304W        W32838  10.890  17.819   1.758  0.1950  0.3566  0.0341
13305W        W32839  16.954   4.936   9.152 -0.0921 -0.1791  0.0740
13306W        W32840   1.979  10.828  10.778 -0.1573  0.2758  0.1155
13307W        W32841   1.470   2.386   3.727  0.1097  0.1651  0.0185
13308W        W32842   7.119   2.213  11.398  0.1393  0.2811 -0.0562
13309W        W32843   1.693   1.799   4.129  0.3534  0.2216  0.5182
13310W        W32844   0.061  11.891  10.641  0.2533  0.1733  0.0097
13311W        W32845  19.505  17.362   0.009 -0.1793 -0.1760 -0.0619
13312W        W32846   7.102   8.287  10.699  0.0503 -0.1800 -0.2514
13313W        W32847   8.190  11.585   3.174  0.2981 -0.2175 -0.0259
13314W        W32848   6.489  11.391   2.248 -0.1154  0.3660 -0.0741
13315W        W32849   8.964  11.748  12.620 -0.2328  0.3391 -0.2704
13316W        W32850  11.194  13.856  14.058  0.1011  0.0302 -0.2194
13317W        W32851   0.127  18.722  10.921  0.0368 -0.2832 -0.0514
13318W        W32852  10.614  11.122   9.455 -0.0515  0.0318 -0.0543
13319W        W32853  14.622  17.324   3.801 -0.0164 -0.1376 -0.2163
13320W        W32854   2.412   9.078  14.018  0.0915 -0.1008  0.1927
13321W        W32855  11.079  11.302  13.853  0.1859 -0.0433 -0.1139
13322W        W32856   4.876  13.705   3.654 -0.0177 -0.2690  0.0667
13323W        W32857   1.730   9.430   3.471  0.1813 -0.0165  0.1215
13324W        W32858  10.274  10.452  11.624  0.1475  0.0533 -0.0302
13325W        W32859   0.022  17.900   0.658  0.3382 -0.0075 -0.0564
13326W        W32860   3.235  16.031   1.006  0.0843 -0.0887 -0.0972
13327W        W32861   8.773   6.564   1.553 -0.0197  0.2327 -0.0656
13328W        W32862  10.031   3.022   3.490  0.1689  0.1718 -0.0775
13329W        W32863  19.124  17.874   3.900  0.0427  0.2044 -0.0482
13330W        W32864   6.210  14.710   0.531 -0.0737 -0.0630  0.2421
13331W        W32865  13.564   3.823   1.462  0.3664  0.1896 -0.0924
13332W        W32866   1.697   0.642  12.175 -0.0926  0.0752  0.2365
13333W        W32867  15.859   2.223  12.749 -0.0633 -0.0944 -0.1012
13334W        W32868   3.056   8.569  11.164  0.1436 -0.3456 -0.0077
13335W        W32869   1.970   5.590  14.044 -0.2660 -0.1942 -0.2414
13336W        W32870  12.102   5.701   5.047  0.0900 -0.5184  0.0378
13337W        W32871   2.845  16.630   1.231  0.0852 -0.0057  0.0047
13338W        W32872  11.750  15.147   5.000 -0.0440 -0.1079  0.2882
13339W        W32873  13.900  15.962   2.580  0.0645  0.2458 -0.2294
13340W        W32874   6.336  15.039   1.361 -0.1500 -0.2064  0.1705
13341W        W32875  17.551   8.264   3.589  0.0900 -0.1684 -0.2074
13342W        W32876  13.129   2.088   0.010 -0.1921  0.4615 -0.1886
13343W        W32877  14.459   8.143   3.771  0.3966  0.0058 -0.2809
13344W        W32878  11.552   6.545  12.498  0.1138 -0.2872  0.2270
13345W        W32879  15.927   1.947  11.634 -0.2419  0.1442 -0.0935
13346W        W32880  17.116  10.613   2.957 -0.0145 -0.2194 -0.1284
13347W        W32881   9.267   4.041   1.020  0.0917 -0.0415  0.0535
13348W        W32882   2.680  16.137  11.412  0.2509 -0.2468  0.1984
13349W        W32883   7.960   8.409  11.113 -0.0214  0.0865 -0.0533
13350W        W32884  14.777   7.656   3.830  0.1343  0.0126  0.0936
13351W        W32885   0.172   8.219  13.273  0.1322  0.0408 -0.2471
13352W        W32886   2.238  19.432  10.900  0.1350 -0.0157  0.2940
13353W        W32887   3.594  19.524   2.735 -0.2569 -0.0492  0.0336
13354W        W32888   8.424  13.411   2.431 -0.0070 -0.2387  0.1795
13355W        W32889   8.734   8.024  10.821 -0.1929  0.1202  0.0737
13356W        W32890  15.973  17.132   3.814 -0.2783  0.4408 -0.0336
13357W        W32891  17.813   9.786  13.959 -0.0496  0.0001 -0.0896
13358W        W32892  17.064  16.700  10.429  0.2683 -0.0754  0.0346
13359W        W32893  13.064   6.878   1.057 -0.0297 -0.0308  0.3162
13360W        W32894  13.477   2.481  13.025  0.4490  0.2516  0.1703
13361W        W32895   6.131  13.244   5.009  0.1947 -0.1026  0.0159
13362W        W32896   2.411   7.944  11.300  0.0974 -0.0561 -0.1083
13363W        W32897  17.655   2.799  11.082  0.1127  0.1571  0.3298
13364W        W32898   3.599   6.415   1.453 -0.2103 -0.2063  0.0371
13365W        W32899  12.411   5.034  10.091  0.2642 -0.1289  0.2095
13366W        W32900   6.278   9.892   1.878  0.0209 -0.2172  0.4229
13367W        W32901  13.785   6.059   3.882  0.2037 -0.2997  0.0466
13368W        W32902   4.949  14.618  14.082  0.2343  0.1662 -0.1128
13369W        W32903   9.148  10.703   1.844  0.1766 -0.0066  0.2075
13370W        W32904  12.714   9.631  13.848  0.0917  0.1878 -0.1755
13371W        W32905   9.678  10.269  13.850  0.0061  0.1529 -0.2197
13372W        W32906   2.408  15.717  12.496 -0.2857  0.2267  0.2572
13373W        W32907  16.287  11.162  11.123 -0.2043  0.3960 -0.0742
13374W        W32908   8.608   2.408  12.570 -0.2489 -0.0980 -0.1320
13375W        W32909   7.931  19.066  13.237  0.1037  0.0364  0.0030
13376W        W32910  13.142  11.629  13.901 -0.0570 -0.0316  0.0911
13377W        W32911   0.175  12.973  10.456  0.1134  0.0197 -0.3428
13378W        W32912  15.137  12.151   0.432  0.0163  0.2147  0.0761
13379W        W32913  18.657   3.790  13.536  0.0393 -0.1974 -0.0848
13380W        W32914  18.701   4.735   2.140 -0.1869  0.0653  0.1830
13381W        W32915   4.035  16.792  12.710  0.1634 -0.0375 -0.3988
13382W        W32916  17.133  12.404   1.122  0.1349  0.0347  0.1437
13383W        W32917  15.972   2.776  12.807  0.1049  0.3660 -0.1539
13384W        W32918   8.986   1.748   0.998 -0.1174 -0.0432 -0.1222
13385W        W32919  11.809  11.676  13.956 -0.0784 -0.2574 -0.0551
13386W        W32920   3.066  12.867   3.531  0.2667  0.1903  0.1335
13387W        W32921  10.144   1.397   3.199  0.0467 -0.1963 -0.0333
13388W        W32922   0.091  14.939  10.501  0.3027 -0.3454  0.0395
13389W        W32923   9.622  17.921  11.063 -0.0110 -0.0285  0.2325
13390W        W32924   5.598  15.879   2.020 -0.0477 -0.0240 -0.0781
13391W        W32925   7.183   3.154   3.111 -0.2668  0.0881 -0.0300
13392W        W32926  14.231  13.569   3.584  0.1802  0.2249  0.1154
13393W        W32927   7.429   9.491   3.878  0.2084  0.2767 -0.2303
13394W        W32928   3.984   1.394   1.290 -0.1663 -0.0499  0.1011
13395W        W32929  17.001  10.846   1.480  0.0879 -0.2807  0.0243
13396W        W32930   0.769  14.505   2.505 -0.2835 -0.2192 -0.6907
13397W        W32931  13.899  12.562   2.163  0.2394 -0.0382 -0.1848
13398W        W32932   8.061  16.023  12.896 -0.2201 -0.2421 -0.0208
13399W        W32933  10.360   5.533   1.387 -0.0503  0.0895 -0.0347
13400W        W32934   9.396  17.609   4.474 -0.1267 -0.2294 -0.0967
13401W        W32935   5.221   0.052  11.727  0.2364 -0.1382 -0.2714
13402W        W32936  13.399  12.210  11.043  0.0386 -0.2788  0.0948
13403W        W32937   1.260  17.426   1.112  0.2760  0.0652 -0.0596
13404W        W32938  11.340   6.306  10.897 -0.0168  0.2609 -0.0213
13405W        W32939   0.941   3.450   0.609 -0.0313 -0.1108 -0.1526
13406W        W32940   2.002  19.220   0.797 -0.0057 -0.4027 -0.0875
13407W        W32941   8.356  18.883  11.418  0.1228  0.2539  0.4211
13408W        W32942  16.875   7.779   2.098 -0.3075  0.1513 -0.0512
13409W        W32943   0.513  13.887  11.657  0.1697  0.1791  0.1603
13410W        W32944  15.867   6.429   3.008  0.0317 -0.2328  0.2981
13411W        W32945   6.086   4.416   2.719  0.0041  0.1465 -0.0128
13412W        W32946  12.294   6.542   9.875 -0.0753  0.0956  0.0920
13413W        W32947   8.700  11.756   0.446  0.1191  0.0885  0.1761
13414W        W32948  17.951  17.357   1.037 -0.1190 -0.1515  0.0862
13415W        W32949  12.139  12.081  10.668 -0.1750  0.1375 -0.0096
13416W        W32950   8.446  10.381   1.225  0.0064 -0.0205 -0.1556
13417W        W32951   5.467   9.328   3.878 -0.0422  0.3637  0.0441
13418W        W32952  19.058   2.155   2.268  0.1794  0.3351 -0.2401
13419W        W32953   7.104   3.606  11.458 -0.2259 -0.4436 -0.2409
13420W        W32954   4.646   0.995   0.512  0.1066 -0.1750 -0.1163
13421W        W32955   4.452  11.308   1.402  0.2219  0.0302 -0.1627
13422W        W32956  11.580  12.059   9.621  0.1497 -0.3092 -0.3370
13423W        W32957  14.025   5.193  13.351  0.0272  0.0764 -0.1422
13424W        W32958   4.211  11.801  13.867  0.2039 -0.0269 -0.1324
13425W        W32959   8.240   9.792   1.765  0.1089 -0.1668 -0.2353
13426W        W32960   3.003   3.135   3.976  0.0080 -0.2847  0.0990
13427W        W32961  10.716   5.962   3.005 -0.1856  0.3610  0.1649
13428W        W32962   3.410   8.800  13.107 -0.0480 -0.0279  0.0645
13429W        W32963   2.693  17.947  12.140  0.0798 -0.1145  0.0203
13430W        W32964   1.118   5.122  12.575  0.0325 -0.0230  0.1142
13431W        W32965   3.490   7.761   9.754 -0.0714  0.1763 -0.1117
13432W        W32966   8.601   3.223   1.697  0.1737 -0.2467 -0.0707
13433W        W32967  16.561   2.353   1.629 -0.0865  0.0744  0.0310
13434W        W32968   5.718   0.857   9.260 -0.1632 -0.1662  0.0578
13435W        W32969  18.024  17.561  10.371  0.0759 -0.1070 -0.0593
13436W        W32970   5.117  10.915  11.987  0.1148  0.0228 -0.0950
13437W        W32971  18.215   6.296   1.235 -0.1474  0.2739 -0.0451
13438W        W32972  10.690   8.441   3.092  0.2154  0.0505  0.0130
13439W        W32973  10.977   6.461   2.185 -0.0112 -0.1037 -0.2897
13440W        W32974   7.696  18.912   0.486  0.1768  0.1035  0.3375
13441W        W32975  12.820   3.844   2.149  0.1379 -0.1012 -0.2079
13442W        W32976   1.890  11.297  12.798  0.0761 -0.0493 -0.0277
13443W        W32977   9.603   0.502   2.108 -0.0608 -0.0241 -0.0540
13444W        W32978   9.380   3.775  12.947  0.2576  0.3737 -0.0509
13445W        W32979   1.609  11.400   0.251 -0.3449  0.3582 -0.1726
13446W        W32980  16.373   0.559   4.951 -0.1911  0.0311 -0.1997
13447W        W32981   1.943  17.947  11.715  0.0075  0.0161 -0.2039
13448W        W32982  13.645  16.787   3.183  0.1433 -0.0113 -0.3600
13449W        W32983  11.979  17.019  10.701  0.1284 -0.0254 -0.0830
13450W        W32984   5.448  18.398   4.425 -0.1578 -0.3009  0.1759
13451W        W32985   4.287  17.466  12.964  0.6334  0.0843 -0.2043
13452W        W32986  10.928   7.795  10.879  0.2761 -0.1602 -0.0292
13453W        W32987   6.743  17.432  14.314  0.0020 -0.1196  0.0189
13454W        W32988   1.873   7.141  12.934  0.1924  0.1644  0.1877
13455W        W32989   4.665  14.813  11.513 -0.1239  0.0025  0.0168
13456W        W32990  10.819   2.681   3.898  0.0273 -0.1765 -0.2430
13457W        W32991  14.811   1.459  13.011 -0.1571 -0.0037  0.1428
13458W        W32992   3.510  15.605  13.972  0.1843 -0.0268  0.1237
13459W        W32993  18.590  11.317   2.125  0.0165  0.0949 -0.4899
13460W        W32994  17.092  14.795   2.961  0.1496  0.0799  0.1318
13461W        W32995   0.272  16.052  10.817  0.1754 -0.1616 -0.0750
13462W        W32996   8.591  18.643   2.512  0.0529  0.1486 -0.0412
13463W        W32997  18.490   7.587   5.243  0.1436 -0.1434 -0.1733
13464W        W32998  13.592  15.876   2.073  0.0905  0.3709  0.0287
13465W        W32999  18.097   6.705  13.984 -0.2341 -0.1482 -0.3683
13466W        W33000  10.544   9.724  13.731 -0.0540  0.2371 -0.2058
13467W        W33001   9.427  17.803   3.882 -0.2492 -0.1780 -0.1858
13468W        W33002   9.305   5.877   2.283  0.0994  0.0035  0.0278
13469W        W33003   3.722  10.314  12.388 -0.1058 -0.0928  0.2301
13470W        W33004   8.300   1.961  10.927  0.1563 -0.2358 -0.1491
13471W        W33005   7.029   9.765   0.677  0.0153  0.2003  0.0965
13472W        W33006  16.829   2.854   0.100  0.0361  0.2209  0.1385
13473W        W33007   0.406  12.966   1.568 -0.2479  0.1240  0.0479
13474W        W33008  14.525   3.990  12.829  0.0360  0.2068 -0.3068
13475W        W33009   2.442   3.382   9.460  0.0461 -0.1531 -0.0511
13476W        W33010  13.954   0.892   3.118  0.0759  0.0477  0.0134
13477W        W33011  11.243  16.121   4.178  0.2752  0.2417  0.0595
13478W        W33012  14.818  17.286  12.811  0.1924 -0.0285 -0.0477
13479W        W33013   8.050   0.736  11.376 -0.0178  0.1463  0.1291
13480W        W33014   8.910   1.142  11.096  0.0655 -0.1068 -0.2431
13481W        W33015   5.103  17.400  11.778 -0.1651  0.0718  0.0574
13482W        W33016   5.081  12.656   0.411  0.0073  0.4099 -0.2696
13483W        W33017  10.838   5.357  10.080  0.1075 -0.0385 -0.1686
13484W        W33018   3.924  13.213   0.510 -0.0797 -0.1804 -0.0387
13485W        W33019  13.455  16.335   0.731  0.1185 -0.3715  0.0569
13486W        W33020   1.780   5.572  11.374 -0.3742 -0.2560 -0.3438
13487W        W33021  18.385   1.749  12.388  0.3405 -0.2333  0.1515
13488W        W33022   0.269  18.777  10.345 -0.1101  0.0382 -0.1703
13489W        W33023   7.156  16.888  13.580  0.0426 -0.0888  0.0086
13490W        W33024   7.087   2.123  11.907  0.1378  0.2931 -0.0335
13491W        W33025   1.222   6.643   0.171 -0.0175 -0.3600 -0.1011
13492W        W33026   6.707   7.738   2.883  0.1272  0.0157  0.1179
13493W        W33027   8.591  17.839  12.378 -0.0448  0.3054  0.0756
13494W        W33028  17.836   6.291   2.016  0.1258  0.2110  0.2127
13495W        W33029  16.728  17.275  13.900  0.1611  0.0848 -0.0028
13496W        W33030   6.144  18.825  11.183 -0.0828 -0.2627 -0.0968
13497W        W33031   9.861  10.587  11.992  0.2731 -0.2630 -0.2270
13498W        W33032  18.654  12.371   2.300 -0.1093 -0.4143  0.1596
13499W        W33033   3.057  12.258  10.624 -0.1539  0.0152 -0.1199
13500W        W33034  15.032   7.265  12.553  0.1032 -0.0725  0.0929
13501W        W33035  11.464  16.001   2.011 -0.0018  0.1574  0.0634
13502W        W33036  16.210  12.829  13.192  0.0314 -0.0098  0.0871
13503W        W33037  17.210  18.164  11.015  0.3222  0.1552  0.1504
13504W        W33038  13.956  18.740  14.309 -0.2338  0.0196 -0.0456
13505W        W33039   1.654  16.470   2.771 -0.2530 -0.1049 -0.2913
13506W        W33040  11.529  16.513   1.320  0.0489  0.1642 -0.2108
13507W        W33041   0.229  11.732   2.241 -0.1389  0.2239  0.0618
13508W        W33042  13.094  11.300   0.051 -0.0075  0.1736 -0.0658
13509W        W33043   0.470  12.508   9.778 -0.1628 -0.0877  0.1799
13510W        W33044   4.162   8.107   1.531 -0.1192 -0.2230 -0.0560
13511W        W33045   9.806   3.520   9.606 -0.1662 -0.0425 -0.3032
13512W        W33046  14.247  10.491  14.179 -0.3897  0.5135 -0.0557
13513W        W33047  19.410  10.903   3.890 -0.0189  0.0779 -0.1876
13514W        W33048  18.196   4.780   1.990 -0.3106 -0.1725 -0.2640
13515W        W33049  12.667   7.210  12.060  0.0129 -0.0355  0.1605
13516W        W33050   1.406   8.683   0.554  0.3275  0.0007 -0.1188
13517W        W33051  13.133   3.549   0.680  0.0637 -0.0785 -0.2818
13518W        W33052  19.332  18.584   2.726  0.2873  0.0237  0.2168
13519W        W33053   1.420   3.909  14.045  0.0941 -0.2911  0.1015
13520W        W33054  15.670   0.514  13.449 -0.0422 -0.1997  0.2402
13521W        W33055   8.191  17.847   9.307  0.1317  0.0334 -0.2277
13522W        W33056  19.027   3.658   4.119  0.0320 -0.2955 -0.0058
13523W        W33057   9.462   2.523   3.822 -0.1503 -0.2576 -0.2142
13524W        W33058   8.317  15.575  11.713 -0.2210 -0.0225 -0.1834
13525W        W33059   3.536   7.275  13.016  0.0231  0.1394  0.0292
13526W        W33060  10.954   0.777   1.568  0.1565  0.2762 -0.1778
13527W        W33061   7.142   6.837  13.164  0.0983  0.2354  0.1045
13528W        W33062  16.390  12.384   1.676  0.1163  0.2207  0.0239
13529W        W33063  13.744  15.493   3.012  0.1725  0.1192 -0.1866
13530W        W33064  17.764   4.529   3.129 -0.0459  0.0647 -0.4002
13531W        W33065  10.925   3.905   3.555  0.0562  0.0088 -0.3916
13532W        W33066  17.091  13.999   1.606 -0.0556 -0.1364 -0.1556
13533W        W33067  18.615   5.584   3.517 -0.4144 -0.1964  0.2205
13534W        W33068  15.743  15.173   0.184  0.0013  0.0777 -0.0912
13535W        W33069   2.982  19.188   1.639  0.0257  0.2196  0.2625
13536W        W33070  16.895  16.965  10.030  0.0718  0.2168  0.1581
13537W        W33071   6.129   1.119   5.296  0.2464  0.0027 -0.4671
13538W        W33072   2.984  10.304  11.105  0.1632 -0.1257  0.0236
13539W        W33073  15.141  19.119  11.468 -0.2424 -0.0818  0.1238
13540W        W33074  15.036  16.624   3.262 -0.3141 -0.1429 -0.0074
13541W        W33075  13.976  18.363  11.270 -0.2071 -0.2106 -0.2759
13542W        W33076  14.652   4.871  12.501  0.2520  0.1461  0.0631
13543W        W33077  16.669  16.952   3.397 -0.0532  0.0121  0.1449
13544W        W33078  16.881   2.136  12.788 -0.3108  0.1490  0.0840
13545W        W33079   8.244   9.112  10.658 -0.3225 -0.1592  0.3660
13546W        W33080  16.117  13.688   4.215 -0.1049 -0.1766 -0.0228
13547W        W33081  18.489  12.930  10.283 -0.1129 -0.2593 -0.2739
13548W        W33082   2.331  10.098   0.525  0.2586  0.1235  0.0274
13549W        W33083   9.591  10.331   1.803  0.0410 -0.0816 -0.0483
13550W        W33084  15.210   9.405  11.354  0.2420  0.3099  0.0540
13551W        W33085   8.990   6.145   0.489  0.0559 -0.3466 -0.0407
13552W        W33086   9.801   9.768   2.215  0.1984 -0.0089 -0.0360
13553W        W33087   5.082   6.795   2.155  0.0473 -0.0872 -0.1351
13554W        W33088  10.965  13.427   4.536  0.2772 -0.2404 -0.2544
13555W        W33089   1.325   8.185   3.771 -0.2705 -0.2115  0.1930
13556W        W33090   8.952   1.562   2.766 -0.1422 -0.0952  0.0030
13557W        W33091  14.752   9.204   3.470 -0.0927  0.0999 -0.1339
13558W        W33092   5.433   0.787   1.643  0.2934  0.0512  0.1467
13559W        W33093   3.524  18.825   0.682 -0.0513 -0.1064  0.0714
13560W        W33094  13.023   5.563   1.518 -0.1286  0.3771 -0.0520
13561W        W33095   7.107  18.042   3.276  0.3781 -0.0778 -0.0475
13562W        W33096  17.052   9.307   2.276 -0.0516 -0.1175 -0.0486
13563W        W33097   2.520   2.311   3.024  0.1129  0.3138  0.4673
13564W        W33098  12.748   3.626  13.246 -0.1721 -0.3341  0.2237
13565W        W33099  11.667  15.020  11.815 -0.3067  0.1277  0.3986
13566W        W33100  10.798  12.749   0.223  0.1881 -0.2254  0.2263
13567W        W33101   8.315  15.174  12.680 -0.5499  0.0305 -0.3171
13568W        W33102   9.117   5.446  10.304  0.0443  0.0067 -0.0515
13569W        W33103   9.597  15.752  13.047  0.1612 -0.1300  0.3128
13570W        W33104  12.576  10.700  11.861 -0.0473  0.2341  0.0906
13571W        W33105   2.425  10.572  13.061  0.1501  0.3110 -0.0175
13572W        W33106  17.173  18.443  12.179 -0.0948 -0.1789  0.0570
13573W        W33107   3.508   7.737   2.878 -0.1876  0.0901 -0.1142
13574W        W33108  15.228   1.361   1.547 -0.1977 -0.0959 -0.0801
13575W        W33109  18.577  17.721  13.306 -0.0510 -0.0357 -0.1513
13576W        W33110   6.801  17.566  10.452 -0.0875 -0.0165  0.3298
13577W        W33111   6.915   5.898   2.079  0.0513  0.1866 -0.1971
13578W        W33112  18.531  16.670   1.552 -0.0145 -0.1877 -0.1539
13579W        W33113   9.521  16.596   1.436 -0.2246 -0.0676 -0.1070
13580W        W33114   7.672  17.937   3.261  0.0934 -0.1220 -0.1757
13581W        W33115   3.513  12.437  10.032 -0.0639  0.2368 -0.1288
13582W        W33116  17.056   5.220   2.395 -0.0238  0.0082  0.1649
13583W        W33117   6.792  17.589   3.418 -0.0730 -0.1938  0.0407
13584W        W33118   2.522   1.551   2.447 -0.0944 -0.1513 -0.2680
13585W        W33119  17.693   0.249   3.749  0.0051 -0.1094 -0.1949
13586W        W33120   3.801   9.313   3.164 -0.2305 -0.0655 -0.3107
13587W        W33121  14.653   6.404   4.198  0.1223  0.2120  0.2131
13588W        W33122   5.334  11.105   0.947 -0.0834 -0.0504  0.0558
13589W        W33123   6.707   4.453   0.758 -0.2550 -0.0118 -0.0589
13590W        W33124   5.289  16.193  11.846  0.0070 -0.1228 -0.1509
13591W        W33125  14.951   5.325  13.454  0.1684 -0.0689 -0.0289
13592W        W33126   4.624  12.449  12.304  0.0318  0.0118 -0.0975
13593W        W33127  12.458  12.096   9.088  0.1001 -0.1404  0.1125
13594W        W33128  11.090  11.693  11.749 -0.0612  0.0057 -0.2752
13595W        W33129  17.626   4.586   3.616  0.1559  0.1544 -0.0508
13596W        W33130  10.177   4.252  12.947  0.1018  0.5889  0.2931
13597W        W33131  16.689   4.775   3.752 -0.0094 -0.3132 -0.1155
13598W        W33132  17.267   9.227  11.351  0.1799 -0.1372  0.1060
13599W        W33133  11.726   8.130   0.145 -0.1461 -0.0373 -0.0207
13600W        W33134  18.597  14.678   1.699 -0.0636  0.1787 -0.0985
13601W        W33135   1.596   4.340   1.300  0.0154 -0.0167 -0.0662
13602W        W33136  17.291   9.566   1.274 -0.0609 -0.1226  0.2575
13603W        W33137  10.684  10.242   1.182 -0.0916  0.3031 -0.1577
13604W        W33138   1.823   8.352  14.003  0.5136 -0.0658 -0.0968
13605W        W33139   0.209  10.366  11.464  0.1411  0.1233 -0.2381
13606W        W33140  18.689  13.457   1.370 -0.1111  0.3479  0.1020
13607W        W33141   9.509  16.374   0.978  0.3028 -0.0835  0.0741
13608W        W33142  15.813   5.709  12.336 -0.1310  0.3428  0.1192
13609W        W33143  12.594  11.824   9.974 -0.1972 -0.1949 -0.0847
13610W        W33144   7.109   6.199  11.628  0.0239 -0.0120  0.0712
13611W        W33145  14.536   7.400   4.448  0.0908 -0.0143  0.0817
13612W        W33146   3.302  13.178   0.436  0.3092 -0.3308 -0.1574
13613W        W33147   7.427  13.802   0.592  0.0444 -0.2969 -0.0448
13614W        W33148   2.683  18.813   2.021 -0.1576  0.0755 -0.0109
13615W        W33149   4.552   1.454   4.032  0.1852 -0.0955  0.0543
13616W        W33150  18.422   9.777  12.455  0.1334 -0.0922  0.2386
13617W        W33151  11.870  16.874   1.371 -0.1933  0.4112 -0.0803
13618W        W33152  17.777  16.335  12.498 -0.1650  0.2680  0.1235
13619W        W33153   7.622   2.167   0.680  0.1928  0.2081 -0.3487
13620W        W33154   3.351  12.670   0.827  0.1847 -0.1112 -0.0535
13621W        W33155  17.455   2.782   3.090 -0.0768 -0.0670  0.2485
13622W        W33156  10.473  19.050  13.993 -0.0271  0.0173 -0.2367
13623W        W33157  13.880  12.577   2.797  0.1401  0.2179 -0.1705
13624W        W33158   2.102   0.966   0.440 -0.3722 -0.1241  0.0009
13625W        W33159  10.352  13.018  13.369 -0.1467 -0.3701  0.0648
13626W        W33160   4.965   1.721  14.134  0.2272  0.3110  0.3249
13627W        W33161   0.504  11.516   0.189 -0.0501  0.3806 -0.0127
13628W        W33162   8.727  16.085   2.511 -0.0532 -0.0145  0.1308
13629W        W33163  18.786  12.755   2.924  0.1548  0.0828 -0.0582
13630W        W33164   1.580  14.526  12.078  0.0311  0.1260  0.0916
13631W        W33165   7.749   4.231   2.928 -0.0384 -0.3027 -0.3911
13632W        W33166   3.462   4.755  13.934  0.2979 -0.0718 -0.1909
13633W        W33167   9.842  13.866   3.297  0.1188 -0.2586 -0.0791
13634W        W33168   7.349   0.751   2.153  0.0830  0.0367 -0.1178
13635W        W33169   6.744   8.768  13.036 -0.0474 -0.0786  0.0092
13636W        W33170   6.275  14.253   0.297 -0.2333 -0.1837 -0.1264
13637W        W33171  17.501   5.948   3.619  0.1395 -0.0950 -0.4396
13638W        W33172  14.579   4.365   1.554 -0.2134 -0.1623 -0.1956
13639W        W33173  12.016   7.237   0.125  0.1276  0.2027 -0.3533
13640W        W33174  12.886  13.756  13.690 -0.0478 -0.1894  0.0173
13641W        W33175   5.485   0.285   1.546  0.1240  0.0065  0.2610
13642W        W33176  10.703  10.122  14.011  0.0057  0.1258 -0.1352
13643W        W33177   9.503  14.797  11.252  0.0607 -0.2827 -0.4843
13644W        W33178   4.265   5.942  14.280 -0.0776 -0.1013  0.1475
13645W        W33179   7.428  19.011  10.915 -0.0454  0.1376 -0.1929
13646W        W33180   4.951   8.472  12.424 -0.2035  0.1582  0.0660
13647W        W33181  16.946   5.225  12.989  0.1315  0.3002  0.1118
13648W        W33182   4.859  15.260  10.546 -0.1582 -0.2421 -0.1326
13649W        W33183  12.762  16.069   0.776  0.3606  0.0670  0.1089
13650W        W33184   2.305   2.738   3.312  0.1814 -0.0798  0.2090
13651W        W33185   0.785  16.029  10.434  0.0539  0.2326  0.1813
13652W        W33186  17.494   3.742  11.019 -0.1659 -0.0037  0.2913
13653W        W33187  18.158   2.046   3.638 -0.1234 -0.0314  0.0210
13654W        W33188   6.327   9.542   4.148  0.0081 -0.0386 -0.2169
13655W        W33189  15.716  16.673  10.163 -0.2660  0.1679 -0.0947
13656W        W33190   3.938   2.179   1.683  0.1770  0.0635  0.1129
13657W        W33191   6.591  15.606  13.392  0.0512 -0.0216 -0.1079
13658W        W33192  10.614  15.080   1.109  0.1209  0.1041 -0.0699
13659W        W33193   5.820   1.725  14.313 -0.3646  0.0318 -0.2467
13660W        W33194   6.369  19.076   2.868  0.2232  0.0853  0.0517
13661W        W33195  18.678  12.785   4.315  0.2517 -0.0110 -0.1064
13662W        W33196   7.597   0.472  11.578 -0.0204  0.3155 -0.0145
13663W        W33197   7.903   3.550   3.638 -0.1047 -0.0708 -0.2699
13664W        W33198   6.868   1.094   2.627  0.0023 -0.0837  0.1009
13665W        W33199   1.603  12.696  11.613  0.1905  0.0224  0.3375
13666W        W33200   0.614  18.918  13.566 -0.3040  0.3313  0.0450
13667W        W33201  13.682   8.254  14.204 -0.0951  0.0283 -0.0600
13668W        W33202  15.173   7.714  11.677 -0.1080  0.1729 -0.2096
13669W        W33203  18.337  14.009   0.197 -0.4405  0.0771 -0.1608
13670W        W33204   4.991  12.558  12.723  0.4503 -0.4303  0.4645
13671W        W33205   4.473   5.055   5.068  0.1137  0.0405 -0.1545
13672W        W33206   2.649   5.006   3.362  0.0553 -0.4238  0.0925
13673W        W33207  19.341   9.318   1.706  0.1081  0.1774  0.0894
13674W        W33208   6.135  17.423  13.384 -0.0001  0.2313 -0.1221
13675W        W33209  17.554   8.912   3.884 -0.2257 -0.1814  0.1750
13676W        W33210   8.253   0.652  13.122  0.1848  0.0388 -0.1889
13677W        W33211   7.444  16.517  13.409 -0.3360 -0.3514  0.0990
13678W        W33212   8.880   9.258   0.390 -0.0698 -0.0025  0.1610
13679W        W33213  13.641   2.752  11.260  0.0189 -0.3125  0.1121
13680W        W33214  11.653  17.938   2.627  0.2869  0.4164 -0.0652
13681W        W33215  14.567   5.844   1.007  0.5177  0.1717 -0.1059
13682W        W33216  13.002   7.056   2.139 -0.0595 -0.1878  0.1738
13683W        W33217  15.524   1.245   1.082  0.0867  0.0667 -0.0290
13684W        W33218  18.197   2.458   2.071 -0.0952  0.0844  0.2885
13685W        W33219   4.579   7.513   0.993  0.0567  0.0238 -0.1635
13686W        W33220  12.156   3.623  11.217  0.0578 -0.0647 -0.2498
13687W        W33221   7.954   9.241   2.601 -0.3499 -0.1168 -0.0514
13688W        W33222  13.302  17.940   4.096 -0.2574  0.1509 -0.2157
13689W        W33223  18.071  12.508  10.737  0.0825  0.4629 -0.2075
13690W        W33224  18.780   5.779   4.372  0.0172 -0.3609 -0.3207
13691W        W33225   3.117   5.856   1.977  0.0109 -0.1436  0.2203
13692W        W33226  18.576   0.855   0.621  0.0061  0.0377 -0.1204
13693W        W33227  13.799  10.069   1.449 -0.1370 -0.1178  0.1483
13694W        W33228   8.633   1.089   3.743  0.3575  0.2821 -0.0314
13695W        W33229   7.990   1.636   0.675 -0.1832 -0.1560 -0.0720
13696W        W33230  18.141   9.243  11.700 -0.1700  0.2728  0.0890
13697W        W33231  14.768   2.280  12.507 -0.2749 -0.2535  0.3437
13698W        W33232  17.126   1.470  13.916 -0.2336 -0.0753 -0.2641
13699W        W33233   5.156  10.283   3.693 -0.0839  0.0954 -0.1949
13700W        W33234  11.036   2.959   3.175  0.0213  0.2316 -0.0429
13701W        W33235   2.629   7.636  13.688 -0.0219 -0.1215  0.6354
13702W        W33236   7.133  14.897  12.034  0.0148  0.1038 -0.0894
13703W        W33237   8.569   6.926   1.814  0.1887  0.0293  0.1069
13704W        W33238  11.281  16.137   0.589 -0.0580 -0.3359 -0.1005
13705W        W33239  12.959   2.503  14.018 -0.1289  0.2367 -0.1635
13706W        W33240   6.106  14.379  10.292  0.0803  0.1163  0.3261
13707W        W33241  13.924   2.564   2.633 -0.2168 -0.1918  0.0953
13708W        W33242   3.557   6.931  11.012  0.1621 -0.0903 -0.1192
13709W        W33243   7.818  11.551   0.331 -0.0746 -0.1756  0.0032
13710W        W33244   4.308  12.354   0.174  0.0183 -0.1454  0.1124
13711W        W33245   8.507   0.528   9.859 -0.2614 -0.0300 -0.0200
13712W        W33246  15.426   6.420  13.713 -0.0738 -0.1428  0.1742
13713W        W33247  16.316   6.794  12.469  0.0978  0.0321  0.0411
13714W        W33248  15.082  18.425  11.122  0.1728 -0.0371  0.1843
13715W        W33249   3.612  14.573   0.103 -0.3251 -0.1229 -0.0680
13716W        W33250  14.573  18.906  12.727 -0.0736  0.0586  0.1428
13717W        W33251   6.249   6.556  12.793  0.1781 -0.2171 -0.1666
13718W        W33252  16.149   0.654   0.829 -0.0732  0.0375  0.1005
13719W        W33253  10.777  12.508  12.934 -0.0412 -0.2728 -0.4628
13720W        W33254   1.111   3.945   3.333  0.2190  0.2732 -0.0453
13721W        W33255  16.209  17.815   2.216 -0.0045  0.0392 -0.1603
13722W        W33256   2.036   7.307   0.590 -0.0827 -0.0015  0.2208
13723W        W33257   3.211   2.269  14.201 -0.1197 -0.0382  0.2002
13724W        W33258   4.692   8.422  10.503 -0.0178  0.2353  0.1079
13725W        W33259  19.319  10.973   1.326 -0.1686 -0.2370 -0.4050
13726W        W33260  12.036   2.959   0.636 -0.1368  0.1249  0.0822
13727W        W33261  10.656  17.772  11.091 -0.4676 -0.0078  0.2939
13728W        W33262   9.620   8.074   2.330 -0.0061 -0.0874  0.3608
13729W        W33263   1.559   3.930  12.115  0.4767 -0.1468  0.2548
13730W        W33264  17.718   5.756   9.526  0.1356 -0.1160  0.2368
13731W        W33265  10.674   9.873   2.332 -0.0324 -0.2342 -0.1102
13732W        W33266  15.831   6.652  12.590  0.2340 -0.0184  0.0659
13733W        W33267  18.346   9.757  14.025  0.1386 -0.1654 -0.1885
13734W        W33268   2.376   3.615   1.810 -0.0497  0.1209 -0.0781
13735W        W33269   9.054   3.549  11.503  0.0413  0.0645 -0.0755
13736W        W33270   1.034   6.403   3.181 -0.2690  0.1497  0.0203
13737W        W33271   2.805   4.344   2.159 -0.2574 -0.0809  0.0535
13738W        W33272  13.483   3.121  12.348  0.0956  0.2515  0.0308
13739W        W33273   1.173  10.841  12.859  0.1120  0.0129  0.0442
13740W        W33274   5.825   4.585  13.712  0.0930  0.2451 -0.1138
13741W        W33275  19.361   9.196  14.025  0.0205  0.0585  0.1198
13742W        W33276   5.268   7.525   4.408  0.0582 -0.0568  0.1565
13743W        W33277  11.546   8.299  11.974  0.2221  0.0331  0.0018
13744W        W33278   7.368  10.748   9.992 -0.1518  0.1579  0.1566
13745W        W33279   4.733  18.845   4.139 -0.1276  0.0517  0.3474
13746W        W33280  12.957  19.373  12.146  0.0801 -0.0419  0.0873
13747W        W33281  18.640   8.364  11.323 -0.0927 -0.1877 -0.0298
13748W        W33282  15.312   1.642   0.122 -0.0292 -0.3572  0.2616
13749W        W33283  10.867  15.898   0.048  0.1160 -0.0728 -0.2083
13750W        W33284  11.152  15.988  10.598  0.1047 -0.0842  0.2182
13751W        W33285   5.151  12.500  13.866  0.0586 -0.4769 -0.1175
13752W        W33286   0.449  17.308   0.029 -0.1415 -0.1420 -0.1208
13753W        W33287  19.281   4.461  14.014  0.1106 -0.1870  0.0962
13754W        W33288   5.262  16.652  10.279  0.1335 -0.2458 -0.2730
13755W        W33289   1.668  11.722   3.397 -0.1733  0.1464 -0.0376
13756W        W33290  19.175   3.251  11.690  0.0558  0.0806  0.0748
13757W        W33291   5.330   4.205   9.253  0.1749  0.0154  0.3721
13758W        W33292   7.813   5.044   0.058 -0.1464 -0.0547 -0.2967
13759W        W33293  18.716   0.419   2.992 -0.1201 -0.3648 -0.0801
13760W        W33294   4.740  12.947  13.180  0.0775  0.1103  0.1021
13761W        W33295   9.844  10.316  10.518 -0.3395 -0.3718  0.0761
13762W        W33296  14.292  15.630   2.824 -0.0803 -0.2700  0.0675
13763W        W33297  11.607   6.010  11.229  0.0756 -0.1561 -0.0126
13764W        W33298   3.276   2.739  13.976 -0.2937 -0.2527 -0.0850
13765W        W33299   8.899   4.907   3.223  0.2662  0.0652 -0.3161
13766W        W33300   2.461  10.546  13.584 -0.0079 -0.2038 -0.0277
13767W        W33301  10.817   9.573  11.072 -0.0568  0.2530  0.1082
13768W        W33302  12.033  11.277  12.253 -0.1481  0.3495 -0.0100
13769W        W33303   9.758   3.490  13.283 -0.0780  0.0630 -0.0230
13770W        W33304  17.661   3.289  12.324  0.0093  0.3160 -0.0540
13771W        W33305   0.793  16.314  11.402 -0.0858 -0.0960  0.2104
13772W        W33306  18.744  16.901  10.920 -0.2391  0.1566 -0.0880
13773W        W33307   5.390   1.328   3.119  0.2128  0.3837  0.2957
13774W        W33308  12.474   1.871   3.860 -0.2365 -0.2422 -0.1838
13775W        W33309   4.307   4.817   2.439  0.0015  0.2172  0.1994
13776W        W33310  12.548   9.842  10.625 -0.0544  0.3680  0.0583
13777W        W33311  17.808   4.197  12.094  0.1309  0.0511  0.0005
13778W        W33312   9.397  12.073  12.925 -0.0403  0.2396  0.1986
13779W        W33313  15.328   2.388  10.524 -0.1109 -0.4089 -0.2786
13780W        W33314  14.284   0.930   3.495  0.1793 -0.1112  0.0674
13781W        W33315  12.007   7.851   1.230 -0.1825  0.1016 -0.1691
13782W        W33316   6.969  14.265   0.908  0.0238 -0.0455 -0.2132
13783W        W33317  13.946   0.845  13.777 -0.0878 -0.0021 -0.0738
13784W        W33318   6.294  10.550   1.659  0.0731 -0.1430 -0.2636
13785W        W33319  11.760  13.069  14.103  0.0847 -0.0224 -0.0236
13786W        W33320   5.964   9.268  12.614 -0.1038 -0.3444  0.0682
13787W        W33321   7.357   2.280   2.618  0.1122 -0.2369  0.0514
13788W        W33322  17.566   4.443   4.194  0.0061  0.0879  0.1409
13789W        W33323   1.252   6.698   0.873  0.1532  0.1628 -0.2035
13790W        W33324   1.806   6.486  11.936  0.1039 -0.1455  0.1148
13791W        W33325   3.220   0.182  12.784  0.2470  0.2325 -0.0155
13792W        W33326  17.925   5.688  14.124 -0.1694  0.1562 -0.1109
13793W        W33327  17.886   8.048  14.045 -0.1810 -0.1595  0.1636
13794W        W33328  11.461  13.655  13.078  0.1592 -0.0730 -0.0441
13795W        W33329   8.696  17.978  13.187  0.0048  0.0420 -0.2197
13796W        W33330  16.142   1.422   3.735  0.1016 -0.1705 -0.2967
13797W        W33331   0.024   4.513  11.580 -0.1672 -0.1161  0.1916
13798W        W33332  12.384   6.020   4.059  0.2287  0.2806  0.1171
13799W        W33333   5.213   3.975   0.997 -0.1227 -0.2923  0.2014
13800W        W33334  17.554   7.954   2.498  0.0517 -0.0802  0.1982
13801W        W33335  13.708  15.340  14.340 -0.2357  0.1050 -0.0438
13802W        W33336  11.963  16.990  12.736  0.0009  0.4613 -0.0214
13803W        W33337   2.705   8.734  12.364  0.0201  0.0931 -0.1366
13804W        W33338   3.549  17.442   0.854  0.1156  0.3148  0.3454
13805W        W33339   7.057  15.797  11.353  0.1739  0.0086  0.0839
13806W        W33340  15.175  11.497  11.314 -0.0432  0.1690 -0.2916
13807W        W33341  11.708   4.057   2.209  0.1818 -0.0526  0.0307
13808W        W33342   2.507   6.980   2.481  0.2158  0.3699  0.1563
13809W        W33343   4.218   4.238   2.313  0.2926  0.1726 -0.3362
13810W        W33344  16.394   4.104  12.231  0.0801 -0.1301  0.0671
13811W        W33345  14.469   8.562  11.598  0.1351  0.3942 -0.0786
13812W        W33346   6.569  14.175  10.175  0.0200  0.3978 -0.0645
13813W        W33347   3.436  18.898   0.204 -0.0556 -0.1276 -0.0468
13814W        W33348   2.364   2.274   0.504 -0.1430 -0.1765  0.0195
13815W        W33349  16.009  17.681  13.870  0.0954 -0.1310 -0.0873
13816W        W33350   9.961   5.661  10.559 -0.1365 -0.3023 -0.0829
13817W        W33351  16.177  17.471   0.293  0.0078  0.1013  0.0715
13818W        W33352   1.930  14.146  13.359 -0.2377 -0.2231  0.4304
13819W        W33353   1.823  14.120  10.838  0.1160  0.2131  0.0403
13820W        W33354   2.359  12.830  10.964  0.0747 -0.0090 -0.2304
13821W        W33355   4.180  16.150  12.153  0.3781 -0.1737  0.4058
13822W        W33356   9.788  12.178   3.654 -0.1143 -0.2327  0.0376
13823W        W33357   6.183   0.456  11.190  0.4968  0.1616 -0.0470
13824W        W33358  10.033  18.637  12.935  0.0832 -0.2976 -0.1062
13825W        W33359   4.682  14.343  10.731 -0.0954  0.1050 -0.0836
13826W        W33360  19.360   8.413  11.896 -0.0112  0.2060  0.0409
13827W        W33361   8.739   3.161   0.379 -0.0614  0.3414  0.1238
13828W        W33362   9.495  14.470   1.925  0.1190 -0.2090 -0.2443
13829W        W33363  16.096   7.238   2.423  0.1265 -0.0986 -0.0400
13830W        W33364   9.045   6.210   1.143 -0.3277  0.1756 -0.2430
13831W        W33365   9.490  10.470   2.666  0.2190  0.2611 -0.1491
13832W        W33366   6.349   6.997  13.723  0.1440 -0.3995  0.0071
13833W        W33367   1.968   6.046   2.076 -0.2337 -0.0997 -0.0527
13834W        W33368  19.303  17.625  12.830  0.0429 -0.1679 -0.1994
13835W        W33369   7.605   7.391  13.566  0.2184 -0.0596  0.0162
13836W        W33370   7.085  16.296  11.183  0.2447  0.0254 -0.1174
13837W        W33371  10.931  12.586  11.289 -0.0916  0.0656  0.1505
13838W        W33372   3.821   1.224  12.446  0.0869  0.1278 -0.0210
13839W        W33373   7.953   8.892  11.529 -0.0501  0.3270 -0.0376
13840W        W33374  17.099  14.732  13.408 -0.1151  0.1254  0.0562
13841W        W33375   1.093   9.687   2.599 -0.0093 -0.0968  0.0795
13842W        W33376   9.849   4.545  10.986  0.1491 -0.1808  0.3543
13843W        W33377  19.150  18.028  13.147 -0.0625  0.1817 -0.0455
13844W        W33378  14.338  16.858  10.117  0.1798  0.4349 -0.0220
13845W        W33379   8.641  13.830   2.941  0.0695  0.3274  0.0413
13846W        W33380   9.136   4.955  10.194  0.1426  0.1827  0.0218
13847W        W33381  10.973   5.451  10.613  0.0562 -0.0596 -0.1168
13848W        W33382  12.481  18.176   3.142  0.0349  0.1593  0.0356
13849W        W33383   5.638   6.747  14.182  0.1063 -0.0314  0.2270
13850W        W33384  11.224  16.948  13.479  0.1037 -0.0807  0.1325
13851W        W33385   6.582   9.791   0.986  0.0967 -0.1483  0.2082
13852W        W33386   9.200   6.756  11.238  0.1502 -0.2653 -0.1771
13853W        W33387  15.049   1.543  13.525  0.2431 -0.1698 -0.0640
13854W        W33388   7.584   9.681   0.511  0.2873  0.3061  0.0412
13855W        W33389   4.183  15.013   0.521 -0.0929  0.0942  0.1366
13856W        W33390  11.735   3.965   3.306 -0.2967 -0.3972 -0.2044
13857W        W33391   4.074  13.186  12.788 -0.2488  0.2063  0.2840
13858W        W33392   8.109   0.037   0.880  0.0888  0.0576 -0.2827
13859W        W33393   1.628   2.323   2.762 -0.0272 -0.1923  0.0031
13860W        W33394   7.906  19.144  11.338 -0.2597 -0.1326  0.0917
13861W        W33395   2.673   7.886  13.237 -0.1445 -0.2658 -0.1524
13862W        W33396   0.717   6.206  14.065 -0.2341 -0.0630  0.0733
13863W        W33397   8.492   2.297   0.291 -0.0944 -0.0586 -0.3332
13864W        W33398   7.573  16.910  13.191  0.3005  0.1756  0.0858
13865W        W33399   3.286   8.346  11.594 -0.4875 -0.0940 -0.0448
13866W        W33400   9.055  14.870  11.040 -0.2691 -0.2396  0.0897
13867W        W33401   4.822  19.431  11.221  0.1549  0.0662 -0.1796
13868W        W33402   5.419   2.689   2.475 -0.1384  0.1080 -0.0593
13869W        W33403   7.818   7.837  10.534  0.1391 -0.0719  0.2710
13870W        W33404   5.402  16.504   3.585 -0.0817  0.3946 -0.3120
13871W        W33405  14.153  19.180  12.901 -0.2372  0.0626  0.0238
13872W        W33406  16.077   0.197   3.129  0.1908 -0.1245  0.4043
13873W        W33407   2.730  12.685  14.160  0.0599  0.1561 -0.2532
13874W        W33408  16.280  14.426  11.946 -0.0973 -0.1109 -0.3004
13875W        W33409   6.390  17.847  12.754 -0.0779 -0.1533 -0.0638
13876W        W33410   4.932  16.927  11.829  0.1744  0.0699 -0.1643
13877W        W33411  16.581  14.259  13.493 -0.1110 -0.0769 -0.0156
13878W        W33412   1.392   8.826   1.049 -0.1367  0.2560  0.0314
13879W        W33413   1.096   7.120  14.027  0.2213 -0.1520 -0.0329
13880W        W33414  10.527  18.533  13.325  0.4172  0.0575 -0.2659
13881W        W33415  12.589   1.919   1.990  0.1275 -0.2109  0.0180
13882W        W33416  12.059  14.376   2.704 -0.1278 -0.3196 -0.0863
13883W        W33417   1.508   3.199  11.743 -0.0861  0.2393 -0.0893
13884W        W33418  18.715   9.893  13.713 -0.0824 -0.0703  0.0833
13885W        W33419  13.047   4.891   3.446 -0.4856 -0.0249 -0.0803
13886W        W33420  18.520  10.380   2.357 -0.3625  0.0914 -0.0525
13887W        W33421  10.137  18.795   2.643  0.2876 -0.3002  0.2052
13888W        W33422   6.699   2.877   2.651  0.0879 -0.1868  0.1169
13889W        W33423   9.031  19.345   2.432 -0.2105  0.2403 -0.0891
13890W        W33424  14.349   6.924   0.286 -0.2238  0.1055  0.2028
13891W        W33425   4.234  16.027   3.086 -0.1180  0.1973  0.0116
13892W        W33426  17.361  15.251  13.136 -0.0104 -0.0168 -0.0965
13893W        W33427  18.760  18.977  11.809  0.2208  0.1424  0.1570
13894W        W33428   4.963  16.310   3.091 -0.0366  0.2238  0.0649
13895W        W33429  17.511   9.037  13.705  0.1088 -0.0806  0.2818
13896W        W33430   1.704  13.333   1.621  0.0422  0.0238 -0.2835
13897W        W33431  11.035   6.349   3.017  0.0195  0.0285  0.1891
13898W        W33432   0.244   7.196  12.526  0.1396 -0.1029  0.1040
13899W        W33433  10.037   7.564   3.121 -0.1395 -0.3288  0.3358
13900W        W33434  17.582   6.017  10.472  0.1287 -0.2574  0.0656
13901W        W33435  11.529  18.311  10.764 -0.1266 -0.1089  0.1118
13902W        W33436   6.557  19.041  13.404  0.0415  0.1233 -0.3808
13903W        W33437   9.503   8.411   3.389 -0.0381 -0.0497 -0.3833
13904W        W33438  12.918  12.756  12.829 -0.2071  0.2370 -0.0781
13905W        W33439  18.261   9.392  11.121 -0.0898  0.2213  0.2385
13906W        W33440  12.438   0.498  13.288 -0.1924 -0.1929  0.0868
13907W        W33441  11.634   7.871   0.711  0.3477 -0.0265  0.0582
13908W        W33442  12.294  17.166   1.347 -0.1223 -0.1637 -0.1737
13909W        W33443   6.958  19.185  10.970  0.3612 -0.2337 -0.1613
13910W        W33444  17.467  18.668   2.881 -0.0597  0.0837  0.1516
13911W        W33445  14.291   7.531   2.331  0.0504  0.0069  0.1781
13912W        W33446   5.468  12.094  13.790 -0.0979  0.2076 -0.0561
13913W        W33447   3.040   9.289   0.208 -0.0136  0.1119  0.0609
13914W        W33448  16.201   6.450  12.830 -0.0883  0.0072 -0.4313
13915W        W33449   1.535  14.916   1.071  0.1806 -0.0648 -0.0380
13916W        W33450   6.581  18.335   3.934  0.0199 -0.1248 -0.4931
13917W        W33451   1.889   6.688   1.442  0.1007  0.2123  0.0562
13918W        W33452   5.848   8.267  12.106 -0.1258 -0.0997 -0.0590
13919W        W33453  17.428  17.277   1.133  0.0530 -0.2687  0.0879
13920W        W33454   7.195   0.272  13.110 -0.0420  0.1737 -0.1064
13921W        W33455   7.927   6.166  13.421 -0.0569  0.0656  0.1806
13922W        W33456   5.297   9.917   1.794 -0.0284 -0.3651  0.3155
13923W        W33457  13.902   7.260  11.903 -0.0372  0.1963 -0.1728
13924W        W33458  18.035   0.438   0.377 -0.1501 -0.0285 -0.0928
13925W        W33459  14.011   3.220  13.119 -0.0431 -0.4755 -0.2737
13926W        W33460   3.023   6.362   0.049 -0.2934  0.0455 -0.4523
13927W        W33461  10.769  14.945   0.204  0.2433 -0.0949  0.2857
13928W        W33462  11.040  14.495  12.985  0.1858  0.1543  0.2850
13929W        W33463   7.377   4.169  10.919 -0.0099  0.1141  0.2103
13930W        W33464   1.523  18.032   4.460 -0.3015  0.1599 -0.0678
13931W        W33465   3.749  15.272   2.150  0.1249  0.2738  0.0884
13932W        W33466   3.146  16.005  11.400 -0.2896 -0.0406  0.1555
13933W        W33467  17.545   9.077  13.149 -0.0113  0.1227  0.1972
13934W        W33468   1.049  10.617   3.043  0.1585 -0.2655  0.0044
13935W        W33469   3.313   1.136  12.400  0.2551 -0.1105  0.0860
13936W        W33470  18.470  11.380  14.291 -0.1609  0.2165  0.0845
13937W        W33471   0.725  13.039   2.072  0.1219 -0.1767 -0.2007
13938W        W33472   1.229   2.786  12.113 -0.1839  0.0409  0.0264
13939W        W33473  13.660  15.604   8.822 -0.0614 -0.0889 -0.2495
13940W        W33474  10.053  15.581  11.211  0.2107 -0.1290 -0.0605
13941W        W33475  17.952  14.095  11.997  0.0538 -0.0003  0.1657
13942W        W33476  17.349  13.245  11.607 -0.0288  0.2063 -0.1335
13943W        W33477  16.718  10.842  10.006  0.1064 -0.1391  0.0567
13944W        W33478  15.746  15.154  13.601  0.0486 -0.0495  0.0587
13945W        W33479   5.553  14.157   3.164 -0.0162  0.0375  0.0951
13946W        W33480  16.681   7.401  11.743  0.1943 -0.2300 -0.1181
13947W        W33481  16.395  15.307   2.050  0.0329 -0.0098  0.0978
13948W        W33482  11.888   2.893   1.176  0.2816 -0.3086  0.1368
13949W        W33483   8.164  10.505  12.040 -0.1282  0.1070  0.1147
13950W        W33484   9.297  17.314   3.747 -0.3655 -0.3091  0.1459
13951W        W33485   9.755  14.651  13.263  0.0329  0.2251  0.0302
13952W        W33486  10.969  18.432  12.822 -0.1595  0.2991 -0.3193
13953W        W33487  16.545   6.971   0.487 -0.1997 -0.0777 -0.1771
13954W        W33488  11.411   3.958  11.481  0.1514 -0.0567 -0.0449
13955W        W33489   6.037   6.032  12.636  0.0924  0.0091  0.1493
13956W        W33490   2.649   8.451   3.358 -0.1489 -0.1544  0.0639
13957W        W33491  11.236  14.077  12.056  0.0340 -0.0037  0.1390
13958W        W33492  12.970  11.299   1.162  0.0951  0.2352 -0.0801
13959W        W33493  12.106   4.373  10.557 -0.0971  0.4878  0.1961
13960W        W33494   1.141  19.531  13.654 -0.1221 -0.0085  0.0857
13961W        W33495  14.318  14.873  14.089 -0.5348 -0.4443  0.2187
13962W        W33496   6.955  13.527  10.738  0.0887 -0.0385 -0.1843
13963W        W33497  15.033  12.738   0.220 -0.3964  0.1788  0.1825
13964W        W33498   4.447   3.283   3.366  0.1346  0.1258  0.3481
13965W        W33499  17.625   8.268  12.007  0.0325  0.1949 -0.0768
13966W        W33500   9.480   2.832  11.283  0.0028  0.4321  0.1207
13967W        W33501  11.938  15.537  10.564 -0.0270 -0.1390  0.0391
13968W        W33502   9.020  10.412   2.446 -0.2077  0.0438 -0.0368
13969W        W33503   9.953   7.718  11.569  0.2310 -0.0536 -0.0961
13970W        W33504  11.458   4.154   2.767 -0.1151  0.0242  0.0493
13971W        W33505  18.439  18.202   2.332 -0.0628  0.1040 -0.1067
13972W        W33506   9.426   0.098  12.182 -0.1544 -0.1413  0.2040
13973W        W33507   6.114  11.089  12.607 -0.0487 -0.1105  0.1740
13974W        W33508  15.889   9.268   3.812 -0.0649  0.0163  0.2511
13975W        W33509  10.468  17.403  10.832 -0.2652  0.0992  0.0753
13976W        W33510  18.662   3.373  12.372  0.0527  0.2734 -0.1922
13977W        W33511   5.811  16.901  12.786  0.1198 -0.0618  0.0677
13978W        W33512   6.896   6.944  10.110  0.0017  0.0079  0.1503
13979W        W33513  16.938   1.541   0.998 -0.2256 -0.1119  0.2079
13980W        W33514  13.800   1.251  11.699  0.4585 -0.0156 -0.1197
13981W        W33515  19.440   2.265  12.500  0.2134 -0.1990  0.1395
13982W        W33516  10.596  12.146  13.870  0.1908 -0.2495 -0.3816
13983W        W33517   9.947  15.232   0.578  0.3643 -0.3426  0.2615
13984W        W33518   7.485   7.379  11.226  0.3438  0.0675 -0.0371
13985W        W33519  17.028  17.344  10.427 -0.5882 -0.1250  0.1665
13986W        W33520   7.618  17.731   0.439 -0.1679 -0.0108  0.0917
13987W        W33521  16.456   7.505   2.177  0.0135  0.0326  0.0844
13988W        W33522   8.191   5.334  11.818 -0.2584 -0.0211 -0.0001
13989W        W33523  12.352   4.280  13.889  0.1643 -0.1614  0.3826
13990W        W33524   6.820   8.701  13.548  0.3378 -0.0805  0.1043
13991W        W33525  11.841   1.845   1.391  0.0115  0.2541  0.1115
13992W        W33526  11.288  12.698  13.338 -0.0982 -0.0982  0.0286
13993W        W33527  18.043  14.706  12.983 -0.1450 -0.1465 -0.3773
13994W        W33528  12.931  18.006  13.538  0.0700  0.3152  0.0253
13995W        W33529  14.685   8.988  11.206  0.0491 -0.1575  0.0626
13996W        W33530   3.484   1.523  11.420 -0.0845  0.0404 -0.0699
13997W        W33531   4.009  16.316  11.703  0.2031 -0.2262 -0.3994
13998W        W33532   4.471  18.939   3.694  0.1164  0.0830 -0.3489
13999W        W33533  12.805  18.432  13.798 -0.0615 -0.0821 -0.1393
14000W        W33534   3.471   4.591  13.402 -0.2856  0.2777  0.1322
14001W        W33535   2.937   2.266  12.833 -0.0773  0.0459  0.0139
14002W        W33536  19.411  12.357  13.232 -0.0253 -0.1556 -0.1435
14003W        W33537  15.893  19.419  11.334  0.1545 -0.3796  0.1481
14004W        W33538   0.085  15.679  11.341  0.1777 -0.2280  0.0912
14005W        W33539   0.318   3.366   4.505  0.1677  0.1393  0.0874
14006W        W33540   6.423   6.295   2.242 -0.4221 -0.0138  0.1530
14007W        W33541   2.294  11.605   2.484  0.0320 -0.0289  0.2732
14008W        W33542   8.865  17.223   1.575 -0.1658 -0.2861  0.1981
14009W        W33543   0.428   9.027   2.566 -0.0659 -0.2606 -0.0479
14010W        W33544  14.525  16.229   3.808 -0.1928  0.0492 -0.0518
14011W        W33545  14.979  10.695   3.684 -0.0390 -0.0334  0.2050
14012W        W33546   4.625   3.733  13.703 -0.0198  0.0108  0.2727
14013W        W33547   3.441  12.494   1.706 -0.1339 -0.3316  0.2418
14014W        W33548  14.666  16.316  11.228  0.0632 -0.0900 -0.1285
14015W        W33549  11.661  16.007  12.023 -0.0218 -0.0076 -0.0310
14016W        W33550  16.251   7.923   2.473  0.1435 -0.1549 -0.0820
14017W        W33551  18.909   3.270   0.291  0.2547 -0.2307  0.0005
14018W        W33552   6.463   9.254  11.769 -0.1631  0.1123  0.2749
14019W        W33553  12.311   5.387  11.348 -0.1409 -0.0564 -0.0164
14020W        W33554  17.927   8.045  10.574 -0.3118 -0.1351 -0.4649
14021W        W33555  16.927  15.769  13.443 -0.1388  0.2177 -0.1057
14022W        W33556  19.297   2.388   2.680  0.2524 -0.1647  0.0784
14023W        W33557   1.443  17.857   2.126  0.0158 -0.1576  0.0750
14024W        W33558  18.520  14.608   3.028  0.2191 -0.2011 -0.1040
14025W        W33559   1.615  15.044  14.092 -0.2251  0.0357  0.1749
14026W        W33560   6.870   5.327   8.977  0.0334  0.1955 -0.1472
14027W        W33561   4.051   8.350  13.771  0.0231 -0.0768 -0.0510
14028W        W33562  17.172  16.082   2.519  0.0705 -0.0069  0.2350
14029W        W33563  11.270  10.262   3.954 -0.2531  0.0213 -0.1487
14030W        W33564  11.519  18.031   4.312  0.0536  0.0676  0.0614
14031W        W33565   0.127  12.142  11.136  0.3694 -0.1825 -0.0437
14032W        W33566  15.947   9.233  12.919 -0.2129 -0.1469 -0.0785
14033W        W33567  12.809   1.420   3.596  0.1818  0.0542 -0.1160
14034W        W33568   9.317  12.919   4.050  0.0940  0.1201 -0.1110
14035W        W33569  19.427   3.486   3.682 -0.1138  0.1480 -0.1004
14036W        W33570  16.582  14.645  14.264  0.3891  0.1628  0.1139
14037W        W33571   0.700  17.922  10.927  0.0868  0.1201 -0.4773
14038W        W33572   4.822   7.453  12.158 -0.1347  0.0326 -0.0421
14039W        W33573   9.567  14.072   1.074  0.2485  0.0662  0.1687
14040W        W33574   3.143  18.086  12.221 -0.0359 -0.0529 -0.1828
14041W        W33575   0.708   0.573  12.233 -0.1275  0.1221  0.0945
14042W        W33576   3.340   6.187   0.478 -0.2879  0.2399  0.0040
14043W        W33577  17.240   9.389   0.341 -0.1453  0.0632  0.0421
14044W        W33578  12.666   1.430   3.131  0.3080  0.1515 -0.2825
14045W        W33579  12.608   8.056   2.921  0.0708 -0.2377 -0.2448
14046W        W33580   5.327   5.403  12.412 -0.2256  0.1053 -0.2445
14047W        W33581  15.393  19.455   3.601  0.1772  0.2498 -0.2015
14048W        W33582  13.004  10.947   3.460  0.1369  0.2625  0.3754
14049W        W33583  13.049   0.750   4.652 -0.0574  0.1061  0.3159
14050W        W33584  19.002  17.740   2.979 -0.0694  0.0199  0.1113
14051W        W33585   7.611  13.569   2.237 -0.3022  0.0089 -0.1035
14052W        W33586   2.672  15.455   4.124  0.0134 -0.0628 -0.1070
14053W        W33587  16.644   9.927  13.077  0.2290 -0.1215 -0.1273
14054W        W33588   1.508   7.427   2.154  0.1598  0.1919 -0.4104
14055W        W33589   4.506  14.303   0.545 -0.1505 -0.0236  0.1532
14056W        W33590  12.097   2.760  11.648  0.0357 -0.1452  0.3534
14057W        W33591  17.767   7.526  11.646  0.0236 -0.1877 -0.1845
14058W        W33592   7.595   5.441   0.304 -0.2205  0.0386  0.1546
14059W        W33593   8.306   0.574   0.673 -0.1614  0.1832  0.0881
14060W        W33594   8.548   5.369  13.232 -0.1138  0.0374  0.3592
14061W        W33595   6.160  19.393  14.114 -0.1416  0.1735 -0.0469
14062W        W33596  11.560   6.977   0.187 -0.0718  0.3555 -0.3069
14063W        W33597   7.361   6.533   1.199  0.0396 -0.2289  0.0430
14064W        W33598  18.051   0.306  10.166 -0.0963  0.3508 -0.4382
14065W        W33599   6.274   1.746  13.337 -0.0331  0.0805  0.0247
14066W        W33600   8.601   9.118   2.203  0.1802 -0.1842  0.0345
14067W        W33601   5.682   2.193  13.135  0.3860 -0.0649 -0.1384
14068W        W33602   9.595  18.921   1.329  0.1273  0.3459 -0.1282
14069W        W33603  14.455  16.275  12.077  0.0197 -0.0028  0.0012
14070W        W33604   7.358   0.248   2.131  0.1845  0.1477  0.0426
14071W        W33605  17.933  13.699   0.064 -0.3081  0.0324  0.2141
14072W        W33606   2.410   5.050  12.458  0.1158 -0.1022 -0.0181
14073W        W33607   2.446  12.111  14.282  0.1883  0.0510 -0.1200
14074W        W33608  10.753  10.100   1.665  0.0201  0.0939 -0.2463
14075W        W33609  17.232   8.658   3.549 -0.0940 -0.1253  0.1170
14076W        W33610   3.486  15.025  14.009 -0.2950  0.0045 -0.0367
14077W        W33611  12.573   7.139   4.294  0.1594  0.2025  0.2999
14078W        W33612  15.555   1.550  11.712 -0.2614 -0.3078 -0.1616
14079W        W33613  16.243  10.859   2.017 -0.0070  0.0294  0.2030
14080W        W33614   1.929   0.377   1.854  0.2458 -0.1582 -0.0095
14081W        W33615   2.614  11.656  11.612 -0.1574 -0.1032 -0.1047
14082W        W33616   3.813   5.355   0.753 -0.0630 -0.2380  0.2164
14083W        W33617   4.478   0.265   4.112 -0.2605  0.0364 -0.0490
14084W        W33618  10.671  10.255   0.686  0.0776 -0.0708  0.0064
14085W        W33619  11.003   7.749  11.472 -0.0467  0.1235  0.0106
14086W        W33620  12.913  19.323  13.417 -0.0447 -0.0934 -0.0427
14087W        W33621   0.601  12.922  13.228  0.0279  0.0803  0.0051
14088W        W33622   4.269  13.166   4.794  0.2199  0.2980  0.2470
14089W        W33623  17.275  13.357   2.859 -0.3189 -0.1809 -0.2430
14090W        W33624   6.006   8.819  13.340  0.0139 -0.0522 -0.0497
14091W        W33625  10.281   1.796  11.792 -0.0573  0.0590  0.4991
14092W        W33626  13.163   5.103  11.594  0.0392  0.0180 -0.1335
14093W        W33627  14.071  15.686   1.132 -0.0298  0.4132 -0.1039
14094W        W33628  10.664   0.456   1.230  0.1037 -0.0815 -0.2652
14095W        W33629   1.150   7.609   1.475 -0.1718  0.0590 -0.0240
14096W        W33630  12.620   1.554  10.556  0.0458  0.1818  0.2107
14097W        W33631  17.421  12.674   0.841  0.1604  0.1409 -0.0497
14098W        W33632   8.603  14.343  10.024  0.0219  0.2503 -0.1879
14099W        W33633  14.537  13.030  11.151 -0.3041  0.1259  0.1215
14100W        W33634   0.810  12.694  11.653  0.1491 -0.0409 -0.1402
14101W        W33635   2.840  10.965  13.771  0.2795  0.0922  0.0293
14102W        W33636   3.810  14.631  11.131  0.5507 -0.3176 -0.0207
14103W        W33637  18.555  18.509  12.132 -0.3864 -0.0573  0.1535
14104W        W33638  13.099   6.026  12.926  0.0137  0.0542  0.0755
14105W        W33639   0.156   0.027   0.420 -0.1202 -0.0796  0.1058
14106W        W33640  17.342  16.512  13.692 -0.0623  0.0838 -0.0991
14107W        W33641   9.701   1.485  14.127 -0.0212  0.0486 -0.0923
14108W        W33642  14.687  12.920   1.850  0.1422 -0.4102  0.0836
14109W        W33643   9.521   2.997  12.456 -0.0763 -0.4783  0.0433
14110W        W33644  10.125   0.531   3.166 -0.0756 -0.0142 -0.1538
14111W        W33645  10.395   1.149  12.982 -0.1610  0.1106 -0.1422
14112W        W33646  18.173   0.376  14.271  0.0675  0.0357  0.1945
14113W        W33647  15.969   5.590   0.670  0.0952 -0.1169 -0.1554
14114W        W33648  19.434   1.550   3.263  0.0453  0.2120  0.1617
14115W        W33649   3.699   5.698   3.639  0.1127  0.0964 -0.0064
14116W        W33650  11.461   4.567  13.020 -0.0360 -0.2788 -0.2666
14117W        W33651   5.811   4.624   2.375 -0.1047  0.1158 -0.1346
14118W        W33652  17.138   1.154  12.925 -0.1838 -0.0151  0.1364
14119W        W33653  17.330  16.049  12.432  0.3120  0.0863 -0.0954
14120W        W33654   4.551  17.812  10.431  0.3629 -0.3966  0.0655
14121W        W33655  13.084   5.142  13.081  0.1851 -0.1241  0.1076
14122W        W33656   7.544  11.551   3.745 -0.0519 -0.1653  0.3125
14123W        W33657   0.193  10.519   3.141 -0.1165 -0.4425  0.2048
14124W        W33658  18.512   5.996  12.714 -0.0672 -0.3052  0.1148
14125W        W33659  12.106  11.312   2.044  0.2176 -0.1159 -0.0905
14126W        W33660   9.418   3.824  13.724 -0.2027 -0.2800 -0.1527
14127W        W33661  19.240   2.275   1.243 -0.1923  0.0591 -0.1976
14128W        W33662  12.521   9.576  10.109 -0.0661 -0.0698 -0.1032
14129W        W33663   3.474  15.734   3.485 -0.2217 -0.0314 -0.2464
14130W        W33664   7.731   7.577   3.307  0.1268 -0.1717  0.1907
14131W        W33665   2.839   8.694   2.960 -0.0139  0.1766 -0.2250
14132W        W33666   8.368   7.016   4.132 -0.0340 -0.1304  0.3735
14133W        W33667  10.392  16.288  10.162  0.2924 -0.1835 -0.1826
14134W        W33668   4.762  15.636   9.312 -0.3161  0.1396  0.4222
14135W        W33669  17.065  17.823   3.836 -0.2514  0.0386  0.1882
14136W        W33670  12.785   4.217   0.437 -0.0810  0.0918 -0.1052
14137W        W33671   0.832  12.576   1.703 -0.1957 -0.1962 -0.0479
14138W        W33672   6.324  16.349  12.193 -0.1064 -0.2972  0.1310
14139W        W33673  18.587  14.903  13.992 -0.2954  0.2575  0.1240
14140W        W33674   2.997  17.453  11.845 -0.1839 -0.0563 -0.0266
14141W        W33675   1.252  10.606  10.354 -0.0282  0.0100  0.0399
14142W        W33676  18.632  17.040  10.418  0.4006 -0.2413  0.1155
14143W        W33677  15.334  15.360  10.770  0.1451  0.2194  0.1314
14144W        W33678  18.159  11.143  13.322  0.0993 -0.1477 -0.2565
14145W        W33679  10.864  15.681   0.628  0.0344 -0.0111 -0.3484
14146W        W33680   2.499  14.932   1.588 -0.2526  0.3065 -0.3921
14147W        W33681  13.564   4.480   1.006 -0.1162 -0.2386 -0.1520
14148W        W33682  13.222   8.916  12.212 -0.0795 -0.2262 -0.0518
14149W        W33683  19.103  14.515   0.376 -0.2358  0.1319 -0.1265
14150W        W33684   9.361  14.175   3.427  0.1079  0.1712  0.2395
14151W        W33685  10.192  15.912  12.119 -0.2154 -0.0939  0.3239
14152W        W33686   8.745   0.174  13.971 -0.1846 -0.0013 -0.0290
14153W        W33687   2.987   9.158   3.059 -0.1478 -0.1174  0.2223
14154W        W33688  15.465  10.763   1.365  0.3144  0.0560  0.0136
14155W        W33689   1.241   6.394  12.132  0.2191  0.1494 -0.1296
14156W        W33690  16.470   4.662   2.772  0.2109 -0.0353  0.2342
14157W        W33691  16.741   4.939  14.235  0.0699  0.1297 -0.3737
14158W        W33692  17.146  16.856   3.352  0.3102  0.3290 -0.0457
14159W        W33693   1.126  13.237   2.304 -0.1889  0.0540  0.0935
14160W        W33694   8.283  12.837   3.839  0.0738  0.1239 -0.0374
14161W        W33695  17.135   4.474   3.598 -0.0067 -0.0665  0.0370
14162W        W33696  19.188   0.571  11.309 -0.2097  0.1344  0.0345
14163W        W33697  10.372   5.796   0.906 -0.0215 -0.2327 -0.0631
14164W        W33698   4.076   4.738   4.025  0.0167 -0.0570 -0.1251
14165W        W33699   4.494   3.108  12.245  0.0343 -0.5311 -0.0457
14166W        W33700  10.287   3.591  11.899 -0.0352  0.1565 -0.0497
14167W        W33701  17.055   7.782   0.198 -0.0693  0.1999  0.1519
14168W        W33702  15.382  15.493  14.278  0.0294  0.1253 -0.2721
14169W        W33703   5.392  17.744  13.090  0.1289 -0.2356  0.1327
14170W        W33704  18.776   0.465   1.937 -0.0642 -0.0326 -0.2765
14171W        W33705   1.772  16.427  13.916  0.0891  0.2002 -0.2859
14172W        W33706  11.883  12.407  11.374  0.0827  0.0508 -0.1325
14173W        W33707   1.957  12.265  12.573  0.1174 -0.0226  0.0165
14174W        W33708   2.230  19.287  10.406 -0.0391 -0.0062  0.5103
14175W        W33709  14.409   9.184   0.197 -0.0107  0.2044  0.1593
14176W        W33710  15.205   6.325   4.122  0.0103  0.2556  0.0082
14177W        W33711   3.998   1.059  13.329 -0.0368 -0.0158  0.4671
14178W        W33712  15.647  15.754   1.006  0.0553  0.1194 -0.2861
14179W        W33713   6.438  12.867   2.305  0.3876 -0.0306  0.3146
14180W        W33714  11.123  10.779  12.447 -0.5615 -0.3841  0.0742
14181W        W33715  10.405   5.972  13.669  0.3919  0.1685 -0.0615
14182W        W33716   1.896  10.150   0.012  0.1798 -0.1851 -0.0861
14183W        W33717  14.047   3.973   3.005  0.0326  0.2219 -0.1658
14184W        W33718   1.347  13.037  12.855  0.3366 -0.0831 -0.0659
14185W        W33719   7.699   5.440  10.373  0.1085  0.1351 -0.3243
14186W        W33720   6.120   2.754   0.696  0.2875  0.1257  0.2071
14187W        W33721  13.419   5.636  11.353  0.2250 -0.0239  0.0684
14188W        W33722  15.023  11.194   0.706  0.1800 -0.0609 -0.0168
14189W        W33723  17.900  18.287  13.867 -0.2283  0.0573  0.0778
14190W        W33724   2.048  13.357   2.044 -0.0419 -0.0986  0.6956
14191W        W33725  14.639   5.267  13.924  0.1951 -0.0063 -0.1424
14192W        W33726  13.676  10.671   1.373  0.2984  0.0050 -0.0184
14193W        W33727   1.804   3.489   2.816 -0.1199 -0.2785 -0.1347
14194W        W33728  13.374  17.269  10.823 -0.2716 -0.1561  0.0036
14195W        W33729   2.411   4.183   1.643 -0.3400 -0.0396 -0.0841
14196W        W33730  19.122   0.123  10.983  0.3665 -0.0836 -0.0918
14197W        W33731  19.331   6.165   2.844  0.0491 -0.1527  0.1416
14198W        W33732   8.245   9.804   0.482  0.1154 -0.1069  0.1192
14199W        W33733   3.738  18.538   1.604 -0.2357 -0.1298  0.2903
14200W        W33734  17.248   2.493   1.057  0.1420  0.1801 -0.1592
14201W        W33735   9.430  11.581  13.104 -0.0967  0.0970  0.0687
14202W        W33736  14.316  11.777   0.826 -0.0733 -0.2296  0.0289
14203W        W33737  17.396   2.197   3.313 -0.3411 -0.2363 -0.1601
14204W        W33738  17.523   1.057  12.030  0.0334 -0.0895  0.0369
14205W        W33739  11.394  13.138   1.834 -0.4539  0.1757 -0.1360
14206W        W33740   8.922  18.216  11.054  0.1668 -0.1033 -0.1171
14207W        W33741   1.408   0.945   1.421  0.0474 -0.2881 -0.3432
14208W        W33742  17.779  19.056  13.196  0.4740  0.1392  0.0167
14209W        W33743   9.203  16.567   3.080 -0.0333  0.0884 -0.0407
14210W        W33744  16.886   1.061   4.204 -0.1728  0.1759 -0.1620
14211W        W33745  17.249  18.202  12.695  0.0433  0.1382  0.0451
14212W        W33746  17.579  15.494   1.573  0.0182  0.2353 -0.2538
14213W        W33747  15.329  10.868  13.470  0.1081  0.3472  0.2582
14214W        W33748  14.247  16.624  12.353  0.0818 -0.2142 -0.2769
14215W        W33749  14.848  10.035   0.316 -0.0274 -0.2839  0.0288
14216W        W33750   6.914  13.618   9.878  0.0849 -0.0762 -0.0213
14217W        W33751   2.313   7.566   0.889 -0.0401 -0.1026 -0.0185
14218W        W33752   1.749  18.917  12.615 -0.0911  0.3299  0.1876
14219W        W33753  10.117   7.599   2.247 -0.0749  0.0441  0.4859
14220W        W33754   1.703   6.741   9.753  0.1372 -0.1004 -0.0754
14221W        W33755   8.486   8.712  11.689 -0.3659 -0.2894  0.0034
14222W        W33756  10.786   1.287  12.110  0.0279 -0.1624  0.2149
14223W        W33757   4.345   0.664  13.266 -0.1749  0.2747  0.3404
14224W        W33758   4.061   9.445   0.190 -0.0523 -0.3395  0.1314
14225W        W33759   1.932   4.899  10.789 -0.3455 -0.3576 -0.0427
14226W        W33760  13.760  19.525   2.230  0.3657 -0.0609  0.1608
14227W        W33761  13.312  11.844  13.435 -0.1278 -0.0047 -0.2445
14228W        W33762   3.544   2.913  12.495 -0.0684 -0.2235  0.1127
14229W        W33763   5.182   1.661   1.918 -0.2537  0.1174 -0.1609
14230W        W33764   5.688  12.168   3.135 -0.1774  0.0446  0.1266
14231W        W33765  12.884   9.899   1.309  0.2915 -0.1845 -0.1544
14232W        W33766  10.709   6.791   0.535 -0.1235 -0.1822  0.1645
14233W        W33767  10.128  13.580  12.531  0.0625  0.0521  0.1907
14234W        W33768   0.419   2.251   3.042  0.0332  0.0120  0.0284
14235W        W33769   0.707   8.889  11.915  0.0268  0.0198 -0.2326
14236W        W33770   6.869  11.973   3.400 -0.0542 -0.1336  0.0381
14237W        W33771  12.653  17.330   0.191 -0.0159  0.1907 -0.3032
14238W        W33772  18.356   3.873  12.647  0.0763  0.2181  0.2848
14239W        W33773   3.649  14.082   0.837  0.1537  0.0143 -0.0523
14240W        W33774   8.117   8.073  12.881  0.0283  0.2054  0.1911
14241W        W33775   3.576   8.263  14.296  0.0311  0.1118  0.0698
14242W        W33776   8.151   3.547  12.025  0.3100  0.0632  0.0144
14243W        W33777   2.329   6.508   2.713 -0.0212 -0.0281  0.0802
14244W        W33778  19.237   7.632   3.263  0.0478 -0.0894  0.0920
14245W        W33779  13.755  11.472  10.045  0.0579  0.0817  0.0087
14246W        W33780   8.459   0.092  11.837  0.1104 -0.3047 -0.3727
14247W        W33781  17.398   0.936  11.099 -0.0260  0.0684 -0.0893
14248W        W33782   2.298  14.361  13.815  0.1668 -0.0135  0.0721
14249W        W33783  16.209   7.027  11.022  0.1361 -0.1751  0.2065
14250W        W33784  15.077   9.503   2.383  0.3490  0.1684 -0.1735
14251W        W33785   2.004   9.741  12.161  0.1080  0.2775 -0.1872
14252W        W33786   0.333   1.179   3.139  0.3002 -0.0139  0.1868
14253W        W33787  14.519   4.677  12.070  0.1314 -0.0828 -0.0688
14254W        W33788  13.328  11.453   0.620  0.1302  0.2531  0.0063
14255W        W33789  14.224  19.000   4.296  0.1334  0.1473 -0.1545
14256W        W33790   6.895   8.588   3.448  0.1601  0.2164 -0.1329
14257W        W33791   4.284  14.192  10.467  0.1159  0.0007  0.0995
14258W        W33792  13.935  14.348   1.266 -0.0807 -0.0319 -0.0127
14259W        W33793  13.753  10.243   2.803  0.0861 -0.3018 -0.0958
14260W        W33794   3.270   2.813   3.432 -0.1688 -0.0428  0.1122
14261W        W33795  18.023  11.962  13.178  0.0910 -0.5293 -0.1011
14262W        W33796   9.023   3.175   3.660  0.1906  0.1789  0.2057
14263W        W33797  14.805  15.048  13.771  0.0445  0.0604  0.0584
14264W        W33798  12.037   8.047   3.457  0.1103  0.2440  0.3702
14265W        W33799   8.323   4.960   0.423 -0.0435 -0.1936 -0.0030
14266W        W33800  11.888  13.084  12.253  0.1765  0.2559  0.2821
14267W        W33801  18.728  16.868   0.251  0.3391 -0.2375  0.2990
14268W        W33802   6.769   9.546  11.437  0.1794  0.0228  0.2887
14269W        W33803  11.018  16.973   2.611  0.0879 -0.1425  0.1565
14270W        W33804   7.874  13.626   4.133 -0.1746 -0.1609  0.0579
14271W        W33805  15.234  12.493   9.987 -0.0692 -0.4244  0.3315
14272W        W33806   3.735  16.058   2.687  0.0321  0.0571  0.1181
14273W        W33807  15.004  12.785  14.019 -0.1062  0.0517  0.0486
14274W        W33808  13.365   8.918  13.124  0.2866 -0.1927 -0.3999
14275W        W33809  18.376  11.515   3.103  0.2946  0.0422 -0.1326
14276W        W33810  12.826   8.528   2.943  0.3011 -0.1917 -0.3628
14277W        W33811  10.691  18.553   0.739  0.1969  0.0175  0.3582
14278W        W33812  15.325  12.358   3.649  0.0887  0.0527 -0.1368
14279W        W33813  13.165   6.683  10.301 -0.1558 -0.0207  0.1201
14280W        W33814  17.264  14.261  11.934  0.0837 -0.0249  0.3988
14281W        W33815  12.862  14.830  10.924 -0.1283  0.0322  0.2491
14282W        W33816  10.889   3.541   2.178 -0.2175 -0.0638 -0.0261
14283W        W33817   3.819  10.866  11.492  0.1841  0.1248  0.2090
14284W        W33818   0.294   3.816   2.857  0.1005  0.1760  0.4972
14285W        W33819  18.267   8.383  11.627  0.3818 -0.1550 -0.0222
14286W        W33820   5.400  14.391  10.751  0.1525  0.1681  0.0708
14287W        W33821  10.888  19.319  10.144 -0.0831 -0.1015 -0.0919
14288W        W33822   2.544   4.489   1.245 -0.2385  0.2617  0.1931
14289W        W33823  10.309   8.880  12.262 -0.0885  0.0570 -0.2918
14290W        W33824   7.843  11.403  13.247 -0.2139  0.1924 -0.0969
14291W        W33825   6.948   0.640   2.438 -0.0484  0.2030 -0.1658
14292W        W33826  19.504   6.493   1.333  0.1073 -0.1167  0.0605
14293W        W33827  19.072   5.618   1.353 -0.1012  0.0374  0.3234
14294W        W33828   3.029  17.774  13.899 -0.0790 -0.0082 -0.2352
14295W        W33829  18.689  11.054  13.070 -0.2802 -0.1965  0.0666
14296W        W33830   5.515  13.589  12.878  0.1123 -0.0036  0.1355
14297W        W33831   0.338   6.641   0.393 -0.0201  0.2785  0.1341
14298W        W33832  15.484   8.472  13.044 -0.3045 -0.3420  0.2857
14299W        W33833  14.658   7.889   3.408 -0.0561  0.0871 -0.1536
14300W        W33834   7.771  17.212  12.427 -0.0349  0.0985 -0.1489
14301W        W33835   8.727   6.470   4.126 -0.0820  0.3015  0.0921
14302W        W33836  10.609  15.374   1.632 -0.1820 -0.0027  0.1462
14303W        W33837  15.725   4.988   1.383 -0.3174 -0.2180  0.0601
14304W        W33838   2.526   6.489   3.234  0.0609  0.0216 -0.1817
14305W        W33839   9.712   7.741  12.683 -0.3911 -0.3442 -0.1366
14306W        W33840   4.413   9.202   2.756 -0.3598 -0.1681  0.2176
14307W        W33841   5.417   5.433  10.155  0.4419  0.0052 -0.0115
14308W        W33842  17.423   7.201   3.017 -0.1628 -0.1871  0.0912
14309W        W33843   6.902  12.911  11.888  0.1749  0.2141  0.1167
14310W        W33844  11.065  17.085  10.345 -0.0042  0.0867  0.1277
14311W        W33845  18.383  13.678   3.646 -0.1138 -0.1419 -0.3948
14312W        W33846  10.289   2.925   2.177  0.0473 -0.1218  0.1172
14313W        W33847   8.396  18.309  12.272  0.1136  0.0380 -0.0534
14314W        W33848   9.792   5.340   3.515 -0.0514 -0.2345  0.3605
14315W        W33849   4.916   6.868  11.418  0.0834  0.1360  0.0575
14316W        W33850   9.502   5.158  11.566 -0.2683 -0.1667 -0.0546
14317W        W33851  10.396   5.371  14.111  0.2893 -0.3621  0.0768
14318W        W33852   1.343  15.254   3.094  0.0069 -0.2978 -0.2652
14319W        W33853  15.171   9.696  12.754  0.0682 -0.3052 -0.1879
14320W        W33854  15.591   0.370  12.966 -0.0005  0.3020  0.1311
14321W        W33855   7.721  12.517  11.782 -0.0085  0.0265 -0.0484
14322W        W33856  17.830  13.101   3.924  0.1161 -0.1495 -0.2547
14323W        W33857   1.469  12.196  12.280 -0.1038  0.1294  0.2543
14324W        W33858   7.398   4.079  11.662  0.2802  0.1036 -0.1544
14325W        W33859   5.193  12.836   4.105 -0.2105 -0.0070  0.1357
14326W        W33860   8.154   0.553  10.813  0.0284  0.0572 -0.4318
14327W        W33861  17.181  19.285   2.579 -0.2570 -0.0127  0.0451
14328W        W33862   6.088   2.005  14.024 -0.1474 -0.2212  0.1570
14329W        W33863   7.868  16.734   0.551  0.0914 -0.3393  0.1238
14330W        W33864   5.937   3.629   1.867  0.0541  0.0455 -0.0469
14331W        W33865  13.953  10.932  10.626 -0.0828  0.0797 -0.1509
14332W        W33866   3.014   3.892   2.286  0.2286  0.2442 -0.1968
14333W        W33867   2.652   8.299  11.118 -0.1127  0.2633 -0.2227
14334W        W33868   4.469  15.003   2.876 -0.2857 -0.1742  0.0643
14335W        W33869   8.471   3.172   2.442 -0.1102  0.0640  0.3851
14336W        W33870   4.233  15.054   1.871 -0.0196 -0.0784  0.2632
14337W        W33871   9.431  12.852  13.992 -0.0789  0.0965  0.1693
14338W        W33872  10.811  17.803   0.509  0.4471  0.0422  0.2560
14339W        W33873  10.973  12.797   1.900 -0.1080  0.1284 -0.1922
14340W        W33874  14.622  14.359  12.209 -0.0612  0.1377 -0.3148
14341W        W33875   6.950   1.338   9.766  0.2026 -0.1522  0.0397
14342W        W33876   7.528  15.769   0.695 -0.3165 -0.1560 -0.0714
14343W        W33877   8.327   8.121   2.477 -0.1877 -0.0217  0.2070
14344W        W33878  14.273   9.376  11.268  0.2354 -0.0506 -0.3061
14345W        W33879   9.291  12.065  11.158 -0.4281  0.1971  0.0026
14346W        W33880  14.113  11.617   3.104  0.0941 -0.1773 -0.0411
14347W        W33881   4.067  14.830   3.682 -0.2449  0.2346 -0.2987
14348W        W33882   3.801   0.216   1.217  0.0645  0.3517  0.0297
14349W        W33883  18.042  12.438   1.731  0.3942  0.2654 -0.0610
14350W        W33884  14.174  17.554   1.228  0.1060  0.1841 -0.2649
14351W        W33885   6.404   3.839  14.035  0.2201  0.1155  0.2152
14352W        W33886  12.939   1.296  14.071 -0.0168  0.0479  0.0110
14353W        W33887   4.037   0.831   2.756 -0.1376 -0.0802 -0.2947
14354W        W33888  16.366   8.207  11.678  0.1416  0.1617  0.1494
14355W        W33889   5.089   0.416   0.346  0.1338 -0.0297 -0.0085
14356W        W33890  11.626  16.761   0.012  0.1618 -0.1626 -0.0580
14357W        W33891   0.202   7.727  13.476 -0.2517 -0.0665 -0.0787
14358W        W33892  12.274   0.239  11.019 -0.0942 -0.3950 -0.3728
14359W        W33893   5.507  15.528   3.655 -0.2044  0.0448 -0.1968
14360W        W33894  16.972  14.989  10.382 -0.1450  0.0631  0.0424
14361W        W33895   8.191  15.715   0.407  0.0007  0.0635  0.0672
14362W        W33896   2.059   8.751  14.176  0.1098  0.0208 -0.0854
14363W        W33897   0.797  13.185  12.326  0.1213 -0.1293 -0.1399
14364W        W33898  18.556  17.302  11.719 -0.1202  0.0455 -0.2345
14365W        W33899   9.947  16.948  13.926 -0.2612 -0.1415  0.0462
14366W        W33900  17.526  15.022   0.726 -0.1500 -0.6834  0.1695
14367W        W33901   1.630  10.881   3.274  0.1365  0.2438  0.0891
14368W        W33902  17.041   2.911   2.763  0.1355 -0.1413 -0.0890
14369W        W33903  19.084  11.224   1.915 -0.0287 -0.1448 -0.2759
14370W        W33904   6.424  16.610  10.528  0.2309 -0.1324  0.1838
14371W        W33905   6.803   7.226  11.029 -0.2127 -0.0747 -0.4430
14372W        W33906  15.909  10.753   3.259 -0.3268  0.1210 -0.0915
14373W        W33907  15.037   4.796   9.687  0.3144  0.2864  0.4015
14374W        W33908   9.533  18.384  14.096 -0.3274  0.1044 -0.2078
14375W        W33909  12.340   8.759  13.183 -0.1182  0.1823  0.1329
14376W        W33910   0.219   9.121   1.335 -0.3208 -0.0351  0.1382
14377W        W33911   5.133  19.505  13.457 -0.1350  0.0088  0.2975
14378W        W33912  12.914  18.538  11.571  0.0551 -0.1133  0.2124
14379W        W33913  13.621   8.528  12.211 -0.3684 -0.3199 -0.2403
14380W        W33914  11.779   9.744   0.570  0.0353 -0.0434  0.2578
14381W        W33915   2.597  17.597  13.681 -0.2940 -0.0077  0.0298
14382W        W33916   8.607   2.173  14.108 -0.0931  0.0359 -0.2455
14383W        W33917   1.557   0.895  12.644  0.2967  0.0358 -0.1239
14384W        W33918  13.834   8.948   9.917 -0.1250  0.0394 -0.0446
14385W        W33919  13.786  18.528   4.745  0.5190  0.4342  0.1044
14386W        W33920  15.370   1.489   3.690 -0.0329 -0.1200  0.1000
14387W        W33921  13.498   1.157  13.108  0.2329 -0.0177  0.0803
14388W        W33922  16.605  11.609  14.234 -0.2717  0.2573  0.3549
14389W        W33923   0.108   7.938   3.227  0.0332 -0.0669 -0.1639
14390W        W33924  15.567   0.254   2.324  0.2237  0.1425  0.0506
14391W        W33925  13.886   1.023  14.281 -0.0760  0.2768  0.0552
14392W        W33926   5.747  13.664   0.293  0.2005  0.0121 -0.1018
14393W        W33927  15.242   0.587   1.120 -0.0990  0.0405  0.0617
14394W        W33928   3.867   9.698  13.275 -0.0112 -0.0248 -0.3477
14395W        W33929  12.094   2.033  14.178  0.3208  0.2747 -0.0067
14396W        W33930   7.076   3.541   2.790 -0.2462 -0.0400 -0.2956
14397W        W33931   2.033  15.723  12.839  0.1712 -0.0062 -0.2533
14398W        W33932  15.644   7.093  13.371 -0.2188 -0.3191 -0.2827
14399W        W33933   4.040  10.280   2.273 -0.3036 -0.1046  0.1938
14400W        W33934  12.266   4.964  12.602 -0.0179  0.0330 -0.1305
14401W        W33935  15.576  12.093   2.781 -0.0916  0.0667 -0.1274
14402W        W33936  17.841   6.671  11.956  0.2447  0.2546 -0.0218
14403W        W33937  14.469  18.992  11.962  0.0009 -0.1330  0.0040
14404W        W33938  18.835  19.328  12.378  0.0351 -0.0121  0.3397
14405W        W33939  11.474   3.065  11.254  0.2493  0.0793 -0.0090
14406W        W33940   9.513  15.442   0.582 -0.1635 -0.1637 -0.3255
14407W        W33941  12.718  16.434   0.428  0.2424 -0.4153  0.4013
14408W        W33942   3.114  16.038  10.869  0.2697 -0.2487 -0.0961
14409W        W33943  18.670   2.746   9.652 -0.1155 -0.1785  0.1924
14410W        W33944  16.764  11.936  11.479 -0.0602  0.4195  0.0296
14411W        W33945   7.237   4.789   1.677  0.0430 -0.0887 -0.1780
14412W        W33946  16.393  12.500   0.344  0.0151 -0.1303  0.2189
14413W        W33947  11.429  13.551   2.641  0.1386 -0.1177 -0.1392
14414W        W33948   9.701  12.603   2.830 -0.0526  0.3417 -0.1208
14415W        W33949  11.081   9.016  11.683  0.2000 -0.0912 -0.0338
14416W        W33950  17.923   2.794  11.504 -0.0634 -0.2964  0.1286
14417W        W33951   0.819  12.351  10.256 -0.0554  0.0865  0.0626
14418W        W33952   6.576   0.054   0.869  0.1729  0.0861  0.2512
14419W        W33953  15.565   2.667   4.294 -0.0365 -0.2057 -0.3536
14420W        W33954  12.414  17.210  12.456 -0.0853  0.0104  0.2021
14421W        W33955   4.586  15.890   2.446 -0.0558  0.2529  0.2459
14422W        W33956  16.791  10.090  11.708 -0.1051  0.1358 -0.0067
14423W        W33957   7.416   4.493   9.603  0.1207  0.0728  0.2184
14424W        W33958   5.588  12.195   2.596 -0.0147 -0.1849  0.1380
14425W        W33959  16.434  12.502  13.551  0.0922 -0.0404  0.5043
14426W        W33960   4.064   6.369  11.464 -0.0160  0.3432 -0.2498
14427W        W33961  18.921   1.059   1.906  0.2958  0.1058 -0.2729
14428W        W33962  10.478   6.028  11.811  0.2128 -0.0606 -0.2116
14429W        W33963  10.601   7.009   3.774  0.1349 -0.0806 -0.2833
14430W        W33964  16.628   8.375   4.504  0.1043  0.1939  0.1989
14431W        W33965  15.301  10.920  11.326  0.2612 -0.0642  0.4427
14432W        W33966  14.222  11.835  13.523 -0.0218  0.2544 -0.3325
14433W        W33967   6.197   4.642   0.484  0.0321 -0.2223  0.2682
14434W        W33968  16.381  13.598   0.864  0.1391  0.0918 -0.1160
14435W        W33969   2.702  18.714  13.776  0.1549 -0.1071 -0.1301
14436W        W33970  16.340  14.626   0.869  0.1360 -0.0344 -0.0434
14437W        W33971   2.514  15.906   3.613  0.2174  0.0764 -0.1869
14438W        W33972  17.735   4.746   4.567 -0.0803  0.0370 -0.1755
14439W        W33973   8.367   9.639   0.955 -0.0577 -0.1573 -0.2281
14440W        W33974  17.020   9.521  14.242 -0.0309 -0.1686  0.0083
14441W        W33975   2.146  15.289  12.587 -0.0043  0.0276  0.0445
14442W        W33976   0.042  16.302   1.010  0.0314  0.1334  0.1359
14443W        W33977   9.195   4.929   0.802 -0.0416 -0.2605  0.2795
14444W        W33978   6.349   7.874   3.214  0.1243  0.1146  0.0087
14445W        W33979  14.601   8.553   1.290  0.1308  0.1305 -0.3849
14446W        W33980   1.214  12.827  12.014 -0.0184 -0.0140  0.1723
14447W        W33981   8.567   6.425   0.665 -0.0787 -0.0536 -0.1013
14448W        W33982   6.252  11.101   4.530  0.0320  0.0496 -0.2791
14449W        W33983  12.775   4.352  14.308  0.0958 -0.1035 -0.0734
14450W        W33984   6.529   9.056   1.378  0.3555  0.1611 -0.0591
14451W        W33985  17.205  12.049   2.419  0.0381 -0.0487  0.2113
14452W        W33986  18.661  10.375   2.844  0.4952  0.1592 -0.3153
14453W        W33987  18.879  14.677  13.626 -0.1464  0.2131  0.2356
14454W        W33988  14.711  12.422  12.635 -0.1428  0.0380 -0.0131
14455W        W33989   3.357   1.057   0.698  0.0251  0.2062  0.0576
14456W        W33990   8.683  18.493  11.405 -0.1563 -0.2239 -0.1388
14457W        W33991   6.709  13.014  12.430 -0.0123  0.0782  0.0789
14458W        W33992   3.354  19.250   3.079 -0.1770  0.0839  0.0175
14459W        W33993   6.317   2.019   3.966  0.1765  0.1402  0.0614
14460W        W33994   6.029   9.057  12.106  0.1840  0.1188  0.0249
14461W        W33995   4.879  16.438  12.816 -0.0965 -0.2625  0.0502
14462W        W33996   9.469  17.631   2.829  0.1940  0.3164 -0.0652
14463W        W33997  11.289  18.872   1.215 -0.2132  0.0703  0.0100
14464W        W33998   8.127   2.637   1.083  0.1464 -0.1243 -0.0935
14465W        W33999   3.149   2.189  12.066  0.4110 -0.2481  0.0914
14466W        W34000  10.180  18.668  10.975 -0.0199  0.0928 -0.2047
14467W        W34001   3.351  10.979   0.743  0.1183  0.0364  0.4141
14468W        W34002   7.266   9.854   2.566  0.1373 -0.1342  0.0665
14469W        W34003  10.708  13.295  11.507 -0.1940  0.1568  0.3438
14470W        W34004  15.632  19.395   1.682  0.0200  0.1243 -0.0681
14471W        W34005   2.071  19.110   4.020  0.0023  0.0237 -0.0865
14472W        W34006   0.615  15.245  10.252 -0.2378 -0.1229  0.1227
14473W        W34007   7.977   8.711   0.906 -0.1586 -0.0628 -0.0979
14474W        W34008   6.875  11.737   4.481  0.2697 -0.1228  0.0430
14475W        W34009  15.744   4.500   2.816  0.5043  0.1574  0.1744
14476W        W34010  10.271  13.539   3.001  0.1837 -0.3467  0.0864
14477W        W34011   6.026   6.750   2.491  0.0186 -0.0959  0.2068
14478W        W34012  17.672  17.836   2.923  0.3403 -0.0316  0.4170
14479W        W34013   8.516  11.493   2.036  0.1591  0.3144 -0.2870
14480W        W34014  11.257   9.609   1.752 -0.0514  0.2911  0.0643
14481W        W34015   7.077   7.464   4.455 -0.0828  0.0339  0.0394
14482W        W34016   3.715   2.032  13.363 -0.1086  0.1848 -0.0272
14483W        W34017  15.889  13.152   1.644 -0.0004 -0.3085 -0.1666
14484W        W34018   1.226   0.931   1.987  0.1352  0.1137 -0.0547
14485W        W34019   4.412  18.651   0.623  0.0295 -0.2260  0.0709
14486W        W34020   9.773  13.076  13.576  0.0774  0.3447 -0.1339
14487W        W34021  15.339  17.720  13.017 -0.0847  0.0898 -0.1246
14488W        W34022  10.574   5.595  13.045 -0.0331  0.2122 -0.1311
14489W        W34023   3.148   2.755  10.657 -0.2018 -0.1743 -0.0973
14490W        W34024   8.175   9.464   2.126  0.1448 -0.1370  0.1612
14491W        W34025  12.067  16.313  11.701 -0.0324 -0.2476 -0.3521
14492W        W34026  13.301   7.776  11.346  0.0079 -0.2287  0.2323
14493W        W34027   2.756  14.945   0.449 -0.2482 -0.0121  0.1664
14494W        W34028  17.512   8.225  13.069  0.0026  0.1055  0.0607
14495W        W34029  11.528   2.117   1.018 -0.0277  0.1493  0.3432
14496W        W34030  16.563  16.885  13.105 -0.2145 -0.0627 -0.0233
14497W        W34031   7.843   6.488  12.303 -0.0597 -0.1860  0.0626
14498W        W34032  13.330  12.449  10.475  0.0920 -0.0720 -0.1190
14499W        W34033  19.381  13.153   1.633  0.0476  0.2607 -0.1504
14500W        W34034  15.106  10.709   0.998  0.0503  0.3162 -0.0959
14501W        W34035   8.912   4.721  13.911 -0.0062 -0.1469  0.2867
14502W        W34036  15.806   2.059   2.800 -0.0259 -0.2579 -0.2217
14503W        W34037   6.499  10.281   3.847  0.1873  0.3281 -0.0135
14504W        W34038   2.896   8.027  11.411 -0.0700 -0.3302 -0.3247
14505W        W34039  11.687   6.422  11.576  0.0931 -0.0261 -0.1336
14506W        W34040   8.639  19.144   3.249  0.2520  0.0198 -0.1537
14507W        W34041   7.518  14.188   0.930  0.0405  0.0815 -0.0854
14508W        W34042   2.882  16.111   1.390  0.2794 -0.1976  0.0428
14509W        W34043  18.951  10.371  13.802 -0.0403  0.0624 -0.1211
14510W        W34044  11.420  12.204  13.118 -0.2456  0.0408  0.0299
14511W        W34045   2.782  13.856   2.934 -0.0251 -0.2305  0.0206
14512W        W34046  12.085  15.974   0.891 -0.0090  0.1698  0.2002
14513W        W34047  12.740  12.700  11.738  0.0462  0.0956 -0.0130
14514W        W34048  19.272  13.121  11.853  0.1353 -0.0215  0.0878
14515W        W34049   9.454   8.903  11.568 -0.0164  0.0589  0.4240
14516W        W34050  15.924  17.008  13.844 -0.2201  0.0749 -0.0364
14517W        W34051  14.716   2.433   3.082  0.1781  0.4614 -0.1026
14518W        W34052  14.822  11.484   4.775  0.0742 -0.2764  0.1222
14519W        W34053  14.375   4.121   9.746 -0.0287  0.4732 -0.4918
14520W        W34054  19.422  18.264   1.789 -0.1351 -0.2129  0.0069
14521W        W34055  10.415   8.744  13.355 -0.0028 -0.1146 -0.1512
14522W        W34056   7.955  17.214   2.410  0.1323  0.0266 -0.0777
14523W        W34057   2.583  15.844  10.673  0.1758 -0.0483  0.1497
14524W        W34058   7.134  12.443  10.605  0.4046  0.3143 -0.0497
14525W        W34059   2.915   0.147   9.741  0.1872 -0.1592 -0.0025
14526W        W34060   0.226   6.075   3.679 -0.1068 -0.0709 -0.2548
14527W        W34061  13.901   0.281  13.687 -0.1592  0.1349  0.0390
14528W        W34062   0.187   9.495  13.717 -0.1560  0.0841 -0.1022
14529W        W34063   4.153   6.704   1.470  0.1867 -0.3781 -0.1469
14530W        W34064  11.097   6.158  14.111 -0.2924 -0.1538  0.2406
14531W        W34065  15.124  17.437   3.416 -0.3161 -0.0780 -0.0884
14532W        W34066  10.803  14.835  13.867  0.2245 -0.1260 -0.1488
14533W        W34067  10.254  15.549  14.038 -0.0047 -0.0281  0.5298
14534W        W34068   9.825  13.147  12.072 -0.2016 -0.1307  0.1238
14535W        W34069  19.369  15.653   0.750 -0.0361  0.0433 -0.0672
14536W        W34070   5.140   8.516   0.735  0.1827  0.0143  0.3119
14537W        W34071  10.268   2.870  10.835  0.1751 -0.1523  0.1430
14538W        W34072   4.979  14.534  11.135 -0.1541  0.1323  0.0593
14539W        W34073  12.541   9.931   3.850  0.1720 -0.0860 -0.1158
14540W        W34074  15.037  13.063   1.489  0.0710 -0.1455 -0.0433
14541W        W34075  10.642  13.044   0.631 -0.0392  0.2170  0.1668
14542W        W34076  10.265   2.416   2.047  0.1908  0.0800  0.0508
14543W        W34077   2.702   2.071  14.175  0.1321 -0.2684 -0.3622
14544W        W34078   6.539   4.002  13.486 -0.1697 -0.2416  0.1398
14545W        W34079  18.564   7.961   0.313  0.0554  0.1956 -0.0882
14546W        W34080   4.901   3.105  11.009  0.1914  0.0610  0.2085
14547W        W34081  10.260  14.351  11.874 -0.2224 -0.0800  0.0916
14548W        W34082  12.248  11.086   2.849  0.3322  0.3053  0.1408
14549W        W34083  12.417   8.484  14.086  0.0594  0.2804  0.2548
14550W        W34084   3.518   3.295  13.286 -0.0690 -0.0023 -0.0484
14551W        W34085   2.083  11.900  11.626  0.2729 -0.1536  0.0018
14552W        W34086  17.092  19.512  11.799 -0.2664  0.1655 -0.3460
14553W        W34087   1.048  11.492  10.970  0.1908  0.1025 -0.2087
14554W        W34088  16.222   3.864  13.991  0.1670  0.0687 -0.0699
14555W        W34089  15.898   7.745   1.159 -0.2213  0.0129  0.3498
14556W        W34090  17.987  10.602   0.146 -0.1679 -0.2746 -0.0375
14557W        W34091  19.028  11.448   0.727  0.0270  0.2708 -0.3446
14558W        W34092  18.498  12.555  12.221 -0.2000  0.4563 -0.0741
14559W        W34093   6.485   2.370   3.621 -0.2868 -0.2705 -0.0017
14560W        W34094  19.317  12.839   4.004  0.1033 -0.0721 -0.0905
14561W        W34095   5.969  14.467  10.830  0.0065 -0.0179 -0.2067
14562W        W34096   5.447  13.713   1.341 -0.1082 -0.1482 -0.3064
14563W        W34097   0.138   3.043   0.733  0.0765 -0.1030  0.1225
14564W        W34098   5.219   6.273  12.082 -0.1808 -0.3458  0.0738
14565W        W34099   7.612  17.725   1.541 -0.2514  0.1393  0.0069
14566W        W34100  16.960  18.986  12.193  0.3731 -0.1256  0.1986
14567W        W34101   3.561  13.470   3.617  0.0975 -0.1487  0.1930
14568W        W34102  10.679   7.873   1.233 -0.0579 -0.0122 -0.0475
14569W        W34103  18.846  11.683   0.149 -0.0884 -0.0164  0.0872
14570W        W34104  16.873  10.508  11.372  0.1542 -0.0529  0.1006
14571W        W34105  17.725   6.976  14.091 -0.0246 -0.0832  0.0667
14572W        W34106   3.532   8.298   3.463 -0.1897  0.1941  0.0939
14573W        W34107   5.272  11.418   2.768  0.1092 -0.2241 -0.0836
14574W        W34108  16.415  19.440  10.061 -0.0842  0.0001  0.0439
14575W        W34109  10.532  13.426   0.337  0.0825  0.1235 -0.0157
14576W        W34110   0.317  14.471  12.959  0.1386 -0.0352  0.0458
14577W        W34111  17.764  14.917  13.920  0.1038 -0.2420 -0.2185
14578W        W34112  17.564   8.378   2.810 -0.0152 -0.1361  0.1116
14579W        W34113   0.097   0.314   1.917  0.0043  0.1148  0.0800
14580W        W34114   6.161  16.152  10.482  0.3076 -0.2248 -0.0593
14581W        W34115   7.942   9.969   1.403  0.3330 -0.0714  0.1673
14582W        W34116  13.960   5.925  10.914  0.3271 -0.1523  0.1386
14583W        W34117   9.971  17.391   1.495  0.0773 -0.1181  0.2522
14584W        W34118  18.230   5.293   3.710  0.0963 -0.3710 -0.0010
14585W        W34119   0.365  18.433  13.017  0.0942 -0.1804  0.2842
14586W        W34120   2.099  17.506  11.577  0.2314 -0.1022 -0.1904
14587W        W34121   8.246  14.813   2.882 -0.2201  0.3619  0.1988
14588W        W34122  15.751   3.490  11.653  0.1914  0.1506 -0.1961
14589W        W34123   5.150   7.667  12.654 -0.3259 -0.1587  0.2723
14590W        W34124  17.669   6.025   0.105 -0.2063  0.1872  0.1811
14591W        W34125  14.906   0.969   3.570 -0.0996  0.2678  0.1661
14592W        W34126  11.992   1.774  12.361 -0.2919  0.0211  0.0194
14593W        W34127  14.803  16.581   0.388  0.1494 -0.0950 -0.1067
14594W        W34128  11.604   2.146   1.777  0.2729  0.1053  0.0555
14595W        W34129  18.831  14.380   2.772 -0.1828  0.1391 -0.1032
14596W        W34130   2.517   7.657   3.976  0.0924 -0.0351  0.1960
14597W        W34131  16.761   2.563   4.086 -0.2445 -0.2165  0.0215
14598W        W34132  17.750   2.836  11.978  0.2044  0.3989 -0.0907
14599W        W34133   4.792   0.620   3.111  0.0360 -0.0887 -0.2768
14600W        W34134   4.147   2.954  11.754  0.0128 -0.1359 -0.2113
14601W        W34135   0.273   2.260  11.210  0.1851 -0.1341  0.1429
14602W        W34136   7.603   6.026  12.419 -0.0472 -0.0423  0.0598
14603W        W34137  14.189  16.030   0.750  0.0487  0.0855  0.1263
14604W        W34138  18.213  16.032  12.714  0.1195 -0.1267  0.4268
14605W        W34139  15.455  13.013   3.120  0.0693 -0.2646  0.1468
14606W        W34140  14.103  10.466   0.344 -0.0142  0.0412  0.0360
14607W        W34141  16.924   6.184   1.068 -0.2703 -0.3061 -0.1457
14608W        W34142  10.878   0.626  10.447 -0.5019 -0.1429 -0.2562
14609W        W34143  17.488  13.271  11.032  0.3108  0.3217 -0.0359
14610W        W34144  11.407   2.060   0.306 -0.1338  0.0753 -0.2078
14611W        W34145   5.633  19.471   3.243  0.0125  0.1143 -0.2056
14612W        W34146   5.305   9.666   0.820 -0.1441  0.0243  0.2738
14613W        W34147   5.569  13.859   0.871 -0.2800 -0.1579 -0.1860
14614W        W34148   0.838  17.670   1.202 -0.1612  0.1780 -0.0661
14615W        W34149  18.938   7.936   3.656  0.1961 -0.2369 -0.3242
14616W        W34150   4.369   9.039   1.842 -0.0665  0.0254  0.3604
14617W        W34151   8.483   0.045   0.486 -0.0198  0.0130 -0.1926
14618W        W34152  16.555   2.251  12.380 -0.0805  0.1496 -0.0381
14619W        W34153  16.884   3.245  13.051  0.1157  0.2725 -0.1653
14620W        W34154  15.492   7.003   3.734  0.0643 -0.1362  0.0538
14621W        W34155  16.045   2.302  10.705 -0.1589  0.0144  0.3455
14622W        W34156  14.959  11.630   2.114 -0.0227  0.0471  0.1369
14623W        W34157   7.160   6.087  12.606  0.3619 -0.1290 -0.1958
14624W        W34158  16.678   7.314   2.638 -0.3868  0.1123 -0.0267
14625W        W34159  14.995   4.013   9.138 -0.1408  0.0034 -0.0101
14626W        W34160   0.662   4.064   2.307 -0.1425 -0.1401 -0.0640
14627W        W34161   9.466  14.572   0.252 -0.0040 -0.2694  0.1387
14628W        W34162  18.430   1.378  12.055 -0.1241 -0.2155 -0.0805
14629W        W34163  16.871  10.265   2.175  0.0864 -0.0717 -0.0832
14630W        W34164   2.240   2.009   3.955  0.1277  0.0114  0.2954
14631W        W34165   6.007   9.226   3.888  0.1328  0.1318 -0.3189
14632W        W34166  16.569   1.224   2.779 -0.0592 -0.2269 -0.0801
14633W        W34167   2.891  17.294   1.835  0.2262  0.1644  0.0728
14634W        W34168  17.321   8.805   0.204  0.1845  0.0386 -0.2715
14635W        W34169  12.870  14.520   1.107  0.2165  0.3040 -0.0918
14636W        W34170   4.506   7.057   5.041 -0.1859  0.2340 -0.0500
14637W        W34171   1.864   0.392   3.440 -0.1087 -0.2009 -0.4091
14638W        W34172  17.094   1.195  13.454 -0.3517  0.0196 -0.0680
14639W        W34173   4.374   6.943  13.276 -0.1147  0.0641 -0.2285
14640W        W34174  16.248  19.447   1.835  0.2169  0.1745  0.0395
14641W        W34175  11.871   6.345  13.811  0.0620 -0.0846  0.0152
14642W        W34176  18.506  11.440   1.602  0.1539 -0.2055 -0.1605
14643W        W34177   6.393   5.451   1.451  0.0138  0.0938 -0.0451
14644W        W34178   1.161  11.680  12.843 -0.2065  0.1972  0.1340
14645W        W34179  16.269  18.072   3.505  0.0621 -0.0444 -0.2932
14646W        W34180   0.239   2.906   0.246 -0.0309  0.2891  0.0829
14647W        W34181   3.990   7.189   4.057 -0.0120 -0.0225  0.0276
14648W        W34182   4.857   1.029   1.032 -0.1143  0.2645 -0.1534
14649W        W34183  12.030  15.607   4.102 -0.4093  0.0087 -0.0874
14650W        W34184  13.624   2.737  13.896 -0.0982  0.3437  0.0127
14651W        W34185  15.257  15.567  11.698 -0.3644  0.1075 -0.1508
14652W        W34186   2.749  17.023  10.196 -0.1417 -0.3932 -0.3049
14653W        W34187  12.519   7.972   3.408 -0.2053 -0.2054 -0.1938
14654W        W34188   9.748  14.894  12.200  0.0920  0.3824 -0.0699
14655W        W34189  14.281  14.406  11.155 -0.0061 -0.3928  0.0119
14656W        W34190  12.827  13.926   3.720  0.2392 -0.0958  0.2744
14657W        W34191   6.102  18.140   3.984  0.3723  0.1004 -0.1613
14658W        W34192   1.289  19.361  10.448  0.2257 -0.0843 -0.3145
14659W        W34193   0.310   8.279   3.582 -0.1016  0.0583 -0.3261
14660W        W34194  11.481   0.576   2.771  0.0666  0.2828  0.0051
14661W        W34195   5.031   8.879  11.183  0.1550 -0.2076  0.0343
14662W        W34196   9.401  17.949  12.046  0.0570 -0.3788 -0.0750
14663W        W34197   1.594   7.729   1.360  0.0184  0.3342 -0.1006
14664W        W34198  14.326  14.153   2.045 -0.0004 -0.2127  0.4800
14665W        W34199  17.088   3.075   3.287  0.1062  0.0031  0.0507
14666W        W34200  18.351   1.753   2.663 -0.1451  0.3642 -0.3355
14667W        W34201  16.699  15.182  12.084  0.0370  0.0258  0.0200
14668W        W34202  10.872   2.263   2.449  0.2762  0.2713  0.1063
14669W        W34203   6.518   6.268   3.208 -0.0573 -0.2864 -0.1807
14670W        W34204  12.097  14.117  11.721 -0.1882  0.0936 -0.0894
14671W        W34205   6.167   7.750   4.637 -0.1465  0.2252  0.0445
14672W        W34206   7.706   9.152   0.623  0.0366 -0.2102 -0.1674
14673W        W34207  18.206   3.096   4.176  0.2546  0.2748 -0.2162
14674W        W34208   8.063   9.180  11.141  0.0399  0.2070  0.1747
14675W        W34209   2.670   9.368  11.406  0.0729 -0.2307  0.0036
14676W        W34210   1.839  10.672  12.270 -0.0432 -0.0456 -0.1403
14677W        W34211   3.320  11.480  11.846  0.2401 -0.0189  0.0050
14678W        W34212   4.919  17.935   0.419 -0.0432 -0.1298  0.2381
14679W        W34213  17.836   9.230  11.328  0.3270 -0.2143 -0.1743
14680W        W34214  14.064  14.119  10.284  0.3342  0.0286 -0.0712
14681W        W34215   6.452   0.574   1.812  0.3607  0.0625  0.0399
14682W        W34216   7.333   8.471   3.563 -0.0126 -0.1888 -0.0180
14683W        W34217   9.764   6.152  10.358  0.1903  0.1335  0.1800
14684W        W34218  18.949  16.430   3.627 -0.1105  0.2948  0.1353
14685W        W34219   7.317   4.456   2.084  0.0052 -0.1164 -0.1821
14686W        W34220  16.635   3.479  10.586 -0.2308 -0.1967 -0.1024
14687W        W34221  16.240   0.694  13.357  0.2483 -0.1859  0.1196
14688W        W34222   4.101   9.189  13.420 -0.0711  0.2043 -0.0054
14689W        W34223  16.390   8.692  14.055  0.2197  0.0231 -0.2840
14690W        W34224   4.769   4.090   1.770  0.0570 -0.1059 -0.0127
14691W        W34225  10.164   9.586   0.266  0.5035 -0.1309 -0.4127
14692W        W34226   4.132  14.716  11.968 -0.0556 -0.2976 -0.2033
14693W        W34227  19.022   3.211  11.186  0.2025  0.1384 -0.1004
14694W        W34228  13.272  13.565  12.942 -0.2161 -0.1172  0.1225
14695W        W34229   4.723  18.137   1.836 -0.1340  0.0377  0.3274
14696W        W34230   6.709  17.510  13.608 -0.1595  0.1051  0.1858
14697W        W34231  14.152   4.110  12.410 -0.0937  0.1900  0.2826
14698W        W34232   1.224   6.101   0.113 -0.2581 -0.0972 -0.2722
14699W        W34233   9.327   8.977   1.315 -0.0017  0.1799  0.4623
14700W        W34234  14.626   4.275  12.417  0.0628  0.0412 -0.0279
14701W        W34235   1.618   9.877  12.505 -0.0810 -0.1136 -0.1820
14702W        W34236   7.777   1.813  12.182  0.0119 -0.1064 -0.1229
14703W        W34237   4.812  11.541  12.973  0.0061  0.3492  0.1732
14704W        W34238  17.859   2.771   2.739  0.0955  0.0553 -0.4509
14705W        W34239  18.895  16.376   1.946  0.0974  0.0953 -0.0694
14706W        W34240   5.823  19.233   9.862  0.1635 -0.2100  0.2110
14707W        W34241  13.134  12.189  14.118  0.3095 -0.1156 -0.2694
14708W        W34242   3.063  18.424   1.938 -0.0765  0.1957  0.2474
14709W        W34243   9.651   0.499  12.342  0.0682  0.1010 -0.1934
14710W        W34244   9.361  18.302   1.581 -0.0849  0.0339 -0.1503
14711W        W34245  11.854  14.211  11.229  0.0408 -0.0806 -0.2437
14712W        W34246   9.632   1.329  10.355  0.0162 -0.1527  0.3135
14713W        W34247   9.884  12.986   1.065  0.2057 -0.0627 -0.2067
14714W        W34248  12.075  11.320  13.727  0.2625  0.1146  0.0395
14715W        W34249   3.903   2.608  12.097  0.2405  0.2122 -0.0043
14716W        W34250  15.962  12.535   0.576  0.3340 -0.3574  0.1773
14717W        W34251  16.325  16.837  12.662 -0.1661  0.1707 -0.0114
14718W        W34252  16.330   1.823   3.626  0.2233 -0.0829  0.0945
14719W        W34253  19.019  16.674  10.524 -0.0035  0.2498 -0.2066
14720W        W34254   2.940  17.975  11.667 -0.1906 -0.3613 -0.1947
14721W        W34255   9.151   4.765   4.598 -0.0668 -0.1858 -0.1537
14722W        W34256  10.311  16.425  12.766 -0.0835  0.2437 -0.1394
14723W        W34257   7.654   5.132  13.744 -0.0121  0.0770 -0.2123
14724W        W34258   6.509   1.296  13.090  0.1112  0.2082  0.1023
14725W        W34259  15.903   9.736  12.787 -0.0277 -0.1970  0.3090
14726W        W34260   3.183   9.814   4.101 -0.2919 -0.4385 -0.0564
14727W        W34261   1.665  18.643   1.765  0.2161  0.0154  0.1850
14728W        W34262  11.795   3.207   1.561 -0.1012  0.0788 -0.3440
14729W        W34263   8.368  10.073  11.747 -0.1174 -0.3318 -0.1577
14730W        W34264   9.271   0.754   3.268  0.1935  0.0778 -0.2490
14731W        W34265  17.158  12.178  12.812 -0.3527 -0.2502 -0.0665
14732W        W34266   3.467   1.261   2.281  0.0688 -0.0041 -0.0739
14733W        W34267   9.799  16.059   4.303 -0.0395  0.0298 -0.2284
14734W        W34268   4.261   8.538   4.172 -0.3806  0.2255  0.1454
14735W        W34269  11.987   7.372  11.409  0.0117 -0.4533  0.3177
14736W        W34270   1.415   7.390   1.007  0.0528 -0.2255 -0.1738
14737W        W34271   6.015   3.286  12.477 -0.1737  0.0730  0.1580
14738W        W34272  12.570  11.274   0.183 -0.0796 -0.0854 -0.0513
14739W        W34273   1.423   2.376  13.907 -0.1982  0.1795 -0.1646
14740W        W34274   9.629   2.130   9.675 -0.0598  0.0609 -0.0144
14741W        W34275  16.874  12.888   9.451  0.2911  0.1744  0.1319
14742W        W34276   3.416   9.757   1.271 -0.0932 -0.1345  0.0179
14743W        W34277   1.608  18.259   9.949  0.0513 -0.1238  0.0125
14744W        W34278  19.278   8.106  10.696  0.2344  0.1366  0.0605
14745W        W34279  16.271  14.548  10.394 -0.1153 -0.1599  0.0476
14746W        W34280   7.930   7.223   0.767  0.1092  0.0016  0.2873
14747W        W34281  14.196  11.929   1.666 -0.0198 -0.2662  0.1480
14748W        W34282   5.017   0.880   1.882 -0.0901 -0.0340  0.2643
14749W        W34283   8.071   1.100  12.292 -0.0584 -0.2027 -0.0060
14750W        W34284  12.855  11.557   1.793 -0.2514 -0.5212  0.0011
14751W        W34285   6.233  11.016  13.111 -0.2432 -0.4257 -0.3184
14752W        W34286  11.364   5.530  13.557 -0.1805  0.1262 -0.1855
14753W        W34287  18.347  19.379  12.502  0.2540 -0.1869 -0.2737
14754W        W34288  10.116   3.513  12.430  0.0730  0.1293  0.1814
14755W        W34289   8.030   3.065  10.220  0.0065 -0.2653 -0.0540
14756W        W34290   0.522   1.907   4.032  0.1789 -0.1209  0.1283
14757W        W34291   5.552  16.261   0.781 -0.0000 -0.1328  0.4229
14758W        W34292   6.346  15.820  14.152 -0.0843 -0.1416 -0.1723
14759W        W34293   5.166   6.448  11.572  0.0585  0.0013  0.0244
14760W        W34294   5.204  16.878  13.171 -0.3994 -0.1356  0.1764
14761W        W34295  18.874  12.434  10.161  0.3428 -0.0092 -0.4706
14762W        W34296   6.295  12.805  10.524  0.1978 -0.0120  0.1543
14763W        W34297  16.844   4.529   3.175 -0.0313  0.1124  0.1334
14764W        W34298   9.636   2.336  11.462 -0.0478 -0.2061 -0.1807
14765W        W34299  13.928   1.795   4.832 -0.0662  0.1016  0.0552
14766W        W34300  17.281   9.941  11.417 -0.0688 -0.1663  0.1985
14767W        W34301  15.363   5.339  10.338 -0.1784  0.2873 -0.3338
14768W        W34302   6.626   9.872   2.814 -0.0139 -0.0976 -0.1042
14769W        W34303  13.052   4.754   2.920 -0.0103  0.0776 -0.0377
14770W        W34304  16.603   8.165   2.226  0.1963 -0.0614 -0.0076
14771W        W34305  14.343   4.900   0.913 -0.4777 -0.0887  0.0463
14772W        W34306   1.916   9.423  12.535 -0.6304 -0.4601 -0.0596
14773W        W34307   4.214  12.760   1.095  0.0450 -0.0620 -0.2407
14774W        W34308  19.461  19.412  12.275  0.0047  0.2392 -0.4062
14775W        W34309   1.356  18.367   2.092 -0.0737  0.1832  0.2329
14776W        W34310   3.759  16.584   2.748 -0.1023 -0.0600 -0.0663
14777W        W34311  10.544  15.133  12.104  0.2585  0.0229  0.0855
14778W        W34312   6.667   7.737   4.521  0.1430  0.1881  0.0528
14779W        W34313   0.061   9.265  10.832 -0.2635 -0.2057 -0.0758
14780W        W34314  11.618   1.639   2.804 -0.1914  0.0762  0.1609
14781W        W34315   0.723  16.110   0.188 -0.0492  0.0745  0.0670
14782W        W34316  17.321   4.149  13.563  0.2681 -0.0714  0.1694
14783W        W34317   8.873   9.071  11.546 -0.2171 -0.1479  0.1553
14784W        W34318  18.147  15.352  10.828  0.2415  0.0753 -0.6894
14785W        W34319  13.902  14.985   0.464 -0.0367 -0.1291  0.0850
14786W        W34320   4.169  15.595  11.229  0.1431 -0.2456 -0.0803
14787W        W34321  18.509   0.312   9.527  0.2134  0.1488  0.2559
14788W        W34322  17.619  10.896   0.826  0.0660  0.0177  0.2612
14789W        W34323   7.340   8.522  12.000  0.1996  0.1436  0.0309
14790W        W34324  18.157   5.150   4.783 -0.0429  0.0194  0.0807
14791W        W34325   2.494   4.887   1.794 -0.0798 -0.4785 -0.1923
14792W        W34326  13.269   6.565  11.741 -0.1049  0.1428  0.2174
14793W        W34327   8.359   6.602  11.390  0.2965 -0.1975 -0.0065
14794W        W34328  15.302   0.048  10.710  0.0619  0.3459 -0.2933
14795W        W34329  15.332  11.467   3.381 -0.0088  0.1070 -0.0983
14796W        W34330   6.038   0.833   1.042  0.0763  0.1192  0.0055
14797W        W34331   9.349  11.066  10.916 -0.0883  0.2052  0.1955
14798W        W34332   4.205  11.232   2.599  0.1200  0.0960  0.2574
14799W        W34333   8.162   8.835   2.727 -0.0311  0.0585 -0.0349
14800W        W34334   1.078  17.137   1.790 -0.0379 -0.3714 -0.1757
14801W        W34335   6.776   6.912  13.509  0.2781 -0.1294 -0.1032
14802W        W34336  18.808  13.814  13.838 -0.1062  0.1951 -0.3054
14803W        W34337  18.327  18.120   3.126  0.2697 -0.0069 -0.2118
14804W        W34338   1.709  17.645   1.342  0.0603 -0.0877 -0.1556
14805W        W34339   2.451   8.864  11.490 -0.1715  0.1026 -0.2321
14806W        W34340  10.833  11.644  12.452  0.1333 -0.0351 -0.0677
14807W        W34341  10.427  17.852   0.149  0.1938 -0.0832  0.1894
14808W        W34342   3.314  12.682  10.442 -0.1599 -0.0548 -0.4885
14809W        W34343  17.423   2.863  12.412 -0.0454  0.1284  0.2543
14810W        W34344   3.201  14.187  10.328  0.1447  0.2093 -0.2748
14811W        W34345  12.936   9.890   2.845 -0.1417  0.1052  0.1366
14812W        W34346   3.580   5.209  10.622  0.1502 -0.3017 -0.0232
14813W        W34347   4.398   6.045   9.669 -0.0874 -0.0929  0.1425
14814W        W34348   9.895   2.729  13.359  0.1082 -0.1451  0.2223
14815W        W34349  13.024  14.185   3.302 -0.0073 -0.0585  0.2934
14816W        W34350   6.835  11.505  11.545  0.4023  0.2312  0.2621
14817W        W34351  19.127  12.482   1.337 -0.2837  0.2235  0.1013
14818W        W34352   3.425   8.136   0.377 -0.1234  0.0014 -0.0759
14819W        W34353  15.327   8.563   3.674  0.0053 -0.2556 -0.2407
14820W        W34354  10.272   3.750   1.019 -0.1571 -0.0888 -0.0543
14821W        W34355   6.282  10.093  12.511  0.0669 -0.2191  0.1660
14822W        W34356   4.702   8.255  11.668 -0.1263 -0.0411  0.2820
14823W        W34357   4.378   7.518  14.224 -0.0055 -0.2427 -0.0435
14824W        W34358   7.289  16.290   2.530  0.1149  0.0397 -0.1248
14825W        W34359  15.672  18.590   0.778  0.2568 -0.4025  0.2514
14826W        W34360   0.355   7.915  13.908  0.1418  0.0418  0.1445
14827W        W34361   0.433   5.688  11.631  0.0312  0.2930  0.0229
14828W        W34362  11.242  11.018  14.274 -0.3474  0.1678  0.0074
14829W        W34363  12.783   0.810   2.406 -0.0408 -0.1196 -0.0962
14830W        W34364   9.418  18.088   3.435 -0.1832 -0.5277 -0.0574
14831W        W34365   1.678  15.271  11.844  0.0035  0.2642 -0.0861
14832W        W34366  17.947   9.668  10.268 -0.0121  0.3027  0.0104
14833W        W34367   7.146   9.026  13.472  0.1605  0.2816 -0.1409
14834W        W34368  14.044   1.257  12.510 -0.0143 -0.0547 -0.1159
14835W        W34369   6.976  11.341   2.492 -0.3845  0.1458  0.1166
14836W        W34370  18.639  11.544  12.563  0.2663 -0.1117  0.0487
14837W        W34371  10.304   8.219   1.291 -0.0534  0.1860  0.0554
14838W        W34372   5.776  12.836   1.482 -0.3482 -0.1734  0.3102
14839W        W34373   7.149   0.397  11.858 -0.0807 -0.1991  0.1345
14840W        W34374  17.802  16.718  13.886 -0.2520 -0.3608  0.1293
14841W        W34375   8.333  14.099   3.408 -0.2370  0.1057 -0.1400
14842W        W34376  16.177   5.166   2.703  0.0231 -0.0977  0.3701
14843W        W34377  10.233  19.189  10.731  0.1613 -0.0149 -0.4007
14844W        W34378  18.216  17.963   1.848 -0.0211  0.1217 -0.1458
14845W        W34379  11.932   3.533   4.293 -0.1192 -0.1279 -0.2993
14846W        W34380  14.486  10.624   1.644 -0.0756 -0.2013  0.3043
14847W        W34381   5.065   8.601  11.617  0.0892  0.0056  0.0410
14848W        W34382  18.591   2.101   1.897  0.1262 -0.0336 -0.0916
14849W        W34383  16.810   6.568   0.017  0.1107 -0.0637  0.0840
14850W        W34384   7.449   6.094   3.332 -0.0316 -0.1605 -0.1776
14851W        W34385  14.689   5.039  11.111 -0.1331  0.3710 -0.0398
14852W        W34386   8.247  11.274   0.555  0.3436  0.1119  0.0228
14853W        W34387   1.048  16.702   4.050 -0.0358 -0.0291 -0.2845
14854W        W34388   4.996   5.635  11.282  0.1072  0.1932 -0.2110
14855W        W34389  10.411   6.855   4.258 -0.0048 -0.5187  0.0061
14856W        W34390  18.361  17.178   0.598 -0.0742  0.0022 -0.0372
14857W        W34391   6.955   3.733   1.871 -0.2158  0.3660  0.0240
14858W        W34392  18.276   0.277  11.754 -0.2937  0.2132 -0.0674
14859W        W34393   2.331  12.938   2.183  0.3205  0.0587  0.1253
14860W        W34394  16.421  17.086  13.558  0.1817 -0.0168  0.0637
14861W        W34395   2.146  10.893   3.150 -0.3010 -0.1384  0.0435
14862W        W34396   2.820  14.489  14.076 -0.1370  0.0162 -0.1620
14863W        W34397  16.312   7.818   0.561 -0.0636 -0.2546 -0.0540
14864W        W34398   1.155  12.027   3.123 -0.2059 -0.2887 -0.2206
14865W        W34399   7.725  10.109   2.603  0.1561 -0.0813 -0.2372
14866W        W34400  10.952   6.040   0.535  0.2819 -0.0708  0.1886
14867W        W34401   3.677  19.354  11.155  0.3018 -0.1260 -0.0273
14868W        W34402   4.581   7.108   0.648  0.0635  0.0074  0.1266
14869W        W34403  11.034  18.035  12.497  0.0640  0.0538  0.1052
14870W        W34404  10.203   6.727   3.288  0.0710  0.0641 -0.0420
14871W        W34405   9.863  17.484  13.952  0.2830  0.5300 -0.0772
14872W        W34406  17.037  18.893   3.815  0.1765  0.1190  0.0580
14873W        W34407   6.161   1.884  11.395  0.2182 -0.5081  0.1258
14874W        W34408  12.109  14.942  11.447  0.2612 -0.1006  0.2668
14875W        W34409  18.268  13.153   3.678 -0.0338  0.3281  0.1550
14876W        W34410  11.348  13.131  10.804 -0.0792  0.3072 -0.2807
14877W        W34411   7.461  17.958  10.765 -0.2073  0.2973 -0.1524
14878W        W34412   2.698   0.813  11.175 -0.2941 -0.1384  0.1633
14879W        W34413  18.884  17.287   0.521  0.1973 -0.0810  0.0592
14880W        W34414   3.466  10.095  11.002 -0.2034  0.1100  0.4088
14881W        W34415   0.934   6.753  11.942 -0.3640 -0.0787 -0.1643
14882W        W34416   4.396  12.682   2.982 -0.1280  0.0232  0.2987
14883W        W34417  10.688   7.449  11.790  0.0365 -0.1853  0.1380
14884W        W34418   1.251   8.255   1.993 -0.0412 -0.0006 -0.1227
14885W        W34419   5.687   9.019   2.013  0.1947  0.2339 -0.0995
14886W        W34420   8.446   4.675   2.114 -0.2190 -0.3333  0.1386
14887W        W34421  10.284  19.373   3.859 -0.1202  0.0109 -0.1946
14888W        W34422  13.076   1.788   2.660  0.2114 -0.1131 -0.2955
14889W        W34423   6.558  13.504  14.018  0.0719 -0.0265 -0.1129
14890W        W34424  17.123   6.932  11.530  0.1263 -0.2387  0.3016
14891W        W34425  14.878  16.644   1.781  0.0720  0.2710  0.0593
14892W        W34426  11.284   9.468   1.286  0.0205  0.1020 -0.0284
14893W        W34427   6.623   1.402  13.694 -0.4364 -0.1748  0.0376
14894W        W34428   3.011  19.095  12.517 -0.0918  0.4629  0.4655
14895W        W34429  17.215   6.838  10.024 -0.0332 -0.3109 -0.0382
14896W        W34430   1.178  13.412  11.158 -0.1083  0.2051 -0.0095
14897W        W34431   9.267   7.095  14.042  0.2568  0.4146 -0.5112
14898W        W34432   5.719  16.910  10.611  0.1728  0.1942  0.0152
14899W        W34433  11.475   2.414  12.692  0.0111  0.1352  0.2503
14900W        W34434   9.220   5.752  10.669 -0.0796  0.3181 -0.0620
14901W        W34435  10.592  11.962   1.836 -0.0495  0.1500  0.4265
14902W        W34436  18.034  14.628   1.770  0.1015  0.1221 -0.0079
14903W        W34437   7.750   3.461  10.317 -0.4886  0.2350 -0.0345
14904W        W34438  19.358   5.370  14.232  0.2718  0.0923 -0.2955
14905W        W34439   1.517   2.432  10.839 -0.3012 -0.1940  0.3530
14906W        W34440   5.264  15.917   1.006  0.3920 -0.0711 -0.3693
14907W        W34441  12.849   8.651  10.728  0.1324 -0.2072 -0.3021
14908W        W34442   4.625  13.926   2.201 -0.0909 -0.1750  0.2150
14909W        W34443   8.267  15.929   1.011  0.2396 -0.1779  0.1231
14910W        W34444   5.070   2.345  11.950 -0.2330 -0.0625  0.0062
14911W        W34445   1.137  10.505   3.854  0.1922  0.0893 -0.1159
14912W        W34446   7.262   8.578  12.539  0.1386  0.2236 -0.5532
14913W        W34447  13.867  16.697  10.396  0.2189 -0.1288  0.3227
14914W        W34448   8.716  11.159   1.272 -0.0738  0.0750 -0.3052
14915W        W34449   4.730   4.126   1.242 -0.0080  0.0140 -0.3922
14916W        W34450   7.475  11.003  10.425 -0.4009  0.0751 -0.0503
14917W        W34451   7.777   3.233  10.796  0.0854  0.2200  0.0982
14918W        W34452   5.015   1.741   3.063 -0.3404 -0.0900  0.0591
14919W        W34453  16.624   0.807   0.795  0.0239 -0.0159  0.2540
14920W        W34454  12.747   5.217   2.250  0.1055  0.1802 -0.3543
14921W        W34455  19.368   5.100  13.262  0.1120 -0.2416 -0.1232
14922W        W34456  11.872   6.802   1.011  0.1143 -0.0927  0.0674
14923W        W34457  13.392  16.152   2.470 -0.0518 -0.0655  0.1505
14924W        W34458   0.580   7.066   1.453  0.0905  0.0289 -0.1915
14925W        W34459   1.614   5.964   4.001 -0.1530  0.2869  0.0596
14926W        W34460   6.817  10.096  11.389  0.2365 -0.0798 -0.0783
14927W        W34461  11.240  15.784  14.059  0.3336  0.0633  0.1867
14928W        W34462   1.609   8.025   2.327  0.0517 -0.3408 -0.0664
14929W        W34463   5.736  16.682   0.336  0.1370 -0.4417 -0.1076
14930W        W34464   1.367   4.375   3.097 -0.0262 -0.0406  0.0067
14931W        W34465   8.757   2.953  12.588 -0.3767  0.0512 -0.0719
14932W        W34466   9.073  12.584  13.175 -0.1356 -0.0803 -0.1171
14933W        W34467  14.525  11.298   2.966 -0.0180 -0.2161 -0.0530
14934W        W34468  13.849   2.678   4.373  0.0563  0.3622 -0.2001
14935W        W34469  12.690   5.601   1.911 -0.1307 -0.0148 -0.0382
14936W        W34470  14.586   7.931   5.211  0.0713 -0.1592 -0.0190
14937W        W34471  15.157  12.296  10.943  0.1113  0.1876 -0.0873
14938W        W34472   5.669   6.457  11.545 -0.3461  0.0275  0.1254
14939W        W34473   8.314   6.605   0.192  0.1861  0.0111  0.1083
14940W        W34474   9.760   4.710  12.625 -0.1621  0.0914 -0.2661
14941W        W34475  13.158   3.503   2.167 -0.0514 -0.0357  0.0431
14942W        W34476  10.006   6.555  11.133 -0.0470 -0.1154  0.1380
14943W        W34477   7.792  10.334  10.968  0.1906 -0.0422  0.0249
14944W        W34478   6.558  10.564  11.662  0.1659  0.0881  0.0347
14945W        W34479  10.798   1.186  11.518  0.1609 -0.0614 -0.0948
14946W        W34480   0.978  17.284   0.288 -0.1144  0.0110 -0.1585
14947W        W34481  17.925   4.790   4.028  0.0767  0.2072  0.0029
14948W        W34482  16.224  10.301   0.811 -0.0074  0.0203 -0.0911
14949W        W34483  14.072   2.144  10.526  0.3927 -0.2237 -0.0246
14950W        W34484  12.548  13.506   0.113  0.1439 -0.0225  0.0021
14951W        W34485   6.619   6.933  11.457 -0.0069 -0.0947  0.2207
14952W        W34486  15.826  14.392  13.017 -0.1138  0.2024  0.4011
14953W        W34487  15.672   9.506  11.699  0.2175 -0.1547  0.0718
14954W        W34488   4.768   4.029   4.142 -0.3480  0.0592  0.5043
14955W        W34489   2.440  15.830  13.370  0.1546 -0.0330 -0.0665
14956W        W34490   5.322   9.709  14.161  0.1034 -0.0468  0.0590
14957W        W34491  15.767   3.834  10.456 -0.3193  0.0032 -0.3269
14958W        W34492   5.106   0.144  12.252  0.0790  0.3208  0.0599
14959W        W34493  15.163   7.746   0.095 -0.3367 -0.1006 -0.0037
14960W        W34494  16.863  14.639  11.532  0.0997 -0.1746  0.0867
14961W        W34495   9.315   7.026   4.022  0.2513 -0.0774 -0.1577
14962W        W34496   1.909   7.471  14.301 -0.1980  0.2406  0.0131
14963W        W34497  10.637  12.626  14.067  0.0824 -0.0017  0.4512
14964W        W34498  12.156   0.375   5.112 -0.3993  0.0475 -0.1034
14965W        W34499   9.747  18.596  12.543  0.0587 -0.0582  0.2623
14966W        W34500   5.945  12.757  13.203 -0.1944 -0.2874  0.1630
14967W        W34501   3.407  12.139   3.449  0.4502  0.2404  0.1961
14968W        W34502   5.107  12.359   3.267  0.0860  0.0287 -0.2807
14969W        W34503  10.996   3.326  11.157 -0.1174  0.1297  0.0519
14970W        W34504   0.679   8.839  10.708  0.2134 -0.2102  0.1374
14971W        W34505   4.985  11.902  10.294 -0.0842 -0.0758 -0.0031
14972W        W34506   1.510   5.978   2.210 -0.1468  0.0610  0.0709
14973W        W34507  10.873  14.342   2.225  0.0525  0.2773  0.1272
14974W        W34508   0.353  12.541   3.609  0.1196  0.1961  0.0988
14975W        W34509  15.405  16.885  10.840  0.0397  0.0705  0.1906
14976W        W34510   3.941   9.568   1.198 -0.0828 -0.0939 -0.3135
14977W        W34511   8.992  11.052  13.773 -0.3042  0.0941 -0.0543
14978W        W34512  18.960   1.485   0.686 -0.1798  0.4465 -0.0482
14979W        W34513  15.753   1.359  12.332  0.2066  0.0030  0.0521
14980W        W34514  13.461   5.164  10.122 -0.1160 -0.0251  0.0986
14981W        W34515   6.544   6.651   0.041  0.2127  0.0750  0.2267
14982W        W34516   7.346   3.238   3.706 -0.1583 -0.1614  0.1293
14983W        W34517   5.632   2.275  10.483 -0.0439 -0.2174  0.2100
14984W        W34518   8.478   7.798  12.052 -0.0294  0.1418  0.0465
14985W        W34519  14.843   2.922   1.355  0.1581  0.1256 -0.2087
14986W        W34520  19.106   1.466   2.846  0.0159  0.2059 -0.1165
14987W        W34521  10.141  14.159  14.105 -0.2015 -0.1096  0.0487
14988W        W34522  17.139  19.081   2.102  0.3386 -0.0204  0.0388
14989W        W34523   8.203   5.188  14.085 -0.3500 -0.0339 -0.1734
14990W        W34524  17.321   2.523  11.870  0.0586  0.0051 -0.1643
14991W        W34525   2.244   3.465  11.278  0.0927  0.0247  0.1530
14992W        W34526  16.615   1.197  11.347 -0.3236  0.0589  0.0205
14993W        W34527   9.106  18.242  11.545  0.1135 -0.0425  0.0926
14994W        W34528  10.164   6.076  12.278 -0.0946 -0.2358 -0.0162
14995W        W34529  17.330  14.543   3.395  0.0114  0.3138 -0.2231
14996W        W34530   9.943   9.585   1.245 -0.3135  0.0912 -0.1108
14997W        W34531  18.148  12.039  10.444  0.0018 -0.0393 -0.2345
14998W        W34532  18.314  15.715   0.489  0.0433 -0.2120 -0.2995
14999W        W34533  16.128  15.725   1.740  0.2134  0.2304 -0.1405
15000W        W34534  12.504   8.694   1.861  0.0969 -0.1310 -0.0834
15001W        W34535  18.001  12.086   3.697 -0.2161 -0.1996 -0.1687
15002W        W34536   5.338  15.903   1.571  0.1943  0.3390  0.3097
15003W        W34537   1.562  18.759   2.298  0.4179 -0.1677  0.0138
15004W        W34538   5.733   7.351  11.515  0.2484  0.2286 -0.0693
15005W        W34539   4.451   1.524  14.327  0.0051 -0.0924 -0.2161
15006W        W34540  13.023   0.618  11.571 -0.0852 -0.1529 -0.1967
15007W        W34541  14.258   4.225  11.909  0.1283  0.3086 -0.0585
15008W        W34542  11.123   8.046  13.945  0.3356 -0.2739  0.0163
15009W        W34543   0.328   7.931   1.408 -0.0973 -0.2600  0.0410
15010W        W34544   0.279   6.642  12.499  0.1940 -0.1122 -0.3300
15011W        W34545   8.595  13.969  11.869 -0.1560  0.2899 -0.0234
15012W        W34546   2.727  14.629  11.081 -0.1186 -0.1905 -0.2205
15013W        W34547   6.624   2.185   0.924  0.4111 -0.1365  0.0738
15014W        W34548   7.872   2.259   0.241 -0.0437  0.1442 -0.0706
15015W        W34549   9.563   2.961   4.381 -0.1192  0.1621 -0.4277
15016W        W34550   9.849  17.328   3.074  0.1663  0.3756  0.4388
15017W        W34551  13.759   2.301   3.632  0.2418 -0.1275 -0.3977
15018W        W34552   1.865  11.609   2.015 -0.1098  0.1703  0.0507
15019W        W34553  16.621   2.890  10.354 -0.1777  0.2410 -0.0757
15020W        W34554  14.319   0.793  12.496 -0.1844 -0.3960 -0.1038
15021W        W34555  17.249   5.083  12.259  0.1743 -0.4742  0.0115
15022W        W34556   9.689   9.738  11.348 -0.1742 -0.0878  0.0733
15023W        W34557   2.258   6.320   3.624  0.5593  0.1564  0.1878
15024W        W34558   7.449  12.627   2.375 -0.2459  0.0498  0.0716
15025W        W34559   8.302   4.299  11.701 -0.0976 -0.2037 -0.2716
15026W        W34560  12.735   0.489   1.903  0.0284 -0.0757  0.1325
15027W        W34561  14.397   1.999   3.971  0.0435  0.1436  0.0226
15028W        W34562  19.364   9.328  12.264 -0.0313 -0.0555  0.2341
15029W        W34563   5.196  12.011   2.928 -0.3567 -0.2163  0.2342
15030W        W34564   7.972   9.954  12.511 -0.0365 -0.5355  0.1420
15031W        W34565  11.417  15.393   0.127 -0.4270 -0.1181 -0.2475
15032W        W34566   4.082   9.727  10.439  0.3160  0.1292  0.1448
15033W        W34567  16.733   2.554  13.270  0.0814  0.2633  0.0677
15034W        W34568   5.034  16.994   0.797 -0.1069  0.2455  0.4269
15035W        W34569   1.469  13.048  12.336  0.2625  0.0275  0.0189
15036W        W34570  11.288  15.056   3.064  0.0183 -0.0750 -0.0844
15037W        W34571  10.737   2.425   1.516  0.0469  0.3920 -0.2834
15038W        W34572  14.582   3.866   0.384  0.2953 -0.0840 -0.0126
15039W        W34573   3.355   7.968  13.293 -0.0461 -0.0362 -0.3297
15040W        W34574  13.021   4.656  12.811 -0.2899 -0.0086  0.2234
15041W        W34575   6.832  11.823  13.733  0.1272 -0.0240  0.1099
15042W        W34576   4.261   4.786   1.534 -0.4374  0.0439 -0.1095
15043W        W34577   1.468   9.716   1.771 -0.1883  0.0751 -0.0061
15044W        W34578  13.926   7.312  13.685  0.3746 -0.1260 -0.0290
15045W        W34579   0.773   4.124  14.244 -0.2069 -0.0081  0.3630
15046W        W34580  10.355   7.157   2.059 -0.4472  0.0823 -0.1143
15047W        W34581   4.496   2.016  14.140  0.1007 -0.2213  0.2845
15048W        W34582   7.612  12.068   2.524  0.2561  0.1786  0.1913
15049W        W34583   3.262   4.658   0.649 -0.0685 -0.2200 -0.1451
15050W        W34584  17.882  12.247  13.611  0.3255  0.1560 -0.1109
15051W        W34585   6.249  13.831  13.508  0.2078 -0.0563  0.2745
15052W        W34586   4.022   1.449   1.949  0.0476  0.0207  0.2294
15053W        W34587   2.884  17.916   1.899 -0.0204  0.0030 -0.0434
15054W        W34588  14.425  15.512   2.187  0.0382 -0.1779  0.0684
15055W        W34589  10.305   1.215   4.885 -0.0657  0.0945 -0.0698
15056W        W34590   9.298   0.861  11.198 -0.0477 -0.1868 -0.0047
15057W        W34591  12.989  16.277   2.149 -0.2786 -0.1285  0.1334
15058W        W34592   8.173  15.671  14.091 -0.1305 -0.1713  0.1601
15059W        W34593   2.513   1.349   1.911 -0.0173  0.0847 -0.2121
15060W        W34594  16.208  17.863   0.612  0.0567 -0.0392 -0.3136
15061W        W34595   1.552   4.553  12.091 -0.2723  0.1227  0.1317
15062W        W34596   5.722   6.167   4.369 -0.2337 -0.2167 -0.0335
15063W        W34597   3.546  13.250   0.854  0.1772 -0.0051 -0.3137
15064W        W34598   1.199  16.860  10.581  0.1165  0.1678  0.0375
15065W        W34599  15.164   8.995  11.098 -0.0852  0.0668 -0.0604
15066W        W34600   6.654   8.709   2.174 -0.2533 -0.2108  0.1384
15067W        W34601  10.668  17.654  12.318 -0.2575 -0.0433 -0.1415
15068W        W34602   1.818   3.955   1.067  0.1058  0.0755 -0.0334
15069W        W34603   0.690  14.770  14.088 -0.1970  0.1810  0.4366
15070W        W34604  16.239  17.468  11.702 -0.0655 -0.1631 -0.1630
15071W        W34605  12.777  15.993   0.183  0.3137  0.1277 -0.0960
15072W        W34606   0.994  10.925  11.130  0.1758  0.1748 -0.0395
15073W        W34607   2.550  18.344   9.933  0.0695 -0.1211  0.1887
15074W        W34608  11.520   8.125   1.298  0.0803 -0.2226 -0.0829
15075W        W34609  10.284   5.217  10.594  0.5359  0.3691 -0.0130
15076W        W34610  13.565   4.905  13.229 -0.1818 -0.5332  0.0904
15077W        W34611  13.949  15.217  12.725  0.2165 -0.1690 -0.1676
15078W        W34612  12.751   9.832  12.238  0.2189  0.1626 -0.0417
15079W        W34613  16.543   8.033   3.998  0.1255 -0.0796  0.3899
15080W        W34614   7.978  12.461  12.881  0.0977  0.0353  0.1566
15081W        W34615  17.557  13.804  12.771  0.0279  0.2095 -0.2887
15082W        W34616  11.140   4.944  10.374 -0.1525 -0.1947 -0.0332
15083W        W34617   2.713   7.971   3.188 -0.0296  0.0724  0.0274
15084W        W34618   6.829  12.636   1.340 -0.0872 -0.0667  0.1905
15085W        W34619  17.452  13.765   0.145  0.1686  0.0088  0.2374
15086W        W34620   9.497   3.814   3.180 -0.1382 -0.0973 -0.2153
15087W        W34621  12.962   2.668   0.775 -0.1458  0.3115  0.1645
15088W        W34622  16.045  14.984   0.616  0.0087 -0.1266  0.2265
15089W        W34623  11.727   9.593  12.964 -0.3049  0.1964 -0.1535
15090W        W34624   0.219  12.189   9.438 -0.4268 -0.1496 -0.0894
15091W        W34625   2.285  11.524  13.769  0.1804 -0.0111 -0.0709
15092W        W34626   6.311  12.074   4.177 -0.3869 -0.2181 -0.2660
15093W        W34627   2.224   3.712   4.059 -0.1335  0.1314 -0.3033
15094W        W34628   4.946  18.468  13.742 -0.0793 -0.0905 -0.3245
15095W        W34629   4.833  17.310   0.304  0.0462 -0.0077  0.3336
15096W        W34630   5.921  11.934  10.606  0.0848 -0.2279  0.0820
15097W        W34631  18.710  18.265   4.060  0.5085 -0.0587  0.0239
15098W        W34632  11.160  14.659   2.634 -0.1549  0.0444  0.1571
15099W        W34633   6.022   9.251  11.560 -0.0878 -0.0333  0.1655
15100W        W34634   9.709  12.782  10.813  0.1623 -0.4245 -0.2003
15101W        W34635   1.960   9.858  13.934  0.2855 -0.2408 -0.1033
15102W        W34636  15.320  14.573   9.840  0.1075 -0.0872 -0.2804
15103W        W34637  17.074   1.263   4.789 -0.1569 -0.0683 -0.0802
15104W        W34638  13.387  13.089  13.035  0.1670  0.5735 -0.0232
15105W        W34639   1.064   0.249  11.692 -0.1164  0.3287  0.1406
15106W        W34640  18.080   8.754  11.330  0.0354  0.1456  0.0053
15107W        W34641  11.067   6.668  12.739 -0.2771  0.1377 -0.0099
15108W        W34642  16.329  13.355  11.214 -0.2872  0.2279 -0.0935
15109W        W34643   4.248   3.359   0.194 -0.1382 -0.2069  0.1438
15110W        W34644   2.697   2.817  10.791  0.0078  0.2329  0.1434
15111W        W34645  16.751   7.384   4.975  0.4005  0.1307  0.1821
15112W        W34646  12.547  12.867  13.780 -0.1493  0.0142  0.2590
15113W        W34647  19.414   1.884   2.833 -0.4060 -0.1546 -0.0764
15114W        W34648  15.241   2.197   4.171 -0.0900  0.0173 -0.0204
15115W        W34649   0.551  17.566   3.812  0.0233 -0.1271  0.1418
15116W        W34650  11.459   7.392   2.750  0.1224 -0.0711 -0.2972
15117W        W34651  19.285  10.808  13.396  0.2940  0.0803  0.0948
15118W        W34652  14.600   7.206   3.969 -0.0890 -0.0515  0.0908
15119W        W34653  12.414  15.855   4.308  0.0771  0.0547  0.0594
15120W        W34654  17.657   8.801  10.582  0.6099  0.4851 -0.1752
15121W        W34655  15.012   6.534   0.166 -0.0774  0.3194  0.0666
15122W        W34656  18.560  10.207  10.667 -0.2649  0.1395  0.3227
15123W        W34657  17.898  19.298  13.580  0.0105  0.0970  0.1581
15124W        W34658  17.110   8.981  10.853 -0.2521 -0.2403 -0.0481
15125W        W34659   7.253  12.853   2.814  0.1392 -0.0169  0.1038
15126W        W34660  13.772  17.401   0.502  0.1970 -0.0901 -0.2029
15127W        W34661   8.493   2.461   1.725  0.1456  0.2071 -0.1218
15128W        W34662   4.580   1.972   1.066 -0.1034 -0.0192  0.2168
15129W        W34663  13.233   4.939   1.951 -0.0363 -0.1255 -0.0982
15130W        W34664   3.318  15.137  12.369 -0.2342 -0.0929  0.0679
15131W        W34665  12.692  17.468  12.824 -0.0691  0.0480 -0.1963
15132W        W34666  10.958  10.893   2.601  0.2827 -0.0434  0.0529
15133W        W34667   3.128  12.459   3.887 -0.0491 -0.1456  0.0182
15134W        W34668   7.570  15.087  11.989 -0.3123  0.1946  0.0623
15135W        W34669   5.999   8.173   3.389 -0.0395  0.0181  0.2515
15136W        W34670   8.634   4.096   2.160 -0.1126 -0.0579  0.0942
15137W        W34671   6.688   5.107  11.285 -0.0457  0.0116  0.0110
15138W        W34672   7.096  19.359  11.741  0.3017  0.0523  0.0440
15139W        W34673   8.836   0.081  11.526  0.1701  0.1463  0.0034
15140W        W34674   9.487   2.331   1.932  0.4428 -0.2775 -0.0133
15141W        W34675  11.601   5.893  10.737 -0.1365 -0.0368  0.1216
15142W        W34676  11.577  17.007  11.502  0.1074  0.1096 -0.0380
15143W        W34677   6.398   6.894   4.137  0.4794  0.1355 -0.0185
15144W        W34678   8.866  19.048  11.309  0.0627 -0.1736  0.1820
15145W        W34679   8.909  19.293  13.042  0.0001 -0.0811 -0.0885
15146W        W34680  12.694   7.748   9.816 -0.0545  0.0633  0.3607
15147W        W34681   4.351  19.436  11.388 -0.2744 -0.2113 -0.0933
15148W        W34682  13.594   1.445   2.525  0.0626 -0.1763 -0.0324
15149W        W34683   8.076   4.860  11.728  0.2089  0.1167  0.0513
15150W        W34684  17.163  14.571   9.496  0.3892 -0.2152 -0.2087
15151W        W34685   1.474  15.165  13.280 -0.0734 -0.1753  0.3020
15152W        W34686   7.321  16.284   3.587  0.1150  0.2912 -0.0290
15153W        W34687   4.900   9.525  13.911  0.0216  0.1367 -0.0710
15154W        W34688   8.685   5.243  12.204  0.3213  0.0341  0.1052
15155W        W34689  15.663  16.981  13.329  0.3050 -0.3832  0.1810
15156W        W34690   2.748  14.087  11.843 -0.0511  0.0561  0.1471
15157W        W34691   6.034   2.179   1.843 -0.1096 -0.1830  0.1126
15158W        W34692   0.348   3.591  13.417  0.0004  0.3194  0.0473
15159W        W34693   2.830   8.092   4.148  0.2399  0.0633  0.0542
15160W        W34694  11.292   2.447  13.144 -0.0569  0.0621  0.2157
15161W        W34695   3.619   9.210  13.316  0.1272  0.2074  0.3447
15162W        W34696   1.197  16.379   9.296  0.1777 -0.1002  0.0268
15163W        W34697  14.160  15.485   0.525  0.0575  0.3584 -0.3646
15164W        W34698  13.020  13.882   9.985 -0.1607  0.0943 -0.0170
15165W        W34699  18.739   8.632   1.833  0.1446  0.1425  0.0664
15166W        W34700   2.371   4.901  11.883  0.1400  0.1093  0.0479
15167W        W34701   3.727  11.012  11.023 -0.0890 -0.1371  0.1374
15168W        W34702  10.134   7.492   1.696  0.1004 -0.2287  0.1046
15169W        W34703  16.218   3.850  10.120  0.0145 -0.1331  0.2274
15170W        W34704  11.945  17.246   0.885 -0.2157  0.3522  0.1778
15171W        W34705  15.743  17.946  11.112  0.0066  0.2527 -0.1859
15172W        W34706  12.520  13.564   3.176  0.0418  0.0472  0.1195
15173W        W34707  14.748   4.126  11.997 -0.2276  0.0438  0.0030
15174W        W34708  13.150  16.236  12.863  0.1062 -0.1256  0.0490
15175W        W34709  15.532  11.131   9.434 -0.0806 -0.1931 -0.0932
15176W        W34710   7.955   6.314   1.325  0.1638 -0.0999 -0.2500
15177W        W34711  16.694  13.996  12.532  0.1556  0.0131  0.4039
15178W        W34712   1.656   1.787   0.758 -0.0319  0.0761  0.0759
15179W        W34713  15.946  10.666   1.072 -0.0649 -0.0192 -0.2688
15180W        W34714  10.018  18.212   0.137  0.0290 -0.0925 -0.1657
15181W        W34715  17.480   9.200   1.554  0.1945 -0.0888 -0.2852
15182W        W34716  18.473   3.808   1.577  0.1542  0.0346 -0.1016
15183W        W34717  14.120   7.522  10.889  0.1758 -0.1027  0.2060
15184W        W34718   1.914   0.498  12.751  0.2589  0.2159 -0.1076
15185W        W34719  16.772   5.134  11.036  0.2576  0.4385 -0.2394
15186W        W34720  14.864  17.148   1.899  0.4335  0.0014  0.2045
15187W        W34721  15.957   0.906   3.797 -0.3243  0.0338  0.1672
15188W        W34722  15.839   7.172   2.834  0.0513 -0.4107  0.0445
15189W        W34723  18.033  18.239  13.308  0.0414  0.0411 -0.2022
15190W        W34724   5.569   7.535  10.138  0.2099 -0.2406  0.1351
15191W        W34725  11.895   7.828   3.940  0.0121  0.3209 -0.2578
15192W        W34726   7.110  18.713   2.894 -0.3481  0.0656  0.0369
15193W        W34727   7.769  18.014   2.777  0.1076  0.2120 -0.0388
15194W        W34728   7.168   0.120  13.620  0.0408  0.0254 -0.0633
15195W        W34729  12.709  16.659  13.232  0.2178  0.0199 -0.1761
15196W        W34730  10.450  10.221   2.032  0.3396 -0.2550 -0.2173
15197W        W34731   0.188  14.719  11.307 -0.0353  0.1111 -0.1075
15198W        W34732  17.075   0.683   2.287  0.5788  0.0848  0.1535
15199W        W34733   9.577  11.880   1.514  0.0378  0.0959  0.0013
15200W        W34734   4.700  12.040  12.634  0.1260 -0.1357  0.0064
15201W        W34735  16.361  16.327   3.463  0.0585  0.2148 -0.1223
15202W        W34736  10.107   9.521   3.440 -0.0529 -0.0379  0.0303
15203W        W34737   9.881  16.309  10.032  0.1077  0.1430 -0.0590
15204W        W34738   8.635  19.210  10.583  0.2207 -0.1476 -0.0579
15205W        W34739   7.702  17.127   0.763 -0.2202 -0.1503  0.1056
15206W        W34740  14.855  11.456  10.598  0.0612 -0.0864  0.1347
15207W        W34741   4.680  14.762   0.531 -0.1566 -0.0048  0.3724
15208W        W34742   9.589  11.401  14.035 -0.3081 -0.2897  0.2312
15209W        W34743  13.208   5.840   2.597 -0.0884  0.0904 -0.1714
15210W        W34744   8.748   7.249  11.955  0.1519  0.1098 -0.0597
15211W        W34745   0.625  19.035   0.649 -0.0927 -0.0736 -0.0777
15212W        W34746   8.631  17.455   2.883  0.1289 -0.0709  0.2222
15213W        W34747  11.139  13.081   2.801 -0.3393 -0.0246 -0.0776
15214W        W34748   3.585  16.888  14.303  0.2123 -0.0226 -0.0850
15215W        W34749  16.361   1.313  14.331 -0.0820  0.1826  0.0445
15216W        W34750  16.523  13.800  13.365  0.3813 -0.2714 -0.2185
15217W        W34751   7.497   3.642  13.292  0.3678  0.1773 -0.1174
15218W        W34752  19.384  13.834  10.783 -0.3426  0.1823 -0.2266
15219W        W34753   4.261  16.770   0.914 -0.1173  0.0558  0.1553
15220W        W34754  15.196   1.746  11.195  0.2048  0.0300  0.4651
15221W        W34755   3.663   3.334  12.697 -0.1714 -0.1891 -0.1697
15222W        W34756   8.191  10.796   2.074 -0.2407 -0.0802 -0.3639
15223W        W34757   7.858   8.697  13.010  0.2170 -0.0919 -0.1213
15224W        W34758   3.300   7.855   0.785 -0.2066 -0.1742  0.2363
15225W        W34759  13.335   6.548   1.305  0.2584 -0.1326 -0.2775
15226W        W34760   9.271   6.423   2.400  0.3359  0.2871  0.3174
15227W        W34761  13.906  15.708  12.840  0.2851  0.0721 -0.1286
15228W        W34762  17.906  10.522   0.618 -0.2315  0.3216 -0.0522
15229W        W34763  14.210  12.520  12.429 -0.1859  0.0845 -0.1009
15230W        W34764   0.168   9.658   0.876 -0.1993  0.1923  0.0412
15231W        W34765  17.968  12.607   2.513  0.0002  0.0577  0.2360
15232W        W34766  12.848   7.920   3.871  0.0264 -0.0939 -0.1756
15233W        W34767   2.147  10.929   1.010  0.1377  0.3027  0.1480
15234W        W34768  18.535   9.014  11.317  0.1957  0.0311  0.4322
15235W        W34769   9.937  18.562  13.409  0.2727  0.1805  0.4325
15236W        W34770   1.301   8.700   3.733  0.1829  0.1300  0.0632
15237W        W34771  12.764   5.191  14.105 -0.0527  0.0037  0.1030
15238W        W34772   6.951  14.454   3.695 -0.0338 -0.0210 -0.3284
15239W        W34773   5.032  11.909  11.542 -0.1722 -0.2435  0.0399
15240W        W34774   5.623  14.696   3.314 -0.3579  0.0674  0.0703
15241W        W34775  13.241  19.371  11.346 -0.0386  0.3384 -0.0048
15242W        W34776  13.714   1.336  13.951  0.1195  0.0912 -0.0112
15243W        W34777  17.768   3.338   0.666  0.0173  0.1895  0.0045
15244W        W34778  18.293   2.354  11.666 -0.0118 -0.0363  0.1366
15245W        W34779   3.944  18.654  12.603  0.1706  0.0971  0.0777
15246W        W34780  19.282   6.273   0.861 -0.0726 -0.1775  0.0684
15247W        W34781   4.338   7.996  12.454 -0.1756  0.2001 -0.3524
15248W        W34782   1.510   5.412  13.950 -0.0717 -0.0778  0.1305
15249W        W34783   2.157   0.071  13.301  0.0326 -0.2032  0.0071
15250W        W34784   4.781   8.940   0.859  0.1522  0.0603  0.0228
15251W        W34785   6.974  10.176   0.940  0.4328  0.2653 -0.1712
15252W        W34786  13.565   9.691   2.882 -0.0623 -0.2380  0.0872
15253W        W34787  17.049   4.857  13.746  0.0940 -0.0216 -0.1518
15254W        W34788   0.281  15.568   0.923  0.1410  0.0554  0.1450
15255W        W34789  16.264   4.526   3.944  0.1890  0.2134 -0.0883
15256W        W34790   6.624  19.437   3.170  0.1154  0.0067  0.1084
15257W        W34791  11.400   9.067   3.497 -0.4122 -0.1678 -0.3522
15258W        W34792  13.285  11.666  12.639  0.4074  0.1312 -0.4080
15259W        W34793   7.507  18.657   2.557  0.6347 -0.2538 -0.2065
15260W        W34794   0.818  14.691   0.895  0.0828 -0.0960 -0.1662
15261W        W34795   5.001   2.769  11.351  0.2880 -0.0349  0.1851
15262W        W34796   6.394   8.788   1.728  0.2255 -0.0582  0.1011
15263W        W34797  16.842   8.451  11.029 -0.1229  0.1330 -0.1848
15264W        W34798   8.619  10.862   0.423  0.1582 -0.3130  0.3088
15265W        W34799   7.927  12.748   4.158  0.0790  0.1189 -0.0886
15266W        W34800   3.306  18.147  13.739 -0.0506 -0.0826 -0.1706
15267W        W34801   2.716   2.197  11.339 -0.0517 -0.0394  0.3694
15268W        W34802  10.434  14.220  10.987  0.0337  0.0837  0.2307
15269W        W34803   4.536   8.094  10.828 -0.2282  0.1015 -0.4211
15270W        W34804  12.675   0.329   1.099 -0.0565 -0.0250 -0.0149
15271W        W34805  14.848   7.795  13.404 -0.1914 -0.0574  0.1721
15272W        W34806   8.309  11.600  13.413  0.2371  0.1240 -0.1777
15273W        W34807  13.839  16.598  13.228  0.3947 -0.3453 -0.2519
15274W        W34808  16.798  10.215   4.895  0.0502 -0.0932 -0.3327
15275W        W34809   8.793   0.076  12.698  0.0029 -0.1925  0.1215
15276W        W34810   2.004   2.253   0.839 -0.1692 -0.0778 -0.2428
15277W        W34811   1.623  13.917  13.050  0.0089  0.2728 -0.2176
15278W        W34812  11.295  14.645   8.899 -0.3120  0.0901 -0.3161
15279W        W34813   0.093   2.098   3.893 -0.0304 -0.0736  0.0089
15280W        W34814  13.491   6.137   0.900  0.3258  0.1023 -0.4372
15281W        W34815   3.301  13.023   1.306  0.0508  0.0089  0.0490
15282W        W34816  14.903  19.158  10.388 -0.2095  0.0121  0.1235
15283W        W34817  16.077  11.680  10.273 -0.0713  0.2010  0.0751
15284W        W34818   3.896  14.439  11.640 -0.4294 -0.0329 -0.0287
15285W        W34819  13.942   7.254   1.581  0.3010 -0.2999  0.0663
15286W        W34820   7.634   7.516  11.680 -0.0347  0.3386 -0.1594
15287W        W34821  13.755  17.391  11.658 -0.0736  0.2029 -0.1412
15288W        W34822  14.454  15.364   1.314  0.0322 -0.3935 -0.0511
15289W        W34823  16.697   6.062  11.333  0.1398  0.1267 -0.0599
15290W        W34824   9.768  17.523   4.168 -0.3060  0.0463 -0.1249
15291W        W34825  14.646  11.939  10.837  0.0334  0.6773  0.2400
15292W        W34826   2.856  15.686  12.781  0.0679 -0.1109 -0.0199
15293W        W34827  10.502  16.180   1.143  0.1851  0.1971  0.1365
15294W        W34828   0.608   5.091  13.926  0.1209 -0.0287 -0.0250
15295W        W34829   4.652  10.268   1.093 -0.0064  0.1499  0.0812
15296W        W34830   1.823   2.247   4.114  0.1112 -0.2772  0.0607
15297W        W34831   9.214   5.094   1.338 -0.0014 -0.0086 -0.0914
15298W        W34832   3.709   0.629   1.446  0.2283 -0.2157 -0.0914
15299W        W34833  14.964   8.190   3.938 -0.1777 -0.1619 -0.5479
15300W        W34834   5.064  19.327  13.987 -0.1123 -0.1912 -0.1204
15301W        W34835   0.690  10.033  11.028 -0.1098  0.0941  0.1412
15302W        W34836   0.913   1.044   1.446 -0.0353  0.0921 -0.3059
15303W        W34837   1.549   6.677  14.068 -0.2530 -0.2102  0.0574
15304W        W34838  17.023   2.142  10.936 -0.2193  0.1034 -0.3938
15305W        W34839  10.355   1.328  11.694  0.2831  0.0468 -0.1262
15306W        W34840   1.293  16.324   1.897  0.1103 -0.3972  0.0780
15307W        W34841  16.568  11.034  13.003  0.0339 -0.0145  0.4279
15308W        W34842  14.925   3.983   3.389 -0.1446 -0.0462  0.2915
15309W        W34843  13.957  17.268  10.601 -0.1523 -0.2350 -0.3241
15310W        W34844   3.154  12.065  13.836  0.0463  0.1747 -0.1539
15311W        W34845  13.370   8.518   2.299  0.2440 -0.1659 -0.0858
15312W        W34846   8.537  15.353  13.201 -0.2866  0.1444  0.0168
15313W        W34847   8.027   2.336   3.875  0.1011 -0.0083  0.0261
15314W        W34848   8.133  14.715  11.029  0.1174 -0.1261  0.2090
15315W        W34849   5.286  13.420   3.949 -0.1380 -0.1379 -0.0898
15316W        W34850   7.468  14.347   2.164  0.0451  0.0595 -0.0595
15317W        W34851  12.703   4.199  11.694  0.0316  0.2978 -0.0995
15318W        W34852  17.827   2.366   0.928  0.1889 -0.2038 -0.2342
15319W        W34853  16.474  13.662  10.883  0.2256  0.1690 -0.3093
15320W        W34854  10.342  15.286   2.171 -0.1207 -0.2878 -0.0454
15321W        W34855  10.456  18.655  11.399 -0.0024 -0.2487 -0.1104
15322W        W34856   2.588  17.139   1.047  0.0053  0.3169  0.1381
15323W        W34857  18.201  10.009   2.247  0.2190  0.0918  0.3657
15324W        W34858   0.934  16.913   4.458 -0.0489 -0.2054 -0.2794
15325W        W34859  13.480  13.675  11.941  0.3164 -0.0977  0.1354
15326W        W34860  17.934   3.434  13.688  0.0224 -0.0218  0.0561
15327W        W34861   3.527   8.849   1.418 -0.1648 -0.0537  0.1402
15328W        W34862   6.712  18.096   1.248 -0.1229  0.0128  0.2814
15329W        W34863  10.187   3.517   1.498  0.0835 -0.0996 -0.2956
15330W        W34864   7.356   6.574   2.098 -0.1266 -0.4036 -0.4371
15331W        W34865  14.217  19.097  10.715 -0.0541 -0.2159  0.0712
15332W        W34866  10.794   5.685   3.607  0.1865  0.0286  0.0346
15333W        W34867  12.506  18.051  13.900 -0.0923 -0.2472 -0.1731
15334W        W34868   7.435   4.484   1.324  0.1631  0.1398  0.3012
15335W        W34869  16.132   8.041   1.509 -0.0337  0.0767 -0.0111
15336W        W34870  10.237  12.686  13.848 -0.0045  0.2330  0.1301
15337W        W34871  12.271  10.601  11.178  0.1044  0.0688  0.2291
15338W        W34872   9.760  16.247   2.350  0.0450 -0.0239 -0.1217
15339W        W34873  16.272  12.121   2.232 -0.3182 -0.0857  0.1540
15340W        W34874  18.819   7.090  11.872  0.0189 -0.2123  0.1462
15341W        W34875   0.250   1.935   1.112  0.1861  0.1425 -0.0676
15342W        W34876  11.724  15.784  12.437 -0.0379 -0.2326 -0.0749
15343W        W34877   4.010  16.091  13.376  0.0421 -0.0213  0.1005
15344W        W34878   3.283   0.250   3.699 -0.0357  0.3274  0.3618
15345W        W34879   3.130   7.580  13.204 -0.2413  0.0736  0.0000
15346W        W34880   4.115   8.767  12.150  0.1642  0.2419  0.0018
15347W        W34881  12.875   3.068   4.990  0.1559  0.2245  0.0491
15348W        W34882   4.286   4.734  11.723  0.0227  0.1974  0.0596
15349W        W34883  17.259   9.571   3.270  0.0113  0.0276  0.0963
15350W        W34884  14.753  13.568   4.202 -0.1270  0.1996 -0.2955
15351W        W34885  18.588   4.655  11.799  0.2436  0.0923 -0.1180
15352W        W34886   1.410   0.500   2.604 -0.2298  0.1828 -0.1720
15353W        W34887  14.052   3.880   0.357  0.1961 -0.0196 -0.0139
15354W        W34888  17.355   5.868   1.084  0.4091 -0.1461 -0.0150
15355W        W34889  14.775  11.167  14.056 -0.0440  0.1620  0.2210
15356W        W34890  18.055  14.396   9.767 -0.3161 -0.2578  0.0485
15357W        W34891   4.452   6.485  12.288 -0.1890  0.1260 -0.2553
15358W        W34892   4.927   5.864   2.314 -0.1632  0.1270  0.1631
15359W        W34893   0.433  13.368   2.431 -0.1726  0.3745 -0.5956
15360W        W34894   5.505  14.235   2.576 -0.0676  0.1026 -0.1071
15361W        W34895   9.560   3.298  12.895 -0.0015  0.0916 -0.2098
15362W        W34896   0.743  15.416   9.326  0.0432  0.0248  0.1466
15363W        W34897  15.761   7.634   2.630  0.3972 -0.1617  0.3653
15364W        W34898   8.215  13.795  10.849  0.1067 -0.1573  0.2245
15365W        W34899  14.357  11.469  13.883  0.0752  0.2682  0.0935
15366W        W34900  16.324  19.479  11.060  0.0835  0.0014 -0.0779
15367W        W34901  16.634   7.268   3.719  0.0567 -0.0636  0.3559
15368W        W34902  18.460   3.390  13.706  0.3735 -0.3246  0.1149
15369W        W34903   4.728   3.000  11.806 -0.1519 -0.1029 -0.1223
15370W        W34904  13.903   2.332  12.629 -0.2574 -0.1678  0.0454
15371W        W34905  14.416   3.607  12.417  0.1364  0.3544 -0.0178
15372W        W34906  18.794  11.992   5.046  0.0737 -0.0303 -0.1407
15373W        W34907   8.646   5.646  10.185 -0.0092  0.0497  0.0617
15374W        W34908  16.320   1.946   9.383  0.0003 -0.2829  0.0872
15375W        W34909  15.390  17.494  12.045  0.2008 -0.0077  0.1539
15376W        W34910   2.451  18.885   3.547 -0.2860 -0.1128 -0.2729
15377W        W34911  12.020  16.081  10.675  0.0444 -0.0163 -0.0082
15378W        W34912  17.955   9.740   0.132  0.0170 -0.2933  0.1378
15379W        W34913   3.578  15.097  11.106  0.3275 -0.0025 -0.1681
15380W        W34914  12.709  18.713   3.081 -0.1983 -0.0510  0.0552
15381W        W34915  15.249   1.311  13.926  0.1310 -0.2268 -0.0826
15382W        W34916  18.179  17.121   2.563  0.1787 -0.0264 -0.0944
15383W        W34917   1.965   7.549   1.772  0.2144 -0.1778  0.1688
15384W        W34918   4.206   0.962  13.773  0.1951  0.1308  0.1992
15385W        W34919  15.751  17.169  12.525  0.0902 -0.1493 -0.1809
15386W        W34920  13.889  13.910   3.438 -0.0584  0.1221  0.1632
15387W        W34921   5.776  15.219  11.851 -0.1795 -0.3360  0.1148
15388W        W34922   9.427   9.353   1.642  0.1688  0.1072 -0.1035
15389W        W34923  17.107  10.629  13.314 -0.1883 -0.0194 -0.3237
15390W        W34924   7.641  18.730  11.222 -0.0098  0.1099 -0.2193
15391W        W34925  11.439  13.371   0.841 -0.2389  0.0118 -0.0427
15392W        W34926  12.492   6.500   1.708 -0.1380 -0.1672 -0.0153
15393W        W34927   5.185   6.121   3.071  0.2307 -0.0608  0.0077
15394W        W34928   3.110  13.287   1.862 -0.2452 -0.2152 -0.1189
15395W        W34929  15.076  18.864   0.703 -0.2905 -0.2370  0.0316
15396W        W34930   0.566   5.636   0.674  0.0257  0.0498 -0.4904
15397W        W34931  14.302  19.306   0.479  0.0547 -0.0359  0.3419
15398W        W34932  15.465   4.163   0.288  0.0193  0.3100  0.3360
15399W        W34933   5.970   6.902  11.425 -0.2339 -0.1243  0.0640
15400W        W34934  15.511  19.348   2.657  0.3458 -0.1061 -0.0262
15401W        W34935  17.150   0.801  13.722 -0.1433  0.1032  0.1780
15402W        W34936   8.369  11.943  11.495  0.0680  0.0578  0.0083
15403W        W34937  15.181   7.112   2.357 -0.1564 -0.0222  0.0476
15404W        W34938   4.738  11.043   1.803  0.0283  0.0926 -0.2038
15405W        W34939   3.089   1.450  11.697 -0.2613  0.2777 -0.2452
15406W        W34940   7.079   3.028  10.836  0.0537  0.1782 -0.0723
15407W        W34941  17.196  10.700   1.053  0.0229  0.1901 -0.0376
15408W        W34942  19.055  16.772   1.549  0.1019  0.2068  0.0177
15409W        W34943  18.045   6.012   1.716  0.1896 -0.0932 -0.1899
15410W        W34944   5.227  18.078  13.480 -0.1693  0.1914  0.1960
15411W        W34945   3.616  11.308  11.382 -0.1900 -0.0508 -0.3202
15412W        W34946  12.729  19.469   9.724 -0.2688  0.2830 -0.1408
15413W        W34947   1.607   8.744   0.007 -0.0735  0.3130 -0.3408
15414W        W34948   0.361  13.956   0.821 -0.2148  0.0688  0.1344
15415W        W34949   6.150  18.281  13.036  0.4358  0.0794  0.0637
15416W        W34950  13.694  12.610  11.732 -0.0797  0.0809  0.1685
15417W        W34951   5.463   8.518  11.064 -0.1354  0.0095  0.0339
15418W        W34952  15.962  15.026  12.431  0.0026  0.2516 -0.1707
15419W        W34953   0.577   7.329   0.506 -0.0610  0.2984  0.0201
15420W        W34954   9.549  15.904  11.488  0.2441 -0.0568 -0.0442
15421W        W34955  17.651   7.707  12.890  0.1353 -0.0764 -0.1198
15422W        W34956  14.763  13.939  11.761  0.4320 -0.0417 -0.0206
15423W        W34957  13.602   2.156   1.953 -0.2645  0.0855 -0.0297
15424W        W34958   8.997  18.128  13.707  0.1985 -0.1901 -0.1930
15425W        W34959  18.676  14.438   0.173 -0.1396  0.0924  0.1341
15426W        W34960   6.768  18.859   3.191 -0.1282  0.0861  0.0826
15427W        W34961  11.843   8.287  11.504 -0.3059  0.0616  0.3400
15428W        W34962  11.198   8.363   2.332  0.1822  0.1309  0.0211
15429W        W34963   2.224  12.506  13.963 -0.2134 -0.0989  0.2744
15430W        W34964  10.682  17.137   2.184 -0.1637 -0.0148 -0.2160
15431W        W34965  15.022  12.846   2.581  0.0437 -0.4034 -0.0561
15432W        W34966   6.384   4.113  12.425  0.1779 -0.1079 -0.2544
15433W        W34967   7.902  16.531  13.161 -0.2260  0.2230 -0.0513
15434W        W34968   1.159   3.513   4.139  0.2526  0.1767  0.2207
15435W        W34969   5.502  16.936   1.984 -0.0309  0.4232  0.1332
15436W        W34970   1.643  13.990  10.319 -0.3056 -0.0223 -0.3400
15437W        W34971   4.006   7.363   0.339 -0.2687  0.2904 -0.0528
15438W        W34972   8.587  12.482   2.311  0.1068  0.2705  0.2465
15439W        W34973  17.814   2.856   3.499 -0.1690  0.1278  0.0757
15440W        W34974   5.760   8.733  10.659 -0.0581  0.3322  0.0423
15441W        W34975   9.468  19.000   2.191  0.2359  0.0536 -0.4514
15442W        W34976  16.126  17.982   4.494  0.2173  0.1447  0.0870
15443W        W34977   3.931   3.820   9.463 -0.0869  0.0429 -0.0885
15444W        W34978  11.699   4.629  13.505 -0.1719 -0.3075 -0.0932
15445W        W34979  14.101   6.672  11.339 -0.0108  0.1245  0.2768
15446W        W34980  10.175   6.966   1.593 -0.2061  0.0500 -0.0569
15447W        W34981  11.640  15.096  11.277 -0.0727  0.0900  0.4294
15448W        W34982  10.478  16.843  13.882  0.2157 -0.2972  0.0147
15449W        W34983   8.551   8.785  10.420 -0.0186 -0.0941 -0.2457
15450W        W34984   5.525   7.261   0.726  0.0081  0.2026  0.1337
15451W        W34985  13.740  14.689   3.756  0.1838 -0.3146 -0.0041
15452W        W34986   7.672   7.797  12.641  0.2168  0.1342  0.0975
15453W        W34987  13.362   4.109  13.698  0.2405 -0.1517  0.0622
15454W        W34988   7.099   5.213  11.061  0.0273 -0.1816  0.2795
15455W        W34989  18.993   3.903   1.099  0.0584 -0.1226  0.2325
15456W        W34990   0.593  14.878   2.884 -0.1021 -0.3490  0.2134
15457W        W34991   4.616   2.123  10.732 -0.0522 -0.1795  0.0255
15458W        W34992   9.247  12.388  14.322 -0.0125  0.0233 -0.1299
15459W        W34993   5.431   7.472   3.714  0.2342 -0.3396 -0.1514
15460W        W34994  12.210  13.488   1.526 -0.1061 -0.1183 -0.0556
15461W        W34995   8.145  17.428   3.518  0.5159 -0.3775  0.1244
15462W        W34996  18.054  14.751  11.463 -0.2231 -0.3283 -0.0631
15463W        W34997  13.280  12.686  11.439  0.0412 -0.1362  0.3780
15464W        W34998  12.664  16.214   4.041 -0.0949 -0.0012 -0.1642
15465W        W34999  12.153  15.817  10.206  0.1395  0.3457 -0.2556
15466W        W35000   7.177   9.336  11.666  0.3587  0.2232  0.0073
15467W        W35001   9.759   9.207   3.204 -0.0693  0.0892  0.1509
15468W        W35002  10.686   9.202  11.995  0.1734 -0.2225  0.1653
15469W        W35003   0.726  15.407   4.036 -0.0014  0.0053  0.0569
15470W        W35004   0.774   1.897   3.129 -0.0278  0.1816  0.0749
15471W        W35005  18.516   5.717   2.564  0.0458  0.1582 -0.2979
15472W        W35006  16.264  18.738   9.166 -0.2501 -0.2013  0.1305
15473W        W35007   8.275   9.026   1.298  0.0186  0.0623  0.0148
15474W        W35008   7.812  11.089   9.956  0.0730  0.0017  0.0629
15475W        W35009  17.248   7.177  13.426 -0.0448  0.2907 -0.1467
15476W        W35010  14.226  16.323  13.517  0.1010  0.2770 -0.0154
15477W        W35011  15.037  19.130   2.552  0.2123  0.3330 -0.2540
15478W        W35012  17.585   3.259  11.214  0.2035 -0.3072 -0.1288
15479W        W35013  11.169  14.171   0.155  0.2536 -0.0799  0.0321
15480W        W35014   8.400   1.460  13.516  0.0915  0.0441  0.1113
15481W        W35015  15.246   5.471   2.848 -0.1258 -0.0405  0.1104
15482W        W35016  13.695   5.297  12.533 -0.0887 -0.3984 -0.0828
15483W        W35017   4.493   9.538   2.046 -0.3977 -0.4247  0.2939
15484W        W35018  13.045   9.920  10.739 -0.1836  0.1000  0.0515
15485W        W35019   5.109  12.333  10.794 -0.0018 -0.2120  0.0542
15486W        W35020  19.436  15.239   1.880 -0.0711 -0.0791  0.1098
15487W        W35021   9.403   7.705   3.464 -0.0823 -0.0518 -0.3808
15488W        W35022   8.376  14.214  11.382 -0.1082 -0.0604 -0.2258
15489W        W35023   8.998   4.600   3.667 -0.0613  0.1323 -0.0891
15490W        W35024  14.044   2.226  11.880 -0.0538  0.3647 -0.0109
15491W        W35025   6.074  17.660   3.982  0.2203 -0.2160 -0.3451
15492W        W35026  12.379  13.342  10.586 -0.1391  0.0999 -0.1831
15493W        W35027  11.818   4.572  12.644 -0.1142  0.1701 -0.0586
15494W        W35028   9.490  15.882   0.784  0.3520  0.0126  0.0070
15495W        W35029   4.601   5.505   0.071 -0.0088 -0.0298 -0.2890
15496W        W35030  18.125  11.654  11.738  0.4418  0.1426  0.2278
15497W        W35031   0.765  13.704   2.954  0.0903 -0.4885 -0.0624
15498W        W35032   4.764   4.313   3.693 -0.1778 -0.1471 -0.2345
15499W        W35033  10.555  18.447   3.487 -0.0968  0.0788  0.0884
15500W        W35034  14.690   1.311   2.678  0.0323  0.0413  0.0274
15501W        W35035   7.038   4.077  13.117 -0.3437 -0.2756 -0.1838
15502W        W35036  17.721  18.528  11.950  0.1379  0.0172  0.0435
15503W        W35037  19.492   7.920  11.152  0.3443  0.3667 -0.3412
15504W        W35038   9.037   9.103  13.788  0.0637  0.2521  0.1863
15505W        W35039  13.735  18.178  12.745  0.0240  0.0583 -0.3705
15506W        W35040   6.846   6.537   3.528 -0.3481  0.1050 -0.0565
15507W        W35041   5.556   2.977   2.849  0.0030 -0.0450 -0.2170
15508W        W35042   4.238   4.791  12.266 -0.0652 -0.2308  0.0038
15509W        W35043   7.659   9.666   2.256  0.3090  0.1324 -0.0830
15510W        W35044  14.580  18.541  11.860  0.0469  0.0326 -0.2254
15511W        W35045   6.044  14.391   3.111  0.1942 -0.0857 -0.0969
15512W        W35046  11.279   7.501   3.197  0.2468 -0.0082  0.0382
15513W        W35047   3.129  17.556   4.957 -0.2081 -0.0288  0.2102
15514W        W35048   3.755   1.082  11.526 -0.0949 -0.0216 -0.1900
15515W        W35049   0.066  17.223  12.312  0.0718  0.2077  0.1371
15516W        W35050   5.015  18.678  11.780 -0.0170  0.3073  0.2247
15517W        W35051   7.556   3.748  10.779 -0.2628 -0.1440 -0.3111
15518W        W35052  14.054  12.246  13.895  0.1279 -0.1311  0.1590
15519W        W35053   4.473  16.680  11.962 -0.2608  0.1197  0.2354
15520W        W35054   6.991   9.364   3.622  0.2929 -0.3878  0.0427
15521W        W35055  12.538   2.624  12.897 -0.3382  0.0127 -0.0803
15522W        W35056   3.112   3.270   3.515 -0.1108  0.0870  0.1577
15523W        W35057  12.474   3.797   1.750  0.0278  0.1039  0.1810
15524W        W35058   0.408  13.152  10.895 -0.0192 -0.0874 -0.3375
15525W        W35059  14.795   3.059   4.048 -0.0120  0.0562 -0.2121
15526W        W35060   5.229   9.161  13.029  0.1379 -0.2565  0.0034
15527W        W35061   2.993  16.473   9.533 -0.2175 -0.4167 -0.2623
15528W        W35062  15.677  17.990  11.976 -0.0997  0.0618 -0.2697
15529W        W35063   0.121  13.336   0.209 -0.0729  0.1558  0.2367
15530W        W35064   3.199  14.328   1.986  0.0518  0.1190 -0.1027
15531W        W35065  17.223  17.033   1.603  0.1436  0.0481 -0.1941
15532W        W35066  11.514   2.700   3.236 -0.2421 -0.2688 -0.1594
15533W        W35067   2.303  15.300  13.470 -0.2276  0.0546 -0.0830
15534W        W35068   8.176   4.118   9.992 -0.0327 -0.2244  0.1827
15535W        W35069   2.881   2.188   1.410  0.1813  0.2884 -0.2150
15536W        W35070  16.529   9.260   4.887  0.3452 -0.2545 -0.1752
15537W        W35071   9.691  16.720   3.002  0.0706  0.0143 -0.0040
15538W        W35072  19.192  10.889  12.774 -0.3763  0.0061  0.1645
15539W        W35073  14.290   2.860   2.467 -0.0585  0.1288 -0.1013
15540W        W35074  10.195  17.577  11.258 -0.0945 -0.0406  0.1120
15541W        W35075   2.983  17.645   3.699  0.1187 -0.0199 -0.1707
15542W        W35076  18.992   1.802   3.210  0.2633 -0.0641 -0.2411
15543W        W35077  18.328   7.379  13.444 -0.3650 -0.2704 -0.0268
15544W        W35078  17.469  16.227  11.346 -0.0171  0.0118  0.1046
15545W        W35079  15.336   4.897  10.658 -0.1597  0.0897  0.2162
15546W        W35080   5.001  10.120  14.111  0.0018 -0.1330  0.0018
15547W        W35081  17.765   7.295  12.609  0.3409 -0.5148 -0.2098
15548W        W35082  13.900  16.900  11.526 -0.0195  0.0058 -0.1938
15549W        W35083  16.568   5.841  13.396 -0.0755  0.0720 -0.2852
15550W        W35084  10.246  18.753  13.728 -0.0063  0.1402  0.1441
15551W        W35085   9.703   9.541  11.824  0.0668 -0.2476 -0.1259
15552W        W35086   5.788  16.720   1.584  0.1838  0.0547  0.0890
15553W        W35087   5.301  13.153   1.392  0.2241 -0.2697  0.1964
15554W        W35088   2.393  11.020   1.435  0.0189 -0.1527  0.0386
15555W        W35089   5.559  15.596   4.565 -0.1080  0.0469 -0.2541
15556W        W35090   7.749  18.048   1.939 -0.1183 -0.0254 -0.0441
15557W        W35091  15.683   1.025  13.721 -0.0143  0.2564  0.0117
15558W        W35092  17.532  11.001   1.423 -0.2950 -0.2826  0.4841
15559W        W35093   8.722   6.378   3.067 -0.0885  0.0051 -0.1363
15560W        W35094  10.449   9.667  12.896  0.0646 -0.2484 -0.0544
15561W        W35095   7.167  16.254   9.584  0.4417 -0.0161  0.0428
15562W        W35096  16.005  18.644   2.516  0.0451  0.0826 -0.0177
15563W        W35097   4.204  18.809   1.126  0.0412  0.0525  0.1780
15564W        W35098  14.564   4.578  13.606 -0.1875 -0.0978 -0.0529
15565W        W35099   3.076  16.649  10.446 -0.2784 -0.0296 -0.4009
15566W        W35100   5.913  13.028  10.884  0.1026 -0.0671 -0.0432
15567W        W35101   4.651   8.794  11.837 -0.1565 -0.0437  0.1342
15568W        W35102  11.174   1.891   1.631  0.4043 -0.0734  0.0220
15569W        W35103  15.087  14.775  13.374  0.1314  0.1609  0.0141
15570W        W35104  12.410  12.577   0.127  0.0783 -0.1290  0.1584
15571W        W35105   5.310   3.123  13.596 -0.1623 -0.1532  0.1523
15572W        W35106  16.194  16.036  13.098  0.2191  0.0704  0.2293
15573W        W35107   5.771   7.264  13.434  0.1575  0.1594 -0.3141
15574W        W35108  17.759  14.906  10.567  0.0540  0.3503  0.1662
15575W        W35109   9.830  16.868   3.966 -0.2293 -0.0299  0.0773
15576W        W35110   0.103  16.737  13.859  0.1588  0.1221  0.0191
15577W        W35111   6.522  13.304  13.171 -0.3869  0.1806 -0.3775
15578W        W35112  14.200  10.955  13.890  0.0275 -0.1724  0.1994
15579W        W35113   6.257   7.564   2.687 -0.1030 -0.1333 -0.1098
15580W        W35114  11.311   5.256   2.435 -0.1140 -0.0236  0.0126
15581W        W35115  13.556   9.928   0.930 -0.1568 -0.0529 -0.2363
15582W        W35116  12.610   6.287  14.321  0.0392  0.0217 -0.2176
15583W        W35117  16.402  12.176  11.961 -0.0870 -0.1779  0.1527
15584W        W35118  12.804   0.243   2.887  0.1833 -0.1002  0.1141
15585W        W35119  11.358   6.247  12.875 -0.3137 -0.1364  0.0322
15586W        W35120  10.660  10.346   4.025 -0.0878 -0.1168 -0.4008
15587W        W35121   7.385   0.752   3.210 -0.1653  0.2372 -0.3151
15588W        W35122  18.084   8.952  12.233 -0.1572 -0.0761 -0.1283
15589W        W35123  10.556   4.281  12.534  0.0900  0.0308  0.0882
15590W        W35124   9.816  18.370  10.881  0.2618  0.3598  0.0707
15591W        W35125  16.721  12.066   1.524 -0.2621  0.1407  0.1692
15592W        W35126   0.393   2.308   1.997 -0.0852 -0.2147 -0.1302
15593W        W35127   9.055   2.941  11.781  0.1552 -0.1167 -0.3582
15594W        W35128  16.079  13.230   1.123 -0.0785  0.1537 -0.3016
15595W        W35129  16.020  18.020  13.456 -0.0700 -0.0976  0.0221
15596W        W35130  16.130  16.396  10.388  0.1153 -0.0840 -0.2065
15597W        W35131  10.535  12.520  12.057 -0.0414  0.2359 -0.0155
15598W        W35132  14.222   0.127  11.615  0.0721 -0.0596  0.1691
15599W        W35133  19.169  18.984   1.471 -0.3583  0.2583 -0.0726
15600W        W35134   5.706   0.276  10.897  0.1629 -0.2477  0.1214
15601W        W35135  11.252   0.779   3.278 -0.2150 -0.3675 -0.1947
15602W        W35136   4.830  11.977   4.944 -0.1764  0.0287 -0.0484
15603W        W35137  11.841  12.040   3.646 -0.4023  0.0545 -0.1402
15604W        W35138  11.262  15.347   0.616  0.2789 -0.0509 -0.2288
15605W        W35139  13.724   0.750   1.838 -0.3249  0.2163  0.1341
15606W        W35140  10.504   2.049  12.753  0.1948 -0.0751  0.2855
15607W        W35141  16.673  12.515  10.919 -0.1521  0.2751  0.0834
15608W        W35142   9.874   0.889   1.743  0.0246 -0.2008  0.0616
15609W        W35143  10.767  14.982   2.240  0.0056 -0.2010 -0.2327
15610W        W35144   6.311   9.536  10.662  0.0647 -0.2854  0.3013
15611W        W35145  10.776  17.143   1.231  0.3893  0.1349 -0.3002
15612W        W35146  17.220  17.891   1.821 -0.0496  0.1906  0.0086
15613W        W35147  14.130  14.328  13.463  0.2271  0.3180 -0.1651
15614W        W35148   6.654  10.221  13.783 -0.2914 -0.0891  0.1081
15615W        W35149   5.229  14.730   0.520 -0.0299 -0.1171  0.1159
15616W        W35150   7.155  17.802  13.474  0.0116 -0.0634  0.0980
15617W        W35151   5.156   4.786   1.417 -0.0484  0.2185  0.0388
15618W        W35152  14.378  15.757   3.315 -0.2762  0.1441 -0.1894
15619W        W35153   6.695   5.193   3.925 -0.1800 -0.0404 -0.1380
15620W        W35154  18.270   2.049   0.817  0.0932 -0.1493  0.1574
15621W        W35155   7.059   4.741   2.929 -0.1944  0.0286  0.0736
15622W        W35156  11.871  13.013  11.470 -0.2827 -0.2305  0.1877
15623W        W35157   5.899   1.831   2.264 -0.0237  0.0707  0.2528
15624W        W35158   6.669   1.558  11.041 -0.2336  0.0981  0.2880
15625W        W35159   3.091   0.573  11.380  0.0650  0.0049 -0.0094
15626W        W35160  19.495  10.040  10.223  0.0956  0.1985 -0.0540
15627W        W35161   5.871  15.644  13.777 -0.1236  0.1150  0.1777
15628W        W35162  17.009  12.529   0.636  0.1277  0.2315 -0.2500
15629W        W35163  10.211   8.120  12.694  0.1393  0.2824  0.2662
15630W        W35164  19.418  12.907  10.952 -0.2326 -0.0713 -0.1801
15631W        W35165   9.275   6.189  11.526 -0.1666 -0.0825  0.0492
15632W        W35166  15.736  19.437  13.113 -0.0590 -0.2106 -0.2069
15633W        W35167   5.631  10.155   4.006 -0.6466 -0.0199  0.2306
15634W        W35168  15.351   3.358   3.569 -0.0323  0.0418  0.1421
15635W        W35169   8.911  13.020  11.800 -0.4469  0.0456 -0.2453
15636W        W35170  19.078   7.281   0.932  0.2309  0.1057 -0.0753
15637W        W35171  16.956   8.220   1.811  0.3362 -0.2966  0.0014
15638W        W35172   6.530  19.201   0.080  0.0524 -0.0136 -0.1057
15639W        W35173  12.473  13.028  10.986 -0.2680  0.0929 -0.0500
15640W        W35174  16.375   5.254   3.216  0.0463 -0.0625 -0.0463
15641W        W35175  13.953  15.470   1.924 -0.1825 -0.1694  0.2958
15642W        W35176   9.502  13.177  10.472 -0.0668  0.2027  0.1661
15643W        W35177   0.111   1.286  11.607 -0.6345  0.1636  0.3370
15644W        W35178   2.265   7.500  10.508  0.3244 -0.0393  0.1872
15645W        W35179   4.858   0.234  12.994 -0.1061  0.1948 -0.1707
15646W        W35180   6.673  14.975  12.236  0.1920  0.0102  0.0107
15647W        W35181   7.549  16.749  13.995  0.1039  0.3589  0.0165
15648W        W35182  15.766  14.022  11.391 -0.0163 -0.1916  0.3132
15649W        W35183  13.562   7.473  11.104 -0.0097 -0.2520 -0.0535
15650W        W35184  16.179  14.995   0.113  0.0018  0.2894  0.1283
15651W        W35185   2.020  16.874  10.939  0.1215  0.0790 -0.0514
15652W        W35186   4.179  13.414   2.916  0.1538  0.1051  0.1292
15653W        W35187   0.615  11.239   0.664 -0.2292  0.4245  0.0351
15654W        W35188   4.221   8.217   1.997 -0.1901 -0.1428 -0.1037
15655W        W35189  12.071  18.791   0.314  0.2163 -0.2646 -0.6089
15656W        W35190  15.374   3.232   2.121 -0.1655 -0.1703 -0.0413
15657W        W35191   4.309   3.470   0.810  0.0355 -0.2381 -0.0033
15658W        W35192   8.809  10.588   4.187 -0.2335  0.1195 -0.1971
15659W        W35193  17.576   1.214  12.671 -0.1647 -0.1287 -0.0673
15660W        W35194   0.578   4.479  13.195 -0.1907 -0.1781  0.0584
15661W        W35195  11.942  18.679   2.163 -0.0036 -0.0385 -0.1850
15662W        W35196   2.744  16.529   9.972  0.0597  0.2933 -0.0066
15663W        W35197   8.835  14.385  13.637 -0.2153  0.1367 -0.0641
15664W        W35198   8.934   9.236  12.378 -0.1290  0.1623 -0.0904
15665W        W35199  18.313   6.743   1.351  0.2754 -0.0691 -0.5034
15666W        W35200  13.422   0.982   3.094 -0.2887  0.1265  0.1780
15667W        W35201   4.259   8.733  13.488  0.0542  0.3558  0.4078
15668W        W35202  18.863  12.719  12.527 -0.0704 -0.0017 -0.1126
15669W        W35203   4.833  14.852  12.624 -0.2834  0.4424 -0.0243
15670W        W35204   9.867   9.262  11.450  0.2904  0.1382  0.1332
15671W        W35205  14.297   7.795  13.979  0.2540  0.2889 -0.1603
15672W        W35206  19.524  10.019  13.750  0.0637  0.0175 -0.0780
15673W        W35207  14.847   6.947   3.008  0.1174 -0.1649 -0.0485
15674W        W35208  19.333   5.157   1.529 -0.4532  0.0119  0.0489
15675W        W35209  10.683  18.186  14.079  0.0507  0.0992  0.0884
15676W        W35210   8.749  18.653  10.856  0.1460  0.2336 -0.1217
15677W        W35211   6.612   7.742   1.606 -0.2269  0.0178  0.1802
15678W        W35212  12.976  17.785  11.997 -0.3700 -0.1199  0.1239
15679W        W35213   0.072  16.527  11.192  0.0472 -0.2282  0.0760
15680W        W35214  17.653  11.187   0.425 -0.2540  0.0881  0.0503
15681W        W35215   7.579  13.957  11.591 -0.1093 -0.0003 -0.1255
15682W        W35216   4.418   4.968  14.280 -0.1668 -0.1105 -0.0127
15683W        W35217   3.396  17.473   3.469  0.1375  0.1387  0.1100
15684W        W35218  11.390  13.285   1.328 -0.1433 -0.3954 -0.1368
15685W        W35219  12.563  17.680  12.313  0.1681  0.2376 -0.0265
15686W        W35220   9.028   1.254   4.028  0.2826  0.1525 -0.4630
15687W        W35221  13.732   7.749   2.476  0.0333  0.3002  0.0008
15688W        W35222   1.264   6.853  10.032 -0.1889  0.0229  0.0002
15689W        W35223   7.195   3.455  14.055 -0.3025  0.3929  0.1118
15690W        W35224   3.688   4.701  12.328 -0.3163 -0.0642  0.0027
15691W        W35225   5.965  18.671  12.219 -0.1156  0.0448 -0.1737
15692W        W35226   9.864   1.073   1.273 -0.0947  0.2070 -0.0265
15693W        W35227   1.231   4.495  10.561 -0.0425  0.1621 -0.2385
15694W        W35228  16.585  12.941  11.315 -0.2274  0.3376 -0.1821
15695W        W35229  11.318   2.887  11.999  0.0264 -0.0694 -0.0968
15696W        W35230  12.016  16.020  13.203  0.1858 -0.0140 -0.4100
15697W        W35231   8.466  18.285   3.181  0.1104  0.1137 -0.1837
15698W        W35232   3.280  17.379  10.856  0.2672  0.2327 -0.0923
15699W        W35233  10.304   0.089   1.483  0.1607  0.0397 -0.1571
15700W        W35234  11.286   5.974   2.826  0.3030  0.1059 -0.3357
15701W        W35235  10.300  14.726   3.104  0.0307 -0.1161  0.0430
15702W        W35236   3.479  15.261  11.857  0.0132  0.1068 -0.0687
15703W        W35237   7.608  13.488  11.901  0.0111 -0.2043 -0.2655
15704W        W35238   3.499   6.482  11.183 -0.0407  0.0413  0.1119
15705W        W35239  16.047   5.951   1.079 -0.0241  0.3185  0.0984
15706W        W35240   1.706  16.053  12.912  0.0443 -0.1209  0.1336
15707W        W35241   5.625  10.631  11.162 -0.1274  0.3980 -0.5374
15708W        W35242   1.603   1.239  14.069 -0.4335 -0.0412  0.1346
15709W        W35243   0.649  11.987  13.622  0.0480 -0.2365 -0.0531
15710W        W35244   4.938   4.171  11.764  0.1848 -0.1044 -0.1327
15711W        W35245  11.668   5.672   1.627 -0.0376  0.2782 -0.0254
15712W        W35246   6.096   0.322   0.920 -0.0130 -0.0425  0.1344
15713W        W35247   2.845   8.950   3.441 -0.0962  0.0436  0.1939
15714W        W35248   9.535   8.081   3.820  0.1350  0.0087 -0.2415
15715W        W35249  16.275  16.808  11.063  0.0280  0.1169 -0.1520
15716W        W35250  17.718   6.230   0.553 -0.4153 -0.4934  0.0459
15717W        W35251   9.695  13.163   4.217 -0.1194 -0.3213 -0.0691
15718W        W35252   4.484  11.691  11.002 -0.2407 -0.0713  0.1041
15719W        W35253   9.748   2.978  10.890  0.0695 -0.2975 -0.2880
15720W        W35254   7.399  12.032  10.748 -0.1035 -0.0963 -0.1043
15721W        W35255   2.981  11.778  10.864  0.0355 -0.0447 -0.0500
15722W        W35256  10.243   7.637  12.534  0.1238  0.0875  0.1758
15723W        W35257  12.126   1.629   4.036  0.0284  0.1165 -0.0386
15724W        W35258  14.238   3.870  13.274 -0.1144  0.2598 -0.0355
15725W        W35259   2.494   2.353   4.176 -0.1652  0.0865  0.1937
15726W        W35260   2.013   8.935  13.663  0.1696  0.3624 -0.0360
15727W        W35261   6.488   6.752   0.538  0.0015  0.1327 -0.0161
15728W        W35262   6.063   3.254   9.590 -0.1508 -0.2959 -0.1395
15729W        W35263   5.409  15.728   5.015 -0.0825 -0.3304 -0.0875
15730W        W35264   2.299  19.222   2.788  0.4835 -0.1211  0.0550
15731W        W35265  14.366   8.523  13.034 -0.0454  0.1672 -0.0601
15732W        W35266   9.607   6.095   2.660  0.3998  0.0543 -0.0770
15733W        W35267  16.559  17.129  10.398 -0.1383  0.0644  0.1432
15734W        W35268   4.674  15.106   1.375  0.0076  0.4005  0.1946
15735W        W35269  13.101   0.467   5.168 -0.2421 -0.1583 -0.3171
15736W        W35270  14.676  19.067   2.868 -0.0512  0.0403 -0.0361
15737W        W35271  11.791  18.696   3.444  0.0238  0.0377  0.1202
15738W        W35272  17.558  17.295  10.731 -0.0633 -0.2056 -0.1932
15739W        W35273   8.453  12.379  14.260  0.0627 -0.4234  0.0951
15740W        W35274   9.935  13.642  10.464 -0.1420  0.3116 -0.3484
15741W        W35275   5.387   0.593  11.329 -0.1782 -0.4718  0.0857
15742W        W35276   8.770   4.116   3.809  0.2008  0.1674 -0.1880
15743W        W35277   0.436   6.960  10.827 -0.4419  0.0681  0.3695
15744W        W35278  11.909  16.672   1.817 -0.0378  0.0852 -0.1124
15745W        W35279  18.175  14.641   1.283  0.2516 -0.1179  0.2440
15746W        W35280   4.861  14.264  12.585 -0.1088  0.0099  0.2323
15747W        W35281  11.941  17.405   3.365 -0.2195 -0.0911  0.1538
15748W        W35282   1.554  11.228   4.162  0.3816 -0.0298 -0.0367
15749W        W35283   5.054  15.725   2.385  0.1358  0.0993  0.1323
15750W        W35284   0.778   0.061   3.903  0.1970 -0.3095  0.2500
15751W        W35285  14.418   4.905   2.962  0.0590 -0.1483 -0.5085
15752W        W35286  16.327   3.004   0.552  0.1864 -0.1313  0.0957
15753W        W35287   0.464  12.064   1.969  0.3403 -0.2719 -0.2254
15754W        W35288   5.182  18.784  12.282  0.2029 -0.2138  0.1716
15755W        W35289  13.362  17.858   3.035  0.3007  0.0001  0.0229
15756W        W35290  13.229   8.422   0.211 -0.0242 -0.2638 -0.0695
15757W        W35291   7.890   0.854   2.413  0.2134  0.2132 -0.0127
15758W        W35292  14.260  19.429   0.999 -0.0984  0.1367  0.1191
15759W        W35293  11.838   9.870   1.054  0.2072 -0.2415 -0.0734
15760W        W35294  13.579  16.588   2.214 -0.1014 -0.0292 -0.1802
15761W        W35295  14.652   7.743   0.927  0.3959 -0.0842  0.0711
15762W        W35296  14.543   9.666   3.866 -0.2258  0.1118 -0.4343
15763W        W35297   4.956   3.116   3.822 -0.1220 -0.2804  0.0602
15764W        W35298  10.055   0.498   2.694 -0.2680  0.0057  0.0237
15765W        W35299  18.043   1.137  11.846 -0.1429  0.2418  0.2490
15766W        W35300  15.179  15.775   2.149  0.4533  0.2085  0.1348
15767W        W35301  13.619   0.746   2.335 -0.4316  0.2513  0.0744
15768W        W35302  12.204   1.369  11.435 -0.4810 -0.0155  0.1413
15769W        W35303   8.424  14.337   1.246 -0.0276  0.1346 -0.2244
15770W        W35304  10.553   6.933   1.024  0.2274  0.0357  0.0674
15771W        W35305  12.584  18.762   0.173  0.0884  0.4526  0.3064
15772W        W35306   5.581  11.317  11.250  0.4369  0.1371 -0.3048
15773W        W35307   0.642  18.845  10.997  0.0287  0.2491  0.2840
15774W        W35308   4.688  14.488   3.020 -0.1737 -0.1154  0.0764
15775W        W35309  11.783  15.501  12.050 -0.1037 -0.1293  0.0153
15776W        W35310   1.966  13.490   0.218 -0.2129 -0.1474 -0.4547
15777W        W35311   6.201   0.728  13.165 -0.2041 -0.0128  0.4074
15778W        W35312  19.312  12.311   2.382  0.0033  0.0646 -0.4249
15779W        W35313   2.168  13.760  11.042 -0.0222  0.0303 -0.3163
15780W        W35314  10.003  17.655   3.465  0.0877 -0.1383 -0.0102
15781W        W35315   3.327  19.238   0.876  0.1072  0.1873 -0.0215
15782W        W35316  18.486  13.110  11.263  0.1343 -0.0859 -0.0459
15783W        W35317   2.125  19.188   2.307  0.0635  0.1138 -0.0450
15784W        W35318  17.971   9.139  13.346 -0.3735 -0.0940 -0.1328
15785W        W35319   3.251  16.248  12.762  0.3875 -0.0042  0.1263
15786W        W35320  19.102   4.054  12.308 -0.1469 -0.5596 -0.0208
15787W        W35321  18.855   4.487  13.767  0.0099 -0.0215  0.3425
15788W        W35322  18.786  11.241  11.035  0.1319 -0.4038 -0.0057
15789W        W35323  12.622   5.840   1.209 -0.1380  0.1863  0.4605
15790W        W35324  12.765   1.738   0.134 -0.1153 -0.0718  0.2382
15791W        W35325  17.314   3.086   0.485  0.1095  0.1321 -0.0611
15792W        W35326   1.431   4.029  10.701 -0.0356 -0.2335  0.2384
15793W        W35327  17.284  18.982  13.173  0.0730  0.0452  0.0162
15794W        W35328  12.463   1.835   0.851 -0.0820  0.0360  0.0165
15795W        W35329   4.501  19.430   2.652  0.1158 -0.0724 -0.4007
15796W        W35330   5.805   7.838   4.999 -0.0841 -0.2031  0.0595
15797W        W35331   9.436  10.196   3.114 -0.1621 -0.2084 -0.0112
15798W        W35332   1.802  14.208  13.961 -0.1945  0.0309 -0.2204
15799W        W35333  17.464   9.882   2.752  0.1960  0.2252  0.3524
15800W        W35334   3.790   7.792  10.219  0.0720  0.2316  0.0301
15801W        W35335  11.837  14.628  10.916 -0.0398 -0.3303 -0.0116
15802W        W35336  18.314   2.368  13.789 -0.2756 -0.0220  0.0467
15803W        W35337   5.199  18.241  11.974  0.2338 -0.2808 -0.0740
15804W        W35338   0.345  17.202  10.524 -0.0123  0.1080 -0.1772
15805W        W35339  12.654  17.160  14.029  0.1503  0.4362  0.0545
15806W        W35340   0.595  11.861  14.107 -0.0325 -0.0786 -0.5396
15807W        W35341   9.163   3.118  13.846 -0.2224 -0.0925  0.3850
15808W        W35342  13.726  12.934   0.355  0.0892  0.1442  0.0115
15809W        W35343  14.442   1.009   1.548 -0.1130  0.2271  0.1215
15810W        W35344   1.510  16.842   2.347 -0.2900  0.3101  0.2480
15811W        W35345  16.329   1.093  13.697 -0.0348 -0.1574  0.0415
15812W        W35346  15.305  15.294   1.762 -0.2652 -0.1829  0.1062
15813W        W35347   3.558  18.884   3.349 -0.0632 -0.0396  0.1253
15814W        W35348   5.371   0.829   3.081 -0.4531 -0.1582  0.1508
15815W        W35349  12.636  11.517  12.296  0.3338  0.2202  0.0136
15816W        W35350  17.488  11.728   9.312  0.2543  0.2041  0.0119
15817W        W35351  17.104  16.192   0.301  0.2087 -0.3830  0.0801
15818W        W35352   3.223   8.466   0.787  0.4596  0.0074 -0.0937
15819W        W35353   3.254   4.315   1.874 -0.0854 -0.1092 -0.0591
15820W        W35354  13.992   0.878  12.882  0.2429  0.0122 -0.1036
15821W        W35355   8.295   4.073  14.304 -0.1122  0.1382  0.1683
15822W        W35356   3.901   8.334   0.501 -0.0717  0.2601  0.1553
15823W        W35357   3.212   0.850   1.610 -0.1263 -0.1485 -0.1764
15824W        W35358  17.713  12.642   9.461 -0.1229 -0.0673  0.1549
15825W        W35359   7.560   1.080  12.454  0.0664  0.4347 -0.0545
15826W        W35360   0.110   3.142  11.468 -0.1717  0.0036 -0.0825
15827W        W35361   8.644  16.327   3.801  0.2182  0.0523  0.1345
15828W        W35362   0.104   3.825  10.535 -0.3452  0.1797  0.2662
15829W        W35363  13.375   2.550  10.536 -0.3912  0.1592 -0.2536
15830W        W35364   6.907   7.445  10.382 -0.1240 -0.0677  0.1858
15831W        W35365  17.996   3.855   3.624 -0.0556  0.1977  0.4274
15832W        W35366   2.971  18.539   3.983 -0.3353  0.1025  0.1195
15833W        W35367  12.957  12.579   3.210 -0.1220  0.1254  0.1012
15834W        W35368  17.779  19.372   1.008  0.2686 -0.1086  0.0266
15835W        W35369  15.090   3.948  11.683 -0.0402 -0.0807 -0.1903
15836W        W35370  14.695  18.854   2.385  0.0653  0.1651  0.0557
15837W        W35371   6.894   6.412   2.297 -0.0804  0.2175  0.5860
15838W        W35372   5.346   4.431  13.798  0.1619  0.0203 -0.0578
15839W        W35373  10.790  15.230  11.665 -0.1161 -0.1719  0.0331
15840W        W35374  15.496  11.831  11.557 -0.0955 -0.0552 -0.1303
15841W        W35375   4.111   2.329  14.107 -0.3240 -0.0158 -0.0385
15842W        W35376  19.466  11.277   2.210 -0.2341 -0.0361  0.0183
15843W        W35377   9.850  10.866  12.768 -0.1447  0.1494  0.1229
15844W        W35378  14.749   9.872  12.484 -0.1235  0.3539 -0.0283
15845W        W35379   1.353   1.454   9.858  0.3621  0.2005  0.2310
15846W        W35380  11.914  12.299   2.734  0.0047  0.0153 -0.3156
15847W        W35381   0.202   7.992  10.450  0.1390  0.3683 -0.2915
15848W        W35382  11.899   3.713  13.543 -0.1849 -0.2365  0.1578
15849W        W35383   4.495   6.585   0.406 -0.1429  0.1146 -0.0842
15850W        W35384  14.734  10.711  12.806 -0.2326 -0.0888 -0.0692
15851W        W35385  19.511  14.346   3.210 -0.0491  0.4123 -0.2291
15852W        W35386  14.700  14.111   2.548 -0.1488  0.2900 -0.0943
15853W        W35387  12.438   5.035   0.614  0.0837  0.0102  0.0011
15854W        W35388   9.799   8.331   9.478 -0.1610 -0.1594 -0.2274
15855W        W35389   1.204  14.095  14.114 -0.0771  0.1186 -0.0881
15856W        W35390  11.936   5.147  13.667  0.1331 -0.0204  0.1164
15857W        W35391   3.718   8.384   1.812 -0.1318  0.0737  0.0771
15858W        W35392  10.584   3.017   3.392  0.2074 -0.1986 -0.0509
15859W        W35393   5.702   0.401  13.925  0.0219 -0.0035 -0.0279
15860W        W35394  17.787   9.777   9.833 -0.0507 -0.0263 -0.0443
15861W        W35395   4.906  19.079   0.031 -0.2072 -0.2983  0.0145
15862W        W35396  14.621  16.594   9.135  0.0580  0.3419  0.0517
15863W        W35397  18.124   6.865  11.492  0.0580 -0.0599  0.1161
15864W        W35398   7.058   8.919   0.178  0.0868  0.2226  0.4963
15865W        W35399  10.989  18.999  14.158 -0.2171  0.0081  0.3021
15866W        W35400  17.888  18.123   0.204 -0.1489 -0.2794 -0.0676
15867W        W35401   9.834  11.364   1.577  0.2004 -0.0163 -0.3484
15868W        W35402  12.228  11.565  14.227 -0.0626  0.1218  0.0450
15869W        W35403   1.329  16.191  11.045  0.1316  0.0253 -0.0660
15870W        W35404  13.174  16.302   2.992  0.1845 -0.2513  0.0160
15871W        W35405   1.907  13.642  10.528 -0.0120 -0.0082  0.0417
15872W        W35406   6.038  11.747   3.207  0.1844  0.3133  0.0113
15873W        W35407  12.313   3.176   1.356 -0.0005 -0.1444  0.2550
15874W        W35408   0.235  10.062   0.607  0.0712  0.0903  0.0190
15875W        W35409   0.274   5.044  14.329  0.0981 -0.1349 -0.0858
15876W        W35410  12.207   6.854   9.515  0.0665 -0.0626 -0.1210
15877W        W35411  16.970   2.857  12.162  0.0845 -0.1425 -0.1550
15878W        W35412   7.990  11.669   3.938 -0.1011 -0.1803  0.0346
15879W        W35413   3.009  14.858   0.003  0.0938 -0.2496 -0.2652
15880W        W35414  18.644  19.074   3.946  0.3033 -0.0292  0.0955
15881W        W35415  17.047   0.678   0.648 -0.1645 -0.1782 -0.1094
15882W        W35416   8.690  16.167  13.506  0.2389  0.0623  0.0453
15883W        W35417  14.197  13.298  10.842 -0.0300 -0.1343  0.4675
15884W        W35418  12.638   0.174  13.814  0.2064 -0.1886 -0.0509
15885W        W35419  17.457  18.146   1.452 -0.0740 -0.1354  0.0642
15886W        W35420   4.361   8.424   0.500 -0.0905 -0.0240  0.1525
15887W        W35421  15.422   9.500   3.914  0.2848  0.0479 -0.2184
15888W        W35422   1.559   1.637  11.644  0.3998 -0.2130  0.1584
15889W        W35423  15.244   8.083  11.295  0.5206  0.1265  0.1101
15890W        W35424   2.744  16.294  13.541 -0.1325  0.1214  0.2944
15891W        W35425  11.450   9.702  12.120 -0.2280  0.0379 -0.1602
15892W        W35426   1.806  14.616  13.267 -0.3184 -0.1256 -0.1543
15893W        W35427   4.007  14.243  10.876  0.0233  0.0724 -0.1523
15894W        W35428  16.228   9.530  13.159  0.0349 -0.1264 -0.1128
15895W        W35429  17.091  18.030  13.432 -0.2698 -0.1272  0.1825
15896W        W35430  14.045  18.339   2.783  0.0487  0.1093  0.0223
15897W        W35431   4.920   1.103   3.225 -0.0465 -0.1946 -0.0154
15898W        W35432   3.237  11.555   0.939 -0.1265 -0.0822  0.0063
15899W        W35433  18.433  15.871   3.455  0.2441  0.1466  0.2203
15900W        W35434  12.035   2.061  12.740  0.0275  0.2804  0.0238
15901W        W35435  10.432   0.467  10.701  0.5330 -0.2039  0.1032
15902W        W35436  13.842   6.439  10.990  0.1909  0.1031  0.1284
15903W        W35437  16.669  12.287   1.106  0.0801 -0.0016  0.1948
15904W        W35438  16.702  19.074   3.373 -0.4728 -0.0452  0.2812
15905W        W35439  11.792   9.534  11.034  0.2775  0.0991 -0.0988
15906W        W35440   7.486  18.178   2.418  0.1509 -0.0382 -0.2846
15907W        W35441   2.065  12.426   9.268  0.2957 -0.2212  0.2747
15908W        W35442   0.833   3.132  13.837  0.0812 -0.1896  0.1489
15909W        W35443  14.041   7.649   1.043 -0.2241 -0.0810  0.1719
15910W        W35444  17.292   5.476   0.775 -0.1859 -0.2793  0.0761
15911W        W35445   6.083  16.676  10.905  0.1477 -0.0021 -0.0649
15912W        W35446  19.192   6.775  11.871 -0.1407 -0.1694 -0.1737
15913W        W35447   0.842   3.190   1.718  0.2964  0.0505  0.1034
15914W        W35448   9.317   3.166   1.471 -0.0775 -0.2855 -0.0606
15915W        W35449  17.133   0.402  10.310 -0.2852  0.1611  0.0525
15916W        W35450   6.843   4.357  10.265 -0.0660  0.2621 -0.0039
15917W        W35451  18.079  18.551  12.354  0.1168 -0.0848 -0.2879
15918W        W35452   1.765   5.434   3.899  0.0843  0.1477  0.1747
15919W        W35453  10.558   4.613   2.800  0.1229 -0.0180  0.0634
15920W        W35454   9.414  12.337   5.079  0.1194  0.1433  0.1604
15921W        W35455  15.092  11.751   9.129  0.3496  0.1125  0.3430
15922W        W35456   0.040  14.579   0.269  0.0882 -0.1125 -0.3133
15923W        W35457  15.699   8.350  13.477  0.0887 -0.0602  0.1806
15924W        W35458   1.185   9.432   2.168 -0.2765 -0.0869 -0.0294
15925W        W35459   9.385   2.552   9.564 -0.2327  0.1362 -0.2510
15926W        W35460   0.605  10.992  13.639  0.0964  0.0412 -0.0962
15927W        W35461  10.897   4.378   5.228 -0.2661 -0.1652 -0.0126
15928W        W35462  14.696  10.995  13.601 -0.3406  0.2091  0.3696
15929W        W35463   1.276   9.483   1.380  0.1866  0.2190 -0.1316
15930W        W35464  18.681  14.857  10.294  0.0326  0.1657 -0.1546
15931W        W35465  18.290   0.705  12.912  0.0486  0.2061  0.2901
15932W        W35466  15.916  14.097  10.926  0.3816 -0.0769 -0.0494
15933W        W35467   9.041   6.718   1.938  0.1651 -0.0913  0.1711
15934W        W35468  15.758  18.522   1.290 -0.0866  0.3589  0.1381
15935W        W35469  15.318  19.428   0.524  0.0056  0.0540 -0.0492
15936W        W35470   1.834  17.367  11.079 -0.3240  0.0037  0.6983
15937W        W35471  17.194  13.885   3.054  0.0547 -0.0666  0.1504
15938W        W35472  18.234   7.382  12.349  0.1865 -0.2442 -0.0056
15939W        W35473  11.591   1.561   1.750  0.0821 -0.4060  0.0401
15940W        W35474  16.418  16.765  14.041 -0.0760 -0.0019 -0.1033
15941W        W35475   9.641  18.366  12.960 -0.2385 -0.1685  0.2655
15942W        W35476   6.800  10.531   2.442  0.1034 -0.2422 -0.2262
15943W        W35477   1.809  12.645  12.204  0.0160  0.0264 -0.3368
15944W        W35478   5.841   9.208  10.623 -0.1067 -0.0725  0.0105
15945W        W35479  10.403   3.083  12.484 -0.1336  0.0627 -0.3154
15946W        W35480   1.617  18.253  11.028  0.1203  0.0304 -0.2311
15947W        W35481   3.686  13.251   0.049  0.1096 -0.1573 -0.0374
15948W        W35482  13.000   1.212   0.156  0.1069 -0.1381  0.1834
15949W        W35483   3.835  16.758   4.094  0.1692  0.1822 -0.0405
15950W        W35484   2.544  18.672  11.001  0.3761 -0.0162 -0.1385
15951W        W35485   4.160   9.605   2.931  0.0711 -0.0264 -0.1910
15952W        W35486  15.242   2.096   0.306  0.0778 -0.0427 -0.1032
15953W        W35487   3.268  13.835  13.715 -0.1013  0.1567 -0.0678
15954W        W35488   0.150  19.022  13.184 -0.0633  0.2716 -0.0306
15955W        W35489  14.290  16.901  10.601 -0.1830  0.1731  0.2084
15956W        W35490  14.333   6.800  13.087 -0.3380  0.0661  0.2289
15957W        W35491  11.995   0.634   2.541  0.0001  0.1226  0.2180
15958W        W35492  13.658   9.111   1.003 -0.1443  0.0630  0.0486
15959W        W35493   2.651   4.293  13.901  0.1634 -0.1406  0.0417
15960W        W35494  15.823  17.579   1.062 -0.0456  0.1938 -0.0875
15961W        W35495  13.890  10.202  14.315 -0.0504 -0.2926  0.3187
15962W        W35496  12.774  17.684  14.132 -0.0042  0.1260 -0.0076
15963W        W35497  13.164  14.398  10.921  0.0662 -0.1700 -0.0803
15964W        W35498   3.501  19.272  12.762 -0.3672 -0.0180  0.1573
15965W        W35499  14.083  15.938   2.048 -0.2617  0.2332 -0.2663
15966W        W35500  17.434  17.023  10.271  0.0899 -0.2543 -0.3034
15967W        W35501   7.822  18.150   0.214  0.2422  0.1175  0.2619
15968W        W35502   8.318  17.652  11.433 -0.0638  0.2694 -0.0860
15969W        W35503   3.402   4.249   0.960  0.1285  0.1156 -0.2444
15970W        W35504   4.113  18.493  12.118 -0.3207 -0.0896 -0.1258
15971W        W35505  16.836   0.707   2.697 -0.2226  0.2182  0.1601
15972W        W35506   2.755  12.778   2.590 -0.1731  0.0394 -0.1610
15973W        W35507   9.633  17.468   0.480  0.0327  0.0565 -0.1402
15974W        W35508  10.386  11.472  12.745  0.0258 -0.1275  0.0720
15975W        W35509   0.504   4.895  11.203 -0.0840  0.0346 -0.3210
15976W        W35510  18.240  19.179   2.998  0.0769  0.0033  0.0457
15977W        W35511   1.613  11.005  14.129 -0.0772 -0.1284  0.1187
15978W        W35512  18.615  10.752  10.806  0.2729  0.3335  0.1454
15979W        W35513  16.125   3.439   2.667  0.0686 -0.1098  0.1945
15980W        W35514   1.803  17.199   1.020  0.2493 -0.0869  0.1994
15981W        W35515  11.288  14.315  13.470  0.0241  0.3218  0.3184
15982W        W35516  13.612   2.019   0.077 -0.0748 -0.0065 -0.0184
15983W        W35517  14.376   6.535   1.206  0.1081  0.3358 -0.2193
15984W        W35518  18.901   2.063   0.936 -0.0650  0.0863 -0.0363
15985W        W35519   8.088   7.020   1.720  0.3127 -0.0821 -0.3524
15986W        W35520   8.992  15.280   1.842  0.2118 -0.2221 -0.1585
15987W        W35521  12.167   6.535  10.373  0.0208  0.3575 -0.0289
15988W        W35522  16.390   9.863  13.528  0.1996  0.3401  0.2567
15989W        W35523  15.467  16.409  12.672  0.0712  0.0942 -0.0948
15990W        W35524   8.717  15.547   2.921 -0.0026 -0.0223  0.0461
15991W        W35525   0.076  15.746  13.672  0.2581 -0.0953 -0.0289
15992W        W35526   6.012  19.412  11.316  0.0146  0.3006 -0.1285
15993W        W35527   3.120   4.194  12.288  0.0206  0.0088 -0.0884
15994W        W35528  10.040  16.006   2.691 -0.1838  0.1157  0.0549
15995W        W35529   7.250  16.610   1.542  0.1501  0.1962  0.0248
15996W        W35530  12.501  15.772   2.713  0.0566 -0.1708  0.2635
15997W        W35531  13.379  12.799   1.227  0.0732 -0.0632  0.2062
15998W        W35532  12.400   3.383  14.250 -0.0321  0.0401 -0.2759
15999W        W35533  12.070   8.148   4.401 -0.0954 -0.1481  0.0939
16000W        W35534  14.175   9.164   2.595  0.0499  0.1956  0.1921
16001W        W35535   6.387  14.583  12.741  0.2461 -0.0195  0.1508
16002W        W35536  16.149  19.126   2.623  0.0069 -0.1970  0.1541
16003W        W35537   6.997   2.409   3.541 -0.0373  0.0287  0.0080
16004W        W35538  14.677  12.109  13.624  0.1512  0.0656 -0.0790
16005W        W35539   3.748  12.025  13.954  0.1072  0.0538  0.0062
16006W        W35540  11.638  12.837  12.587  0.0498 -0.3991 -0.3100
16007W        W35541  13.269   4.061  12.659 -0.1355 -0.0380  0.2400
16008W        W35542  14.623   9.542  11.615  0.0970  0.1782 -0.0671
16009W        W35543  10.591  19.041  13.476  0.1170  0.1113 -0.1663
16010W        W35544  12.017   1.954   0.856 -0.0160 -0.1919 -0.2857
16011W        W35545   4.033  16.645  12.118  0.3342  0.2003  0.0276
16012W        W35546   7.467   0.795   1.656 -0.2244  0.2819 -0.0169
16013W        W35547  10.399  18.089   1.804 -0.0258 -0.0078 -0.0592
16014W        W35548   4.107  13.804   2.619 -0.3857 -0.0240 -0.1366
16015W        W35549  11.219  16.290   0.059  0.0172  0.0150  0.2004
16016W        W35550  19.287   2.846  11.455  0.0576  0.2529 -0.1126
16017W        W35551  15.274  14.678   9.367  0.1917  0.2237 -0.0794
16018W        W35552   8.214   7.873  11.566  0.2037  0.0646 -0.3151
16019W        W35553  14.474   4.835   1.401  0.1741  0.1294  0.3385
16020W        W35554   5.047  11.615   0.073 -0.1621  0.1395 -0.1015
16021W        W35555  16.161  11.293   1.710  0.0445 -0.2570 -0.0376
16022W        W35556   7.616   6.143  11.149  0.0475  0.3148  0.2445
16023W        W35557   5.324   8.496   1.630 -0.2668 -0.1240  0.1546
16024W        W35558  19.453   0.838  11.633 -0.0822 -0.1799  0.3809
16025W        W35559  10.353  10.240   0.286  0.5120  0.0546  0.0614
16026W        W35560   6.663   6.279  12.584 -0.2107  0.1810 -0.0279
16027W        W35561   4.980   0.839   2.707  0.3283 -0.3285 -0.0279
16028W        W35562   2.569   2.727  11.469 -0.0999  0.2026  0.0324
16029W        W35563  18.081   0.571  13.384 -0.0467 -0.1857 -0.3074
16030W        W35564   7.027   5.674  10.744  0.2131 -0.0734  0.0049
16031W        W35565  17.826  10.754  13.948 -0.0274  0.0969  0.2249
16032W        W35566   1.493   1.373  10.578 -0.1191  0.1256  0.0031
16033W        W35567   8.822   4.972  13.164  0.0714  0.0302 -0.0404
16034W        W35568  14.548  10.079  10.774  0.0852  0.1525  0.0081
16035W        W35569   1.469   0.982  13.455 -0.3549  0.0015  0.0730
16036W        W35570  11.857   7.694  10.984  0.4178  0.2415  0.3974
16037W        W35571  14.032  10.837   2.673  0.0317  0.0308 -0.2121
16038W        W35572   2.239   1.695  12.893  0.1499  0.3020 -0.0786
16039W        W35573  11.228   5.273  11.525  0.2424  0.0186  0.1720
16040W        W35574   1.452   7.516   0.491 -0.0523  0.0431 -0.0543
16041W        W35575   2.980   3.004  12.621 -0.2597 -0.0657 -0.0707
16042W        W35576  10.936  13.965  10.948 -0.1249  0.0938 -0.0281
16043W        W35577   6.804  19.083   1.036  0.1567  0.0839 -0.2250
16044W        W35578   8.440  16.394  13.117  0.0635  0.0263  0.2165
16045W        W35579   1.287   5.514  13.384 -0.2235  0.0298 -0.0922
16046W        W35580  15.289   1.203  13.234  0.0706 -0.2070  0.2510
16047W        W35581   1.177  18.252  13.724 -0.0349 -0.0860  0.1013
16048W        W35582  18.613   6.887   1.826  0.1546  0.0988  0.1813
16049W        W35583  14.010  15.931   3.080  0.2659  0.4168 -0.0939
16050W        W35584  14.798   1.922   0.169 -0.0673 -0.3013  0.0753
16051W        W35585  19.292   0.094   4.359 -0.2425  0.2264  0.2030
16052W        W35586   6.970   2.148  13.419  0.0953  0.0341 -0.1723
16053W        W35587   6.223   9.640  12.432 -0.3937 -0.0678 -0.0492
16054W        W35588  12.459   5.948   9.734 -0.1642  0.1626  0.4407
16055W        W35589  10.132  15.506   1.797 -0.2147 -0.1204  0.0273
16056W        W35590  14.893   9.958   4.087 -0.3318  0.3466  0.0738
16057W        W35591  17.297   3.047   1.590  0.3072  0.1158 -0.1466
16058W        W35592   1.238  15.036  11.597  0.0867 -0.0252  0.0160
16059W        W35593  13.338  13.663   1.551  0.4051  0.0337  0.2908
16060W        W35594   1.001   2.778   2.102 -0.1697 -0.2025  0.0296
16061W        W35595  11.269  16.009  11.790 -0.2010  0.1276  0.0777
16062W        W35596   7.619  10.301   1.657 -0.3295  0.0886 -0.2237
16063W        W35597  11.540  11.656   3.811 -0.0413  0.1813 -0.1169
16064W        W35598   3.305   3.936  11.377 -0.0876 -0.2874  0.0020
16065W        W35599   2.584   4.675  13.403  0.2958 -0.1891  0.1966
16066W        W35600  17.944   9.142   9.370  0.0572 -0.3287 -0.0393
16067W        W35601  14.398   0.602  11.357 -0.0468  0.1894 -0.0468
16068W        W35602   8.691   1.022  10.667 -0.3255 -0.0623  0.2083
16069W        W35603  19.448  16.357  10.305  0.0905 -0.2035 -0.1989
16070W        W35604   3.743   3.828   3.895  0.1789 -0.0365 -0.1447
16071W        W35605   6.115  18.596  10.660 -0.0040 -0.1042  0.2652
16072W        W35606   4.943  14.930   3.195  0.4980  0.2477  0.1433
16073W        W35607   5.641  17.702   0.601 -0.1759  0.0326 -0.0794
16074W        W35608   1.016   1.769   0.717  0.0716 -0.0206  0.5807
16075W        W35609   5.185  12.993  12.730 -0.1224 -0.0642 -0.2277
16076W        W35610   3.311   7.244  13.807 -0.0471  0.1264 -0.0737
16077W        W35611  12.282  16.630  13.659  0.0133 -0.2067  0.2190
16078W        W35612   1.168   0.326  10.394 -0.0151 -0.2452 -0.1779
16079W        W35613  13.730   9.438   3.804  0.0274 -0.2266 -0.0047
16080W        W35614   2.919  15.382   3.137  0.1011 -0.0643 -0.1893
16081W        W35615   4.634  18.389  12.970 -0.0532  0.1036  0.0745
16082W        W35616  13.774  15.919   1.561  0.0501 -0.1302  0.0630
16083W        W35617   2.034   7.781   9.832  0.0029 -0.2119  0.1390
16084W        W35618   5.261   7.984  11.036 -0.2241  0.0390 -0.2023
16085W        W35619  11.016  19.417  11.009 -0.0720  0.0890  0.0918
16086W        W35620   1.746  16.870   0.477 -0.0554  0.2536 -0.4640
16087W        W35621  14.111  10.993   0.377  0.0284  0.2684 -0.1331
16088W        W35622  14.733   3.088  13.285 -0.0999 -0.0522  0.2122
16089W        W35623  12.440   3.123   2.861  0.1996 -0.0608 -0.0940
16090W        W35624   3.850  10.635   1.592 -0.0201  0.0347 -0.0702
16091W        W35625  17.414   3.629   0.331 -0.0754  0.0468  0.1349
16092W        W35626   8.289  13.688   0.431 -0.0261 -0.3649  0.0395
16093W        W35627   0.187   5.246  11.134  0.1231 -0.0815 -0.1371
16094W        W35628  16.394   9.764  12.490  0.2033  0.2711 -0.1794
16095W        W35629  12.050   6.389   2.849  0.0885  0.0205  0.0365
16096W        W35630   1.882  11.145   1.392 -0.1068 -0.2617 -0.1671
16097W        W35631   9.474   4.126  10.449  0.1769 -0.0861  0.0004
16098W        W35632  10.825  13.513  10.719  0.0483  0.1211 -0.0468
16099W        W35633   4.812  11.612   1.556 -0.1415 -0.2715  0.2469
16100W        W35634  11.786  10.791  10.497 -0.0852  0.0469  0.1281
16101W        W35635  12.149  10.551  10.110 -0.0964 -0.1735 -0.0390
16102W        W35636   6.902   2.304   4.036  0.0724  0.1108  0.0003
16103W        W35637   6.980  11.360  12.787 -0.0272  0.0968  0.0544
16104W        W35638   2.744   6.360  13.863  0.0693  0.0397  0.1630
16105W        W35639  18.359  11.559  13.261 -0.1464  0.0069  0.0643
16106W        W35640  10.163   9.431  13.856 -0.0131  0.2454  0.2973
16107W        W35641   3.194  15.076  11.473  0.1302  0.4230  0.1654
16108W        W35642   5.393   1.148   1.071 -0.4833  0.0121 -0.2754
16109W        W35643  10.494  16.295   1.624  0.1104 -0.1145  0.1015
16110W        W35644  16.588   1.110  13.247  0.1101 -0.1384 -0.0981
16111W        W35645   6.646   0.859  12.880 -0.0718  0.3025  0.1139
16112W        W35646   3.970   8.598   1.346 -0.0604 -0.0458 -0.0806
16113W        W35647  11.150   4.653  10.851  0.2067  0.0177 -0.0012
16114W        W35648   2.145   6.523  14.222 -0.0141  0.3960 -0.0335
16115W        W35649   0.193   7.576  12.136 -0.0860  0.3039 -0.1646
16116W        W35650  16.998  14.962   4.619  0.1527 -0.0669 -0.2808
16117W        W35651   8.733   9.809  13.180  0.2715  0.0133 -0.1406
16118W        W35652   8.064  16.044   3.967  0.1310  0.1911  0.1038
16119W        W35653  11.902   2.281  11.126 -0.2950  0.2189 -0.1391
16120W        W35654   7.386   4.222  13.760  0.0832 -0.1250 -0.1587
16121W        W35655  10.731   9.073  11.024  0.1431  0.0757  0.1435
16122W        W35656   2.234  14.937  10.264  0.1985 -0.2160  0.1003
16123W        W35657   5.758  16.291  12.103  0.0563  0.1282  0.0551
16124W        W35658   8.648   6.217  14.102 -0.0294  0.4102  0.1862
16125W        W35659   1.118   4.680   1.288 -0.1171  0.2040 -0.1096
16126W        W35660   2.363  15.335   0.357  0.1087  0.0355  0.0055
16127W        W35661  13.448  12.409   3.414 -0.1712 -0.2168 -0.0847
16128W        W35662   5.648   1.739  12.878  0.0387 -0.0934  0.1021
16129W        W35663  17.058  13.101  12.136 -0.0057 -0.1519  0.1655
16130W        W35664  13.671   1.295   3.401 -0.1270 -0.0947  0.3038
16131W        W35665  18.173  17.876  12.997  0.2138  0.0013  0.4760
16132W        W35666  15.238  17.015  10.285  0.0390 -0.0286  0.0455
16133W        W35667  10.549  19.241  11.594  0.1877  0.2335 -0.2550
16134W        W35668  18.880  12.451  11.678 -0.2263  0.0148  0.0674
16135W        W35669  14.265   1.921   4.463 -0.0662  0.3312  0.3259
16136W        W35670  12.837  10.921   0.418  0.2373  0.1624  0.0451
16137W        W35671  11.509   4.589   3.941 -0.1243 -0.0149  0.3518
16138W        W35672   7.644  18.173  14.037 -0.0342  0.1301  0.0137
16139W        W35673   3.749   1.377  11.976 -0.0089  0.0435 -0.0601
16140W        W35674   1.296   9.745  11.191 -0.2346 -0.0776  0.1173
16141W        W35675  10.055  18.858   1.981  0.3314 -0.0638 -0.1907
16142W        W35676   8.710  13.273  12.829 -0.0858  0.1089 -0.0829
16143W        W35677  18.098  18.948  12.716 -0.0074 -0.0902 -0.0839
16144W        W35678   8.928   8.770   2.246 -0.0336  0.0266  0.0602
16145W        W35679   5.775   3.213  11.256 -0.0040  0.1097  0.0371
16146W        W35680  16.290   5.429   4.290 -0.0685 -0.3732 -0.3556
16147W        W35681   8.676   7.466  14.038 -0.1459  0.0603 -0.3611
16148W        W35682  19.488   5.808  10.932 -0.0991 -0.0588  0.0895
16149W        W35683  17.486   7.296   1.299 -0.0497  0.3318  0.2546
16150W        W35684   5.667  13.777  13.328 -0.0315 -0.1522 -0.0526
16151W        W35685  14.141   0.493   2.909 -0.0285  0.2237 -0.2169
16152W        W35686  15.039  10.501  13.811 -0.0851 -0.4489 -0.0849
16153W        W35687  18.297  10.785  12.186  0.2300  0.2710 -0.3717
16154W        W35688  15.489   8.101   0.941 -0.0407  0.1210 -0.0178
16155W        W35689  12.124   7.221   3.004  0.0660 -0.2931 -0.0632
16156W        W35690  11.180  15.176  10.753 -0.0402 -0.1547 -0.0994
16157W        W35691  16.118  14.353   3.615 -0.0973 -0.1096 -0.0293
16158W        W35692  11.747  17.791  13.165  0.1842  0.2862 -0.1639
16159W        W35693   8.047   3.799   4.096  0.0191 -0.3098  0.1214
16160W        W35694  11.867   8.199   1.655 -0.0859  0.2356  0.0194
16161W        W35695  18.088   8.246  13.615  0.1215 -0.1052  0.0283
16162W        W35696  17.843  11.120  14.290 -0.0862  0.2197  0.0559
16163W        W35697  11.302   7.517   0.900 -0.2115  0.0414  0.1280
16164W        W35698   9.412   6.709   2.899 -0.1411 -0.1917  0.0905
16165W        W35699   7.969   1.566   1.225  0.0963 -0.2756 -0.0627
16166W        W35700   2.842  13.956  12.343  0.1938  0.0504 -0.0960
16167W        W35701   8.317   3.313   0.633 -0.0190  0.5085  0.3516
16168W        W35702   6.244  18.020   5.110  0.2012  0.0447  0.1149
16169W        W35703   4.061  13.705   2.122 -0.1791  0.0090  0.3695
16170W        W35704  18.058  10.573   9.906 -0.1132 -0.2262 -0.1561
16171W        W35705  10.153  12.471   2.390 -0.1327 -0.1191  0.2060
16172W        W35706  16.091  14.316   1.270 -0.2852 -0.2751  0.0947
16173W        W35707   9.979  10.844  10.817  0.2216 -0.0597 -0.0088
16174W        W35708   5.725  11.345   3.232 -0.2550 -0.3372  0.1273
16175W        W35709   2.707  14.132   1.152 -0.0003  0.1410 -0.0834
16176W        W35710   8.885  16.499  11.021  0.1095 -0.3260 -0.0203
16177W        W35711   8.906  11.535  13.563  0.0867  0.3053  0.2310
16178W        W35712   8.123   1.074  11.781 -0.1339 -0.3486 -0.1772
16179W        W35713  12.217  19.377  12.813  0.0065  0.1062 -0.2612
16180W        W35714  12.350  16.114   0.488  0.0067  0.1098  0.1210
16181W        W35715  17.419   2.896  11.546  0.3508  0.0984  0.3751
16182W        W35716  19.006   6.035   3.305  0.1777 -0.0912  0.1649
16183W        W35717   5.978  14.039  13.867  0.1771 -0.0685 -0.3335
16184W        W35718  17.293  18.315   3.158  0.1992 -0.1568 -0.4099
16185W        W35719  17.048   5.788  13.120 -0.0023 -0.0515 -0.1372
16186W        W35720  10.408   2.548  13.514 -0.0238  0.0054 -0.0373
16187W        W35721  10.985  11.323  12.104 -0.0762 -0.6574  0.2810
16188W        W35722   6.699   7.423  11.542  0.1538  0.1010  0.0544
16189W        W35723   3.054  15.280   3.887  0.0462 -0.3058 -0.2482
16190W        W35724   6.342  10.275   0.908 -0.0850 -0.0471 -0.0126
16191W        W35725   1.618  16.757   0.948  0.2815 -0.3432  0.1199
16192W        W35726  16.601   8.142  12.928  0.1032 -0.4577 -0.1736
16193W        W35727  13.027  14.591  11.908  0.0636  0.0420 -0.2048
16194W        W35728  19.163  16.153   3.019  0.1637 -0.0906  0.1404
16195W        W35729   0.360  15.417  13.403 -0.1779 -0.1465  0.0208
16196W        W35730  11.358  10.277  13.689 -0.1550  0.1738 -0.2355
16197W        W35731  15.829   2.060  10.279  0.0361 -0.0981  0.3830
16198W        W35732   6.592   1.758  12.881 -0.1846  0.0944  0.0383
16199W        W35733  10.644   9.299  11.465  0.1923  0.0319 -0.1188
16200W        W35734   7.372  18.406   3.833 -0.1040 -0.2460  0.1761
16201W        W35735   8.022   6.630  10.298  0.0230  0.1887 -0.1120
16202W        W35736   1.741   1.200  11.474  0.3561 -0.2132 -0.1735
16203W        W35737  14.862  14.943   9.225 -0.0984  0.1125 -0.2042
16204W        W35738   6.198  19.413   1.117  0.1792 -0.0640 -0.1272
16205W        W35739  18.962   5.555   1.868 -0.1198 -0.1615 -0.1982
16206W        W35740   6.754  12.124  14.299 -0.0467 -0.0355 -0.1654
16207W        W35741   4.718  10.223  13.094  0.2147  0.0325 -0.0719
16208W        W35742  12.680  16.197  12.391 -0.4554  0.1842 -0.2700
16209W        W35743   1.373   8.356   2.981  0.2451 -0.0136 -0.2090
16210W        W35744  11.384   0.184  14.342 -0.1788  0.0064 -0.0924
16211W        W35745  12.157   2.278   1.610 -0.0241 -0.0686  0.0745
16212W        W35746   1.955   9.140   2.310  0.3046  0.1709 -0.1136
16213W        W35747  10.557  17.576   3.045  0.0513  0.0926  0.0959
16214W        W35748   4.733   1.982  13.724  0.1461 -0.0239  0.1174
16215W        W35749   9.895  14.530   2.778  0.1616  0.1810 -0.3893
16216W        W35750   5.831   2.793  12.330 -0.0312 -0.1645 -0.1994
16217W        W35751   4.241   5.461   0.478  0.0328  0.0539  0.0246
16218W        W35752  16.411  13.026  13.737 -0.0636  0.0456  0.5072
16219W        W35753   4.092  18.538   2.856  0.2276 -0.2990 -0.1336
16220W        W35754  19.521  13.817   2.368  0.1681 -0.0107 -0.1076
16221W        W35755  14.263   7.002   4.319 -0.0936 -0.5533 -0.2033
16222W        W35756   2.512  14.600   1.127  0.1739  0.1151  0.0651
16223W        W35757   2.824   2.773   1.641 -0.1439 -0.4806 -0.1902
16224W        W35758  19.537   7.257   2.520  0.1826 -0.1216  0.0888
16225W        W35759  17.029  16.390   1.583  0.1972  0.0663  0.0527
16226W        W35760  11.801   4.561   0.746 -0.1587  0.0898  0.1687
16227W        W35761   5.095  14.244  10.384  0.0528 -0.2305 -0.0437
16228W        W35762   3.954   2.685   2.123  0.2017 -0.0713  0.0029
16229W        W35763   0.004   5.142   4.558  0.1019 -0.0677  0.0907
16230W        W35764   1.915   0.067   0.311 -0.0711  0.0370 -0.0286
16231W        W35765   1.561   5.450   9.584  0.0558 -0.0001  0.0777
16232W        W35766   5.769   8.706   1.648  0.0440 -0.0355  0.0481
16233W        W35767   1.524  18.752   2.842 -0.0547 -0.2212  0.1120
16234W        W35768   3.915   1.221   0.836 -0.0160 -0.0436  0.1790
16235W        W35769  16.889  17.972  12.944  0.2927  0.0451  0.0496
16236W        W35770  16.371   9.285   3.675  0.1680  0.1603  0.0613
16237W        W35771   1.482  11.553  11.853  0.3546  0.3033  0.2807
16238W        W35772   8.338   9.469  13.221 -0.0689  0.0837  0.0076
16239W        W35773   6.308   9.751   0.047  0.2081  0.1045  0.1762
16240W        W35774   3.851   6.876  13.051  0.0560 -0.3217  0.1889
16241W        W35775   2.235   0.750   2.102 -0.2227  0.1733  0.2848
16242W        W35776  10.428  16.529  11.119 -0.1454  0.0113  0.1379
16243W        W35777  16.166  19.300  12.893 -0.0526  0.1631 -0.1794
16244W        W35778  18.953  15.982   3.418 -0.0371 -0.0618  0.1038
16245W        W35779  15.907  16.202   3.634 -0.0812 -0.1991 -0.0564
16246W        W35780  10.589  15.215   3.435  0.3689  0.1325  0.0681
16247W        W35781  11.762  14.414   2.295  0.0657  0.1788  0.1890
16248W        W35782  18.411  12.999   0.583  0.1430 -0.0606  0.0448
16249W        W35783  12.476  14.544   2.009  0.0935  0.2629  0.2910
16250W        W35784   3.728  10.222   1.866 -0.1246  0.1718 -0.1133
16251W        W35785  18.929   0.513   0.651 -0.2308 -0.0028 -0.1414
16252W        W35786   7.314  10.006  12.273 -0.0254 -0.5817  0.4602
16253W        W35787  10.956   7.374  13.458  0.2142  0.1622  0.0237
16254W        W35788   7.676  10.617   2.584 -0.0105  0.0427 -0.0293
16255W        W35789   0.214   1.335  12.780  0.2439  0.0854 -0.1523
16256W        W35790  11.968  14.548  10.427 -0.0536 -0.0800  0.1377
16257W        W35791   2.770  17.048   9.680  0.2355  0.2873  0.1583
16258W        W35792  18.271  17.394   3.070 -0.0940  0.0571  0.1409
16259W        W35793  17.300   0.694  11.710  0.0940  0.1500  0.2058
16260W        W35794  13.934  18.551   1.931 -0.2109  0.0002  0.2070
16261W        W35795   8.979   0.005   2.898  0.0229 -0.0932  0.4501
16262W        W35796   6.301   8.785   3.556  0.1188 -0.1517 -0.2132
16263W        W35797   3.502  18.499  10.666  0.5452 -0.1489 -0.1638
16264W        W35798  19.250   6.766   2.751  0.1353  0.3435  0.0409
16265W        W35799   4.512  12.571  11.268  0.0140  0.3375  0.0534
16266W        W35800  17.726  12.102  10.808 -0.3959 -0.1481  0.1393
16267W        W35801  13.066   7.065   3.807 -0.0791 -0.1662 -0.0362
16268W        W35802  13.301   0.310  11.313  0.3418 -0.1297  0.0502
16269W        W35803  15.523  14.930  11.254  0.2155 -0.1852 -0.0164
16270W        W35804  11.610  15.428   2.679  0.2075 -0.1457  0.1120
16271W        W35805  19.347   9.363  10.365 -0.1529 -0.3236  0.0850
16272W        W35806   0.613   9.954  12.588 -0.0526 -0.3183  0.0077
16273W        W35807  10.822   3.685  14.083 -0.0138  0.1395 -0.0556
16274W        W35808   6.503   1.712  12.399 -0.0743 -0.0292 -0.1033
16275W        W35809   2.902   6.166  12.539  0.3266  0.1501  0.1319
16276W        W35810   4.404  18.178  10.928  0.3321  0.2921  0.2284
16277W        W35811  18.081  16.005   0.116  0.1456  0.0206  0.3522
16278W        W35812   8.309   8.741  11.190  0.0457  0.4411  0.1147
16279W        W35813  11.220   7.031  13.726  0.5226  0.3133  0.0801
16280W        W35814   7.941  12.747   2.339 -0.1122  0.4015  0.1182
16281W        W35815  10.916  17.785   3.228  0.0853 -0.1951  0.0453
16282W        W35816  15.045   3.648   0.724 -0.2661 -0.0922  0.1294
16283W        W35817  15.206  13.067  12.180  0.1894 -0.2514 -0.3233
16284W        W35818  13.472  18.482   1.669 -0.0437 -0.0400 -0.1142
16285W        W35819  10.831   1.392  14.038  0.3591  0.0616 -0.0698
16286W        W35820  17.434  17.062  12.992  0.1749 -0.4390 -0.0630
16287W        W35821   2.819  18.701   1.598 -0.0883 -0.0877  0.2221
16288W        W35822  17.626  15.896  14.209 -0.4335  0.2721  0.1017
16289W        W35823   2.799  15.270   1.390 -0.1541  0.1193  0.0811
16290W        W35824  15.577  13.412  14.214 -0.1564  0.0878  0.1241
16291W        W35825  11.370   9.795   0.945 -0.1193 -0.2292  0.0866
16292W        W35826   1.308  18.220   0.613 -0.2251  0.2083  0.1962
16293W        W35827  17.191  14.279   1.201 -0.0395 -0.2138  0.0665
16294W        W35828  14.836   2.741   2.705  0.2506 -0.4262 -0.0969
16295W        W35829   1.480   0.180   0.656 -0.0533  0.2133 -0.1400
16296W        W35830  12.260   6.018   2.994 -0.1170  0.1053 -0.0049
16297W        W35831   4.840  18.829   2.369 -0.0961 -0.1132 -0.0988
16298W        W35832   6.278   5.963  11.209 -0.1265 -0.0530 -0.1302
16299W        W35833  17.215   7.953   0.658 -0.0907  0.1969  0.3029
16300W        W35834  12.911   7.330  12.743 -0.0887  0.2195 -0.0021
16301W        W35835  16.246   1.482   0.479  0.1102 -0.0897 -0.0489
16302W        W35836  14.474  17.001   2.969  0.0050  0.0048  0.0182
16303W        W35837   0.136  16.944   3.245  0.0745 -0.1269 -0.0344
16304W        W35838   0.578   8.536   0.622 -0.0540 -0.1859 -0.1217
16305W        W35839   5.001  14.934   1.016  0.2795  0.0992 -0.2016
16306W        W35840  16.584   7.036   2.285 -0.0087 -0.0080  0.0483
16307W        W35841  15.179  15.558   2.723 -0.0405 -0.2170 -0.0468
16308W        W35842   7.832  10.484   0.733  0.0005 -0.0456 -0.1939
16309W        W35843   5.374  19.020   0.161 -0.4659 -0.1797 -0.1563
16310W        W35844  14.863   1.265  11.394  0.0574 -0.0079 -0.0332
16311W        W35845   6.177   6.777  11.847 -0.0515  0.3080  0.1979
16312W        W35846  10.186   5.877  11.470  0.0796  0.1327  0.3745
16313W        W35847  14.169  15.906  10.004 -0.0610 -0.0814  0.0168
16314W        W35848   5.304  15.493   2.733 -0.0747 -0.4224  0.1531
16315W        W35849   6.356   2.833  12.444  0.0225 -0.3206  0.3136
16316W        W35850   9.831   2.336   0.438 -0.1185 -0.0138 -0.0063
16317W        W35851  11.371   9.304  10.787  0.1999  0.0557  0.2203
16318W        W35852  11.595  13.521  13.908 -0.1840  0.0733  0.3220
16319W        W35853   6.156  15.097  12.213  0.2068  0.2041  0.3045
16320W        W35854  13.553   1.545  10.354  0.0527  0.0592  0.2664
16321W        W35855  12.006  12.224  13.215 -0.5034 -0.1015  0.0137
16322W        W35856   1.346   6.118  10.639  0.2049 -0.1032 -0.1065
16323W        W35857  17.345   7.402  14.216  0.0074 -0.0017 -0.0423
16324W        W35858  19.434  16.912  10.640 -0.0302  0.0962 -0.2101
16325W        W35859   2.127  16.564   3.524 -0.0639 -0.1172  0.0750
16326W        W35860   7.959   2.354  13.748  0.0121  0.2537  0.1726
16327W        W35861  19.482   6.185  11.281  0.0625  0.1596  0.1192
16328W        W35862  12.526  16.487   0.889  0.3072  0.0565  0.1067
16329W        W35863  11.770  11.272   4.250  0.3633  0.1743 -0.3503
16330W        W35864   4.217   5.595  13.366  0.0499 -0.1167 -0.0981
16331W        W35865  16.229  10.815   1.501 -0.0196  0.0674  0.1499
16332W        W35866  18.400  10.057  13.083 -0.2499 -0.3974  0.0458
16333W        W35867  10.809  19.359   0.166  0.0433  0.1265 -0.0349
16334W        W35868  11.467   5.164  11.965  0.2982  0.0998  0.0965
16335W        W35869   1.700   3.518  13.785 -0.1088 -0.0396  0.0373
16336W        W35870   5.701  10.460   4.382 -0.0712 -0.0906  0.3343
16337W        W35871   2.518   0.978  10.267  0.1294  0.0031 -0.2308
16338W        W35872  15.732  18.991  13.310  0.1845  0.0904  0.1219
16339W        W35873  11.267   7.709  11.895  0.2019 -0.0477  0.0598
16340W        W35874  13.602   1.785  11.229  0.1074  0.0476  0.2176
16341W        W35875   1.123   4.830   3.115 -0.0270 -0.2153  0.0649
16342W        W35876  18.063  16.659   1.645  0.1261 -0.0291  0.1940
16343W        W35877  10.097  17.452  13.107 -0.0634  0.1473 -0.1890
16344W        W35878  12.301   9.826   0.083 -0.0640 -0.0450  0.2903
16345W        W35879   3.256   5.678   0.509  0.0380  0.1673 -0.2313
16346W        W35880   0.681   1.458   1.688 -0.2298  0.0630 -0.2301
16347W        W35881   2.262  14.885   0.494  0.3671 -0.0854 -0.1287
16348W        W35882   4.819  12.557   3.663 -0.1669  0.1151 -0.0138
16349W        W35883   2.262  12.697   2.763  0.0459 -0.1428 -0.2843
16350W        W35884   4.548   9.010   1.343  0.0509 -0.0985 -0.1247
16351W        W35885   2.533   5.554   1.243 -0.2502 -0.1296  0.3102
16352W        W35886  15.161  18.434  11.764 -0.1372  0.0416 -0.1335
16353W        W35887   7.123   0.002   2.540 -0.0889 -0.1556 -0.3484
16354W        W35888   7.739  14.091   2.467 -0.0788  0.3176 -0.0459
16355W        W35889   2.599   1.886   2.028  0.1173 -0.1476 -0.0563
16356W        W35890  11.222  19.522   1.995 -0.1323 -0.3010  0.0592
16357W        W35891  17.563   9.553  11.613  0.0266 -0.2859  0.1882
16358W        W35892  11.434   7.536  13.738 -0.1025 -0.0462 -0.0405
16359W        W35893  18.717  10.887  14.210  0.1438 -0.0577  0.1731
16360W        W35894   6.020  16.889  11.552  0.1768 -0.3548  0.1153
16361W        W35895   9.427  18.421  13.637 -0.0057  0.0952  0.3781
16362W        W35896  18.320  10.476   4.118  0.3970 -0.0188  0.3551
16363W        W35897  19.329  16.205  10.929 -0.1783 -0.3124 -0.0059
16364W        W35898  10.426  14.694   2.027  0.0137 -0.2284 -0.0883
16365W        W35899   2.110  12.969   1.667  0.0554 -0.1417  0.0349
16366W        W35900  16.195   2.975   2.856  0.2258 -0.0691 -0.0677
16367W        W35901  10.533  11.065   2.336 -0.2858  0.1087  0.1433
16368W        W35902  10.523   7.705  13.582 -0.0269 -0.1658 -0.0772
16369W        W35903   2.130  10.373   4.868 -0.0280 -0.0650  0.1191
16370W        W35904  13.870  18.360   0.272 -0.3100  0.1059 -0.3950
16371W        W35905  10.178  10.391  13.363  0.0318 -0.3128  0.2280
16372W        W35906  17.969   2.794   1.688  0.0423 -0.2108 -0.1176
16373W        W35907  19.265   0.367  11.824  0.3714  0.1178  0.1007
16374W        W35908   8.067  10.074   0.874 -0.0182  0.0265 -0.0991
16375W        W35909   4.690  10.273   3.836 -0.0038  0.0646 -0.2044
16376W        W35910   1.955  11.615   2.946  0.0160  0.4782  0.1853
16377W        W35911  18.840   1.550  12.324  0.1269 -0.1369  0.4076
16378W        W35912   3.884  14.780   2.048  0.2326 -0.1677  0.0441
16379W        W35913  16.753   7.436   0.609  0.1306  0.1867 -0.0060
16380W        W35914   5.733   3.549   3.289  0.0944  0.0604 -0.0896
16381W        W35915   4.282  12.480   4.360 -0.0095  0.0787  0.1027
16382W        W35916  17.138   1.525  10.833  0.0303  0.0988  0.0582
16383W        W35917   2.364  13.815   1.599  0.0417 -0.1612 -0.0117
16384W        W35918   4.560   0.639  13.670 -0.1693 -0.0726  0.2681
16385W        W35919   8.392  10.292   4.824 -0.2588 -0.2723  0.1254
16386W        W35920  12.163   4.869  11.134 -0.0903 -0.0695 -0.1365
16387W        W35921   0.225  15.638   1.537  0.2463  0.0117  0.3647
16388W        W35922  13.401   1.461  11.550  0.4911 -0.3697 -0.1266
16389W        W35923  11.993  17.081   2.391  0.3541 -0.1085  0.2425
16390W        W35924  17.241  16.454  10.896 -0.0041 -0.0510 -0.0920
16391W        W35925  16.777   1.782  11.235  0.0277  0.1302 -0.1458
16392W        W35926   5.085   5.171  11.896 -0.3371  0.1298  0.1255
16393W        W35927  18.124  10.007  11.061 -0.2422 -0.1820  0.0939
16394W        W35928   7.030   4.778   2.397  0.1069 -0.0565  0.0671
16395W        W35929   7.656   0.003   2.450 -0.2761 -0.0619  0.2247
16396W        W35930   4.714  13.667  11.410 -0.0452  0.2666  0.2975
16397W        W35931  16.127  17.978   3.996  0.0671 -0.2829 -0.2342
16398W        W35932  18.532   7.422   2.124 -0.1404  0.2288  0.0761
16399W        W35933   1.916  10.427   2.394  0.0592 -0.1604  0.0742
16400W        W35934   0.463   0.624   2.453 -0.1862 -0.1453  0.0947
16401W        W35935  18.649  13.348  10.148 -0.2432 -0.3442 -0.1895
16402W        W35936  14.068   1.632  10.481 -0.1425 -0.0152  0.3457
16403W        W35937   1.603   4.301   0.768 -0.2239 -0.2383 -0.0446
16404W        W35938  16.444   3.474   1.559  0.2188 -0.1151  0.0900
16405W        W35939  15.137   3.035  13.655 -0.1648 -0.0187 -0.0987
16406W        W35940  15.517  10.257  13.977 -0.3175 -0.3957  0.3777
16407W        W35941   7.093   8.495  10.228 -0.0128  0.0292 -0.0162
16408W        W35942  12.410   4.812   3.548 -0.0859 -0.1962 -0.0165
16409W        W35943   3.313   2.851  13.048  0.1037 -0.0660 -0.1772
16410W        W35944   6.732  11.045  13.651 -0.1021 -0.0062 -0.3492
16411W        W35945   8.759   1.738   1.519 -0.1473 -0.2314 -0.0561
16412W        W35946  19.440   5.430  11.868  0.0550 -0.1395  0.0539
16413W        W35947  14.185   8.577   3.082 -0.3178 -0.0454  0.1045
16414W        W35948  13.320  12.272   8.690  0.0453 -0.1878  0.0493
16415W        W35949   6.368  14.697  10.609 -0.1742 -0.0859  0.0347
16416W        W35950   0.356  14.209  11.253  0.3276  0.1169  0.2793
16417W        W35951   4.787  11.536  13.936 -0.2473  0.1025 -0.1708
16418W        W35952   3.791  10.165  13.479  0.1876  0.0371  0.1099
16419W        W35953  13.009   6.269  11.153 -0.2010 -0.0521 -0.2045
16420W        W35954  12.173  17.005  13.241  0.2818 -0.1738  0.0444
16421W        W35955   0.492  16.444  13.722 -0.1618  0.2029 -0.0002
16422W        W35956  10.636  12.479   2.660 -0.0834  0.1569  0.1704
16423W        W35957  17.208   5.636   2.110  0.4617  0.3631 -0.1382
16424W        W35958   0.566   2.662  13.519 -0.4165 -0.1337 -0.0618
16425W        W35959   8.761  16.743  10.520 -0.1359  0.2647 -0.0014
16426W        W35960  18.118  14.961   0.956 -0.0921 -0.1291 -0.0111
16427W        W35961  14.589   9.090   1.019 -0.0577 -0.1976 -0.0705
16428W        W35962  15.616  16.523  13.606 -0.2525  0.1231  0.0096
16429W        W35963  14.058   1.151  10.353  0.0689 -0.1316 -0.5190
16430W        W35964  12.132   8.394  13.660 -0.4615 -0.3829 -0.0131
16431W        W35965  18.998  16.152  10.383 -0.0544  0.0259  0.0878
16432W        W35966   5.887  12.376  11.291  0.3394 -0.1105  0.1620
16433W        W35967  10.161  10.623   1.852 -0.2116  0.2879 -0.1796
16434W        W35968  16.042  19.092  12.432  0.1668 -0.3064 -0.1411
16435W        W35969  19.047  15.958   0.142  0.2166  0.4908  0.2929
16436W        W35970   0.697   7.101   0.923  0.1074  0.1326  0.2423
16437W        W35971   9.396   3.314  11.031 -0.1306  0.0790 -0.0284
16438W        W35972   5.826  11.505  13.741  0.3487 -0.0518  0.1317
16439W        W35973   3.411   2.568  11.885  0.2363 -0.2868  0.0283
16440W        W35974   6.638  11.997  12.457 -0.3167 -0.1529 -0.0291
16441W        W35975   6.147   1.475  12.687  0.0430  0.0466 -0.4454
16442W        W35976  17.254  11.945   1.887  0.1064 -0.0194 -0.1086
16443W        W35977   6.970  12.207   1.855  0.1204  0.2065  0.1612
16444W        W35978   6.659  15.125  13.574 -0.3437 -0.0975  0.1868
16445W        W35979  14.288  19.327   3.876 -0.0361  0.0106  0.1438
16446W        W35980  18.650  15.832   1.007 -0.0023  0.1979  0.1535
16447W        W35981  15.511   4.633  13.568 -0.0139  0.0985 -0.2931
16448W        W35982   6.490  14.005  13.912 -0.4532  0.2020  0.1131
16449W        W35983  11.059   0.344   9.239 -0.4104  0.0010 -0.1334
16450W        W35984  15.399  14.843  11.709 -0.1121  0.1549  0.0008
16451W        W35985   5.229   9.450  12.069  0.0484  0.1284  0.1618
16452W        W35986   7.033  18.691  12.790 -0.3585 -0.2535  0.1764
16453W        W35987  18.942  11.041   4.083 -0.2202  0.0833 -0.2379
16454W        W35988  14.846   1.890   1.147 -0.0479 -0.0247  0.1518
16455W        W35989   1.568   9.283  13.748  0.0932  0.5024 -0.1536
16456W        W35990   3.491  16.058   4.025 -0.0676 -0.1834  0.2456
16457W        W35991   7.859   2.340  11.551  0.0864 -0.1233 -0.0299
16458W        W35992  13.555   4.447   3.670 -0.0753 -0.1615 -0.2150
16459W        W35993   8.506  15.514   1.831 -0.0322  0.0991 -0.1119
16460W        W35994   9.978  14.917  10.808 -0.0949  0.1386 -0.1815
16461W        W35995   7.774   5.348   3.914  0.0158 -0.0019 -0.0338
16462W        W35996  10.757   9.545  14.173 -0.0380 -0.0355 -0.3325
16463W        W35997   4.471  11.804  11.612 -0.0322 -0.0171  0.0219
16464W        W35998  11.187   6.132  12.422  0.0504  0.1045  0.2836
16465W        W35999  10.010   7.635  13.887 -0.2427  0.0089 -0.0075
16466W        W36000  11.083  11.593   3.677  0.2283 -0.0177 -0.0161
16467W        W36001   6.464  12.995   4.776  0.3322  0.2562  0.3497
16468W        W36002   4.448  19.264   0.311  0.0949 -0.1919  0.0024
16469W        W36003   7.178  14.124   2.756  0.0872 -0.3581 -0.0531
16470W        W36004   5.815  10.841   3.936  0.1110  0.0146 -0.5475
16471W        W36005   1.603  17.403   3.869  0.2845 -0.0104 -0.2331
16472W        W36006  12.208  13.358  11.303  0.2831  0.2650 -0.1440
16473W        W36007  15.086   1.060  10.968 -0.0249  0.1178 -0.2460
16474W        W36008  13.345   0.583  12.023  0.1475  0.1831 -0.3516
16475W        W36009  12.900  12.824  13.367 -0.0887 -0.0740  0.4952
16476W        W36010   1.070  14.048  11.778  0.0785 -0.2462  0.0017
16477W        W36011  11.893  15.411  11.572 -0.1800 -0.1721  0.2356
16478W        W36012   8.315  12.383   1.912  0.0382  0.2599 -0.1107
16479W        W36013  13.596   3.610  13.844  0.0662 -0.0018 -0.2182
16480W        W36014   3.927  12.077  10.289 -0.0587 -0.2448  0.0485
16481W        W36015   8.604  16.682   0.855  0.2046 -0.0594 -0.1372
16482W        W36016  17.202   3.576  11.375 -0.0331  0.0154  0.0462
16483W        W36017   6.753  13.647  13.553 -0.1127  0.0312  0.1468
16484W        W36018   8.583   0.085   2.465 -0.1877 -0.0931 -0.1023
16485W        W36019   1.618   7.874  10.951 -0.0339 -0.0292 -0.1775
16486W        W36020   4.795  13.965   1.458 -0.2753 -0.0201  0.1531
16487W        W36021   3.708  17.304  13.387  0.0296  0.1977  0.1902
16488W        W36022   7.466  14.664  12.437 -0.1970  0.2130  0.0710
16489W        W36023  13.035  10.988   9.585 -0.0556 -0.2898  0.0538
16490W        W36024   6.688   4.439  14.081 -0.1948 -0.1281 -0.3547
16491W        W36025   9.895  19.471   1.191  0.0864  0.2191  0.4040
16492W        W36026  18.829  15.943   2.176  0.1684  0.0334  0.2217
16493W        W36027   9.634  12.329   3.231 -0.0571  0.0180  0.0261
16494W        W36028   3.717   3.670  13.575 -0.1451  0.2518 -0.3075
16495W        W36029  15.436  12.476   0.612 -0.4526 -0.0144 -0.1687
16496W        W36030  15.661   0.366  10.908  0.4488  0.0942  0.1732
16497W        W36031  16.379   4.608   1.988  0.0701  0.4720  0.0793
16498W        W36032  14.568   9.790   3.369  0.2212 -0.2048  0.2084
16499W        W36033   9.313  12.818   4.981  0.0354 -0.3776 -0.0193
16500W        W36034  19.283  14.133  12.505  0.0528  0.4783 -0.2682
16501W        W36035  13.517  14.139   1.524  0.2176  0.1296  0.0194
16502W        W36036   7.441  18.443   0.483 -0.0316  0.3980  0.0050
16503W        W36037  14.843   6.844  11.237 -0.1430 -0.0061 -0.4009
16504W        W36038   6.492   7.500  10.657 -0.0988  0.1530 -0.3016
16505W        W36039   7.642   0.253  13.795  0.0985 -0.1223 -0.1111
16506W        W36040   7.112  17.682   9.715 -0.1824  0.1696  0.0552
16507W        W36041  14.831   8.337   1.679  0.0526  0.3414  0.0074
16508W        W36042  14.154  10.447  10.520  0.0042  0.0458  0.0582
16509W        W36043  14.454  19.162  13.292 -0.0128  0.1551  0.0113
16510W        W36044  12.881   5.909  13.969 -0.0312 -0.0152 -0.0087
16511W        W36045  17.706  11.469  12.577  0.1404 -0.2785  0.2039
16512W        W36046   7.142   4.980  12.936  0.1430 -0.1755 -0.1819
16513W        W36047   0.130  12.427  11.554 -0.1662 -0.0259 -0.0112
16514W        W36048  13.237  14.258  13.357 -0.1580  0.2855 -0.0606
16515W        W36049  12.247   7.916   0.727 -0.3455 -0.0170  0.0982
16516W        W36050  19.355  16.551   3.240 -0.0864 -0.2110  0.1197
16517W        W36051   1.007  10.857  11.991 -0.2066 -0.1119 -0.3023
16518W        W36052   5.157   6.677   1.197  0.2576 -0.4921  0.0712
16519W        W36053   4.151  15.337  10.463  0.1912 -0.0307 -0.0084
16520W        W36054  18.850  13.986  14.334 -0.1619 -0.3335 -0.1765
16521W        W36055  14.704  16.646  13.615 -0.3169 -0.1533 -0.2318
16522W        W36056   4.128   0.967  12.788  0.1000 -0.3198 -0.0212
16523W        W36057  12.350   1.817   1.399  0.1300  0.0306  0.2425
16524W        W36058  11.768  13.502  10.103 -0.1400 -0.0216 -0.0683
16525W        W36059   0.857   3.802   1.420 -0.1260  0.0179 -0.1699
16526W        W36060   6.406   9.530   1.486  0.0665  0.1086 -0.0710
16527W        W36061   3.174  12.601   0.366 -0.1406 -0.0430 -0.2250
16528W        W36062   9.443  18.128  12.538  0.1935 -0.0673 -0.1092
16529W        W36063  10.265   4.704  10.650 -0.1610 -0.0251  0.0565
16530W        W36064   3.572  11.991   2.992  0.1147  0.3279 -0.0750
16531W        W36065   8.393   3.631  12.696 -0.2319 -0.0789  0.1439
16532W        W36066   7.758   5.798  11.531 -0.0232 -0.2046  0.2839
16533W        W36067   7.295   0.029   3.788  0.0080 -0.0338  0.0168
16534W        W36068  14.849  10.185   3.591  0.0511 -0.0461  0.0320
16535W        W36069   2.037   0.602  10.759  0.1748 -0.1018  0.1633
16536W        W36070   2.743   8.471  11.614  0.1020 -0.1391 -0.0259
16537W        W36071  14.376   3.299  10.994 -0.4039 -0.0085 -0.5264
16538W        W36072  15.071   0.183   3.833  0.0201 -0.1802 -0.1231
16539W        W36073   9.788  12.907   3.286  0.0203 -0.2300 -0.2756
16540W        W36074  19.468  10.577   0.498 -0.0500  0.0397  0.3093
16541W        W36075  18.006   2.737   0.097  0.0528  0.1405 -0.1235
16542W        W36076   4.560   1.348  13.892  0.2330 -0.0809  0.0891
16543W        W36077   7.937   7.127   3.554  0.1949  0.1073 -0.0011
16544W        W36078   7.271  18.850   0.759 -0.0991  0.0931 -0.0315
16545W        W36079  19.052   7.528   2.496  0.1005 -0.3018 -0.1127
16546W        W36080   9.795  14.100   0.165 -0.0032  0.2404  0.1819
16547W        W36081   8.047  18.936  12.749  0.1876  0.0390 -0.0277
16548W        W36082  16.965  17.866  10.275  0.0215  0.1622  0.1672
16549W        W36083   8.739  13.145   1.697  0.0726 -0.1397  0.0245
16550W        W36084   0.419   8.667   2.133  0.0468 -0.0477 -0.0054
16551W        W36085  14.112  18.206  14.163  0.2432  0.2329  0.1845
16552W        W36086  13.643  14.413  10.402  0.1688  0.2504 -0.1908
16553W        W36087   4.196   9.193  11.110 -0.0467 -0.0163  0.0347
16554W        W36088  12.527  12.819   3.531 -0.2075 -0.3373 -0.2625
16555W        W36089  13.476   8.128   3.976  0.2084 -0.2046  0.0346
16556W        W36090   8.410  15.822  11.140  0.0857  0.3945 -0.1322
16557W        W36091   8.863   6.041   1.574 -0.0679 -0.1417 -0.1195
16558W        W36092   1.547   5.240   2.352 -0.1398  0.0045  0.1982
16559W        W36093  10.835   0.180   4.140 -0.0287  0.1718  0.0215
16560W        W36094   3.798   8.450  10.790 -0.0650 -0.0047  0.1749
16561W        W36095  16.106  18.756  11.925  0.1196  0.1000  0.3362
16562W        W36096  18.199  19.006   0.857 -0.2675  0.0965 -0.0906
16563W        W36097  10.552  14.603  12.254 -0.1315  0.0957 -0.3583
16564W        W36098   2.769  18.196  12.621 -0.1607 -0.1346 -0.2480
16565W        W36099   2.641   0.618  13.925 -0.0062  0.3552 -0.0281
16566W        W36100  10.188  10.840   3.227  0.1578 -0.0950  0.1739
16567W        W36101  18.959   5.719  11.088 -0.0819  0.1016  0.1742
16568W        W36102  15.345  10.857  14.055 -0.3599 -0.4114  0.1865
16569W        W36103   7.992  15.598  13.170 -0.0974 -0.2965 -0.2126
16570W        W36104  18.288  16.126   2.004 -0.0370 -0.1156  0.0877
16571W        W36105   6.612  10.950   2.569  0.0615 -0.0422  0.3215
16572W        W36106   5.578   2.173   0.907  0.1330  0.0144 -0.0404
16573W        W36107   4.799  15.638  13.660 -0.0025 -0.0780 -0.1008
16574W        W36108  14.554  13.467  11.658  0.1983  0.0643  0.1251
16575W        W36109   3.997   6.650  10.269 -0.4510  0.2478 -0.0871
16576W        W36110  14.927   9.605  10.482 -0.0198 -0.2878  0.0379
16577W        W36111   9.637   9.606   0.316  0.0766  0.3456 -0.2151
16578W        W36112   3.825   8.095   2.307 -0.1331 -0.1218  0.1619
16579W        W36113   5.925   5.799   1.441 -0.0943  0.0688  0.2175
16580W        W36114   6.131  14.959  11.009  0.2326  0.0410  0.2035
16581W        W36115   3.209   7.404  12.657 -0.1032  0.1524 -0.2323
16582W        W36116  17.498  14.081  11.497  0.1688 -0.0729  0.0514
16583W        W36117   6.059   2.302   0.927 -0.1367 -0.1920  0.0708
16584W        W36118   7.255   7.125   2.755  0.2187 -0.2331  0.1051
16585W        W36119  18.123  15.678   1.563 -0.2296  0.0533 -0.1799
16586W        W36120   7.964  17.060  12.921 -0.1904  0.1841 -0.0917
16587W        W36121   8.299  12.220  10.586  0.1595 -0.0377 -0.1024
16588W        W36122   3.356  14.069  12.417 -0.0953 -0.2420  0.3674
16589W        W36123  14.306  16.852  13.420  0.1826  0.0807 -0.1100
16590W        W36124   2.636   0.010   1.566 -0.2064 -0.0987 -0.0510
16591W        W36125  15.998  14.570  14.281 -0.2370 -0.0886 -0.1742
16592W        W36126   4.353   6.028  11.229 -0.3201  0.0783 -0.0032
16593W        W36127   9.479  15.891   0.313  0.0103  0.2915  0.1045
16594W        W36128   3.525   5.913  13.600 -0.0229  0.0265 -0.1247
16595W        W36129   0.217   8.924  10.508  0.2545  0.0535 -0.0113
16596W        W36130  11.265  14.904   0.289 -0.1748 -0.0701 -0.1191
16597W        W36131   1.689   4.011   2.850 -0.1028 -0.0619 -0.1532
16598W        W36132  15.280   1.298   2.030  0.2056  0.1712  0.1312
16599W        W36133   6.577   3.431   3.564  0.1371  0.0646 -0.0849
16600W        W36134   6.355   6.513   1.127 -0.0377 -0.4468 -0.0951
16601W        W36135   4.039   8.182  12.829 -0.0012 -0.0015 -0.4197
16602W        W36136  13.704  12.186   2.570 -0.0316  0.0475  0.3879
16603W        W36137   7.011  11.681  10.631 -0.1749 -0.2284  0.1730
16604W        W36138  12.995  10.261   2.070  0.0464  0.1196 -0.2831
16605W        W36139  12.342  15.217  11.768 -0.0338 -0.1416  0.0287
16606W        W36140  14.168   1.377   2.618 -0.2221  0.0574  0.1494
16607W        W36141  14.671  12.126   0.789 -0.0127  0.4445  0.2312
16608W        W36142   3.638  17.566  10.571 -0.2112  0.1499 -0.0929
16609W        W36143  12.473   8.020  12.406  0.2903  0.1903 -0.2685
16610W        W36144  12.195   0.122  12.355  0.0489 -0.0984 -0.1419
16611W        W36145   7.162   8.354   0.973  0.0774 -0.0329 -0.1437
16612W        W36146   2.420  14.058  12.568  0.0195  0.0875  0.2420
16613W        W36147   3.132   9.863   2.059  0.0527  0.0427 -0.0884
16614W        W36148   0.574  16.726  11.236  0.4790 -0.2988  0.1069
16615W        W36149   8.232   4.150   9.135  0.0100 -0.1753 -0.1859
16616W        W36150  18.017   3.619   1.401  0.1122 -0.1510  0.2188
16617W        W36151  10.022   8.497  13.721 -0.1047  0.3159  0.3038
16618W        W36152   3.801  13.450  13.144  0.3928  0.0349 -0.0130
16619W        W36153   8.507  15.841  13.111  0.0219 -0.1579  0.1727
16620W        W36154   3.000  13.136  12.075 -0.0690 -0.2077 -0.0004
16621W        W36155   2.220   3.634  13.789 -0.0956  0.0845 -0.0782
16622W        W36156  11.749  14.191  12.197  0.1231  0.2187  0.1831
16623W        W36157  13.415   3.857   4.293  0.1177  0.0768  0.1130
16624W        W36158   0.065   3.117  13.629  0.1373 -0.0406  0.3866
16625W        W36159  10.424  13.774  10.558 -0.2089 -0.2274 -0.0200
16626W        W36160  17.099   3.737   1.300  0.1586 -0.1327 -0.2185
16627W        W36161  11.370   5.733  12.049 -0.2414  0.1914  0.1182
16628W        W36162  15.453   8.151  12.653 -0.1738 -0.1607  0.1863
16629W        W36163   9.573   8.871  13.274  0.1263  0.0226 -0.1820
16630W        W36164   3.019   8.237   2.873  0.0200 -0.0132 -0.0583
16631W        W36165  11.237   7.388   0.427 -0.0049  0.1104  0.0319
16632W        W36166   4.247   5.692   0.914  0.0751  0.2160 -0.3399
16633W        W36167   0.024   9.333  13.200  0.1507 -0.1415 -0.1576
16634W        W36168   8.937  13.188   0.762 -0.0186  0.2755  0.2587
16635W        W36169   7.560  13.684   9.883 -0.2731  0.1794  0.0257
16636W        W36170   8.037  18.034  11.488  0.3657 -0.2139  0.3297
16637W        W36171  15.530   9.542  13.071  0.0711  0.1357  0.1839
16638W        W36172   1.089  19.101   3.996 -0.0209  0.0039  0.1977
16639W        W36173   9.289  13.351   3.848  0.0751 -0.0370  0.3954
16640W        W36174   0.449   8.407  10.543  0.0236 -0.1086 -0.2926
16641W        W36175   2.461  11.157   3.519 -0.0576 -0.2117  0.1056
16642W        W36176   6.957   2.151  12.858 -0.1928  0.1858 -0.0203
16643W        W36177   1.884   7.802   0.917 -0.0977  0.2626 -0.0732
16644W        W36178   2.538  14.461  12.129  0.1905 -0.2273  0.2726
16645W        W36179  11.653   5.559  11.591 -0.3440 -0.0467 -0.5238
16646W        W36180   1.117   3.749  12.607  0.2061  0.0662 -0.0479
16647W        W36181  16.127   9.526  11.417  0.2023  0.4400  0.2718
16648W        W36182   0.588   0.483   1.932 -0.2350  0.1165 -0.0881
16649W        W36183  15.141  11.152   2.781 -0.2471 -0.1767  0.1713
16650W        W36184   3.875   8.514   2.615 -0.0652 -0.3009  0.1765
16651W        W36185  14.197   5.835   4.036 -0.1422  0.1594 -0.0103
16652W        W36186   0.361  10.767   1.289 -0.1868  0.1435  0.0663
16653W        W36187  18.071  11.545   2.087 -0.0337 -0.3299  0.2956
16654W        W36188   6.218  18.379   0.058  0.0356  0.2647 -0.4306
16655W        W36189  14.597   2.667   2.079 -0.1962  0.1358  0.2666
16656W        W36190   7.574   0.009  11.693 -0.0799  0.2829 -0.1333
16657W        W36191  10.369  15.253  13.209  0.1746 -0.1349 -0.3287
16658W        W36192  11.062   4.599   2.001  0.4292 -0.4399  0.4782
16659W        W36193  10.891  10.491  13.585 -0.1299 -0.2102 -0.1047
16660W        W36194  17.028   8.370  12.802 -0.0751 -0.0121  0.1425
16661W        W36195  10.642   1.660   1.524  0.0291  0.1195  0.0234
16662W        W36196  19.250   1.904   3.622 -0.1048 -0.3117 -0.0726
16663W        W36197   5.198   8.980  13.568 -0.0422  0.1200  0.0410
16664W        W36198  18.736  17.993  12.263  0.0910 -0.1600  0.2659
16665W        W36199   7.354  19.135   2.668 -0.2647 -0.4463  0.2229
16666W        W36200  15.850  16.638   2.151 -0.0950 -0.1090 -0.1409
16667W        W36201   3.944   8.267  13.335 -0.1451  0.1492 -0.1905
16668W        W36202  16.189  17.318  10.112 -0.3445  0.0815  0.4449
16669W        W36203   2.739   0.855   1.895 -0.0646 -0.1210  0.1061
16670W        W36204  11.769   5.919   2.831 -0.0526  0.1452  0.1529
16671W        W36205   1.951  15.114   0.140 -0.5844 -0.1951  0.1719
16672W        W36206   8.442  17.396  13.506 -0.3771  0.0472  0.1408
16673W        W36207  12.994   1.138   1.314  0.0510  0.0220  0.2164
16674W        W36208  15.697  10.664  13.762  0.4594  0.0107  0.0568
16675W        W36209  16.953   0.773  11.350 -0.0309  0.2772 -0.0124
16676W        W36210  11.904  18.045   0.593 -0.2008  0.1856  0.0649
16677W        W36211  14.414   4.874  13.029  0.1965  0.0358 -0.1734
16678W        W36212   3.436  12.431  14.073 -0.0544  0.0849  0.0433
16679W        W36213  15.099  17.817   4.252  0.0407 -0.3618 -0.0515
16680W        W36214   4.490  18.600  12.501  0.3295 -0.0974  0.0385
16681W        W36215  12.279  12.905  11.816  0.0214  0.0127 -0.1581
16682W        W36216  18.780  15.752  11.646  0.0698 -0.0119  0.1518
16683W        W36217   2.844  10.160   0.551 -0.0304 -0.2079  0.1137
16684W        W36218   4.847  13.195   4.307  0.0968 -0.0133  0.3143
16685W        W36219   2.963   0.822  13.538 -0.1296  0.2686 -0.1182
16686W        W36220   1.443  14.663   0.039  0.2303  0.3111  0.1056
16687W        W36221  16.454   5.077  12.935  0.2178 -0.0347 -0.4378
16688W        W36222  16.179  10.384   1.846 -0.1429 -0.3842 -0.2695
16689W        W36223  15.627   2.018  10.850 -0.0123  0.3659 -0.1700
16690W        W36224   3.747  15.991  14.242  0.1250  0.1390  0.0973
16691W        W36225   2.338   9.702  12.617 -0.0597 -0.2786 -0.3962
16692W        W36226   2.817  19.131   2.802  0.3813 -0.0762 -0.0415
16693W        W36227  17.119  16.509   0.775  0.1975 -0.0150 -0.2828
16694W        W36228   6.381  12.600  12.529  0.0946 -0.0721 -0.0069
16695W        W36229   7.842  13.486  10.300  0.1276  0.2532  0.1322
16696W        W36230   0.297   1.521   0.842  0.0114 -0.0609 -0.0985
16697W        W36231  16.296   7.726   3.611 -0.0846  0.0895  0.1483
16698W        W36232  12.973   7.226  13.602  0.0265 -0.2801  0.2708
16699W        W36233  19.090   4.952  13.911  0.3658  0.3715  0.0324
16700W        W36234  15.326   1.804   1.247  0.2181 -0.1078  0.1113
16701W        W36235  16.926  12.638  12.693  0.2182 -0.0485 -0.0913
16702W        W36236  12.058   9.168  13.100 -0.0316 -0.2089  0.1066
16703W        W36237   2.216  12.382  12.170  0.3425 -0.1896 -0.3564
16704W        W36238   8.817   9.058   1.495  0.2809  0.0317  0.1150
16705W        W36239   6.062  11.203   2.894 -0.2964 -0.3769 -0.0141
16706W        W36240  13.127   1.160   3.886  0.0131 -0.1974 -0.0467
16707W        W36241   8.773  18.548   0.979  0.0668  0.3409 -0.2621
16708W        W36242  11.478   8.837  10.735 -0.1507  0.2025 -0.0153
16709W        W36243   6.056  17.884   4.518  0.1120  0.4331  0.1009
16710W        W36244  14.869  17.797   3.724 -0.0412 -0.0226 -0.0801
16711W        W36245   7.725  12.836   3.721 -0.1707 -0.0186 -0.4263
16712W        W36246  16.530  11.921   9.930  0.1601  0.0782 -0.1500
16713W        W36247   3.773  18.502  11.490 -0.1092 -0.2261 -0.2034
16714W        W36248  14.065   4.599  11.645 -0.1223 -0.0460 -0.1686
16715W        W36249  17.911  19.481  11.553 -0.2964 -0.1354  0.1811
16716W        W36250  15.549  17.257   1.282  0.1009  0.0711  0.1288
16717W        W36251   5.799   1.480   0.469  0.1323  0.3207  0.4764
16718W        W36252  16.552  18.666  11.782 -0.3148 -0.1358  0.0392
16719W        W36253  17.450   7.964  11.606  0.1800 -0.1888  0.1573
16720W        W36254  13.559  17.186   1.301  0.0903  0.0447 -0.2700
16721W        W36255  11.855   9.861  12.514  0.1160  0.2238  0.1818
16722W        W36256   2.283  18.356  12.202  0.1035  0.1181 -0.2691
16723W        W36257   5.112  16.161  13.159 -0.2200  0.0641  0.0323
16724W        W36258  10.266   0.420  14.257 -0.2387  0.0399  0.0039
16725W        W36259   1.713  18.475  10.497 -0.0353 -0.0569 -0.0818
16726W        W36260  13.216  13.133   0.918 -0.3358  0.0037  0.0547
16727W        W36261  18.712   4.840   2.987 -0.3269  0.0011 -0.1691
16728W        W36262   1.234  17.672   0.434 -0.1082  0.0713  0.1556
16729W        W36263  16.847  10.674  13.940  0.0235 -0.0828 -0.0509
16730W        W36264   2.709   3.787  12.278 -0.1271  0.0217  0.1598
16731W        W36265  11.081  11.779   1.021 -0.1507  0.2668  0.1044
16732W        W36266   0.824   3.817   0.925 -0.3054  0.1848  0.2086
16733W        W36267  18.385   5.222   2.179 -0.1053 -0.0416 -0.0542
16734W        W36268   9.246   5.472   3.995  0.1836  0.0950  0.1048
16735W        W36269  14.938  13.208   3.411  0.0887 -0.1929  0.1787
16736W        W36270  13.903  13.294  12.244 -0.2786 -0.2863  0.2753
16737W        W36271  12.214  13.978   2.317  0.1140  0.0730 -0.0212
16738W        W36272  18.304  12.381   4.164 -0.0013 -0.2823 -0.0607
16739W        W36273   8.925   1.288   1.726 -0.0380 -0.1774 -0.1071
16740W        W36274   8.072   7.335  13.303 -0.3000  0.1521 -0.3374
16741W        W36275   4.067   7.981  11.710 -0.0159  0.0798  0.1022
16742W        W36276  13.112  18.899   4.104 -0.0287 -0.1954  0.1751
16743W        W36277   0.796   3.902  13.007 -0.0482 -0.0742 -0.2271
16744W        W36278   3.870   4.287   1.205  0.2172  0.0019 -0.0052
16745W        W36279   9.909   9.495   0.733  0.1306  0.2384  0.0907
16746W        W36280   7.050   9.793  11.739  0.1035 -0.5046  0.1343
16747W        W36281  10.929  12.271  12.352 -0.0051 -0.1437  0.0688
16748W        W36282   3.182  18.677  13.917  0.3396 -0.1521  0.0606
16749W        W36283  17.618   0.871   1.113 -0.1828  0.0320 -0.0622
16750W        W36284   6.278   5.833  10.721  0.1736 -0.3001  0.0568
16751W        W36285  17.039   0.075   2.251  0.3794  0.1406  0.0600
16752W        W36286   9.974   6.173   0.947  0.0379  0.2460  0.1481
16753W        W36287  15.473   7.306   0.840  0.2414 -0.0826 -0.4679
16754W        W36288   3.708  14.050   2.785 -0.1690 -0.0478  0.4325
16755W        W36289   8.962  10.585  11.574  0.0248 -0.1108  0.1673
16756W        W36290  14.591  11.925   1.206  0.0527 -0.0717  0.0394
16757W        W36291   9.464  13.745  11.802 -0.0966  0.0996  0.0084
16758W        W36292  15.997   6.031   3.229 -0.1815 -0.0444  0.3105
16759W        W36293  15.259  13.798   0.116 -0.1269 -0.1832  0.1451
16760W        W36294   5.816   9.187   0.690 -0.3609 -0.0065 -0.0847
16761W        W36295  11.541  13.159  11.800  0.0198  0.0894  0.1136
16762W        W36296   0.021  17.735  12.412 -0.1933  0.2047 -0.4227
16763W        W36297   4.275  19.278   1.736  0.1824  0.0378  0.0569
16764W        W36298   8.685   7.832   2.804 -0.0166  0.1855  0.2577
16765W        W36299  10.309  15.659   1.359  0.1859 -0.1714  0.0907
16766W        W36300  13.181   5.643   3.074 -0.2997 -0.0815 -0.0820
16767W        W36301   7.160   1.494  13.623  0.1090 -0.3780  0.0060
16768W        W36302  18.521   3.537  11.219 -0.2188 -0.1758  0.2852
16769W        W36303  13.914   5.795   2.941 -0.3456 -0.2246  0.2022
16770W        W36304   8.592  12.337   2.883  0.1892 -0.0390  0.0645
16771W        W36305   2.471   6.591  10.270  0.1464  0.3754  0.1869
16772W        W36306   4.134   9.980  11.408 -0.0461 -0.0416 -0.3572
16773W        W36307  12.672  13.734   1.612 -0.0235 -0.1003  0.0548
16774W        W36308  14.513   9.102   3.908  0.0626  0.0156  0.0831
16775W        W36309   6.295   1.684   2.005 -0.0084 -0.1258 -0.0366
16776W        W36310   8.796   6.866  12.301 -0.2779 -0.1967 -0.0987
16777W        W36311  15.761   5.721  13.868  0.2221 -0.1251  0.0026
16778W        W36312  11.851  18.460   4.310  0.0130 -0.0319 -0.1038
16779W        W36313   2.428  11.215  11.856  0.0138  0.0782 -0.0418
16780W        W36314   5.318  10.603  12.820  0.0128 -0.0091 -0.0422
16781W        W36315   4.371  14.926  10.184  0.0114  0.0232  0.2318
16782W        W36316  17.371  17.523  11.195  0.0104 -0.4007 -0.0511
16783W        W36317  16.172   7.022   3.608 -0.0855 -0.1357  0.1292
16784W        W36318   8.057  13.626  12.523 -0.0565 -0.0320  0.0343
16785W        W36319  13.389  14.063  12.855 -0.1834 -0.1094 -0.0866
16786W        W36320  18.567  16.658   2.878 -0.1738 -0.1405 -0.0522
16787W        W36321  16.506  14.037   1.575 -0.1453 -0.0895 -0.2262
16788W        W36322   9.254  18.574  12.678 -0.1358 -0.2692  0.3020
16789W        W36323  10.715   1.805   0.374 -0.1550  0.1154 -0.1016
16790W        W36324   3.775  10.022  12.821  0.0343  0.1753  0.1144
16791W        W36325  17.888   7.923  13.313 -0.0683 -0.1667  0.1153
16792W        W36326  14.607   1.213   0.423  0.0399 -0.1532 -0.3198
16793W        W36327  12.838   7.536   1.862  0.2720 -0.1040  0.0609
16794W        W36328   3.675   2.651   0.902 -0.2667 -0.0582 -0.0860
16795W        W36329  17.722   1.797   0.331  0.1397 -0.1964  0.1769
16796W        W36330   5.248  13.457  14.259 -0.1386  0.0336 -0.0680
16797W        W36331  15.714   5.327  10.869 -0.2616  0.3564 -0.1670
16798W        W36332  16.933  19.437  14.041  0.1253 -0.0480 -0.2150
16799W        W36333   8.160  11.873   1.868 -0.0294 -0.2255  0.0129
16800W        W36334  18.176  18.148  11.068 -0.2686  0.1232  0.0774
16801W        W36335  12.663  18.978   4.380 -0.1407 -0.2010  0.0930
16802W        W36336   5.275  16.588   0.069 -0.0222  0.1272  0.0580
16803W        W36337  10.127   6.885   2.435  0.0470 -0.2293 -0.1725
16804W        W36338   3.434  10.688  13.296 -0.1286 -0.3666  0.4024
16805W        W36339  16.914   6.539  11.797  0.6472  0.3700 -0.0445
16806W        W36340  14.039  15.255  10.825  0.0499  0.0988 -0.0234
16807W        W36341   7.058   3.683   1.038 -0.3633  0.0092  0.1793
16808W        W36342   0.876   1.829  13.348 -0.1317 -0.0179 -0.0251
16809W        W36343  13.641   2.829   0.323  0.1799 -0.3171  0.2283
16810W        W36344  13.078   0.545   3.248 -0.3630 -0.2420  0.3196
16811W        W36345   0.063  17.932   0.141  0.0433  0.1729 -0.2530
16812W        W36346  18.402   7.998  10.509  0.0427  0.1792  0.0828
16813W        W36347  13.585  19.016   2.276 -0.0602  0.1688 -0.1633
16814W        W36348   4.210   7.754  10.513 -0.3902 -0.1345 -0.1581
16815W        W36349  14.406   2.865   0.368  0.1923 -0.0669  0.1586
16816W        W36350  17.483   6.013   1.718 -0.2433 -0.0754 -0.0639
16817W        W36351  19.317   0.819  12.091  0.2214  0.0538 -0.1909
16818W        W36352  12.714  16.653  13.957  0.0083 -0.2037 -0.0848
16819W        W36353   1.229  11.468   3.230 -0.2440 -0.2514 -0.0020
16820W        W36354  12.394   7.204   2.467  0.2052  0.2102  0.0111
16821W        W36355  10.293  19.413  13.729 -0.1529 -0.1669 -0.1868
16822W        W36356  15.388   3.577  12.089  0.0323  0.2954 -0.1262
16823W        W36357  15.254   2.646  11.997 -0.1412  0.2824  0.2772
16824W        W36358  17.774   2.299  11.827 -0.1662 -0.0407 -0.2398
16825W        W36359  12.516   9.790  11.390 -0.2846 -0.1232 -0.1644
16826W        W36360   7.830   8.690  12.043 -0.0309 -0.1169  0.0598
16827W        W36361  17.644   1.336  13.265  0.2133  0.1986 -0.0711
16828W        W36362  11.657   8.117  13.413 -0.0310  0.2928  0.2972
16829W        W36363  10.279   5.950  13.184 -0.0696  0.2204 -0.1812
16830W        W36364   0.897   4.387   4.090  0.2630 -0.2184 -0.0388
16831W        W36365   1.936   7.644  12.717 -0.0882 -0.3233  0.2527
16832W        W36366   6.989   7.981   2.457  0.0758 -0.2976 -0.0064
16833W        W36367   8.020  15.687   1.457 -0.2576  0.0291 -0.1386
16834W        W36368   7.488   0.143   9.443  0.0999 -0.1746 -0.3253
16835W        W36369  19.223   3.318   3.189 -0.1197 -0.1533  0.0715
16836W        W36370  14.874  14.685  14.150  0.0068  0.0885 -0.1756
16837W        W36371   4.456  16.262  10.614  0.0893 -0.1715 -0.5144
16838W        W36372   0.171  11.905   0.090  0.2769  0.0102  0.1201
16839W        W36373  16.022  11.006  13.848 -0.1022  0.2912  0.1199
16840W        W36374  10.713   1.641   0.946 -0.3603  0.1386 -0.1181
16841W        W36375   2.306   4.948   0.473 -0.2022 -0.1145 -0.1135
16842W        W36376  10.583   1.518  11.257 -0.0447 -0.1555  0.1568
16843W        W36377   8.618  14.825  11.389 -0.2474  0.1269 -0.0842
16844W        W36378   2.595   8.832   1.249 -0.5123 -0.0937  0.3043
16845W        W36379  11.971  19.282  11.495 -0.0356  0.0437 -0.0308
16846W        W36380  16.297   5.475  10.806 -0.1188  0.0325  0.0307
16847W        W36381  13.446  12.641   2.457  0.0038  0.1021  0.0298
16848W        W36382  14.056  16.478  12.810 -0.1386  0.3594 -0.1585
16849W        W36383  10.030   4.767   3.329  0.3452 -0.2620  0.2442
16850W        W36384   3.681   5.073   3.040 -0.0324  0.0983  0.1418
16851W        W36385  13.836   9.576  13.888 -0.1674  0.2784 -0.0803
16852W        W36386   4.710   7.251  11.666  0.0034  0.0748  0.0881
16853W        W36387   1.591  14.727  10.821  0.3280  0.0686 -0.2512
16854W        W36388  19.220  12.821  13.316 -0.2528  0.1151  0.1731
16855W        W36389   1.992  10.173  11.437  0.3756  0.0004  0.6885
16856W        W36390   9.582  19.071  11.627 -0.2814  0.3722 -0.0145
16857W        W36391   8.647  12.352  12.993  0.0771  0.3618  0.0980
16858W        W36392   7.398  11.477   2.193  0.0188 -0.0739  0.2685
16859W        W36393   5.743   1.102   1.435 -0.1647 -0.3018  0.2376
16860W        W36394  14.303   8.256   4.404 -0.1102 -0.0555 -0.1695
16861W        W36395   7.099  11.275   1.426  0.1768  0.2627  0.2315
16862W        W36396  14.551  17.508   2.080 -0.2068  0.4510  0.0187
16863W        W36397   5.945   5.390  13.751  0.0155 -0.0899  0.1596
16864W        W36398   5.701   3.268  10.734  0.1584 -0.2006  0.0358
16865W        W36399  18.711   2.489  11.001  0.0934  0.3432 -0.0409
16866W        W36400   1.798   8.594  10.473 -0.1949  0.1683  0.1786
16867W        W36401   2.602  14.162  13.002  0.0237 -0.0325 -0.1678
16868W        W36402  11.567  19.247   3.568  0.0590  0.2957  0.1137
16869W        W36403   4.137   5.938  12.782 -0.2239  0.2629 -0.1147
16870W        W36404  17.630   4.099   0.404 -0.0833  0.1512 -0.0485
16871W        W36405   0.953   1.415   0.328 -0.0604 -0.3185  0.2843
16872W        W36406   5.362  14.208  11.985 -0.1015 -0.1264  0.1649
16873W        W36407  18.481   6.044   0.818  0.0112 -0.0979  0.1692
16874W        W36408   5.151   5.461  10.728  0.1608  0.0852  0.2264
16875W        W36409   4.857  13.972  14.136  0.0301  0.1561 -0.0472
16876W        W36410  10.261  11.981   3.724  0.3890  0.0802  0.3588
16877W        W36411   5.105   7.046  14.222 -0.0616  0.3195 -0.1847
16878W        W36412   5.423  16.521   4.069  0.2426 -0.3115  0.3087
16879W        W36413   3.126   6.521  13.486  0.2957 -0.1727 -0.1377
16880W        W36414   4.654   8.507  13.684 -0.0152  0.0565 -0.0451
16881W        W36415   0.153   8.643  13.633 -0.0547  0.1725 -0.0902
16882W        W36416  13.987  15.422   3.709 -0.2066 -0.2053  0.1442
16883W        W36417  12.048  13.778  10.535  0.2142  0.1814  0.1650
16884W        W36418   8.555  18.154   3.651 -0.0670 -0.2769 -0.2858
16885W        W36419  19.462  14.169   0.670 -0.0080 -0.0996  0.0829
16886W        W36420   1.411  19.313   9.970  0.2058  0.1356  0.1632
16887W        W36421   0.275  15.388   3.781 -0.0803 -0.3136  0.0048
16888W        W36422   0.189  19.231  12.695  0.0278  0.0457 -0.2308
16889W        W36423  19.022   7.998  12.486 -0.0722  0.0257 -0.2084
16890W        W36424   9.301   9.598   0.680  0.0535  0.1416  0.2174
16891W        W36425   8.362   8.499  12.940 -0.2563  0.1426  0.1740
16892W        W36426  14.690   9.239  10.147  0.2440 -0.1248 -0.0434
16893W        W36427   6.941   7.948  10.323  0.0787  0.1170 -0.2496
16894W        W36428   0.258  16.861  12.550  0.0605  0.1467 -0.0203
16895W        W36429   1.243   5.499  12.248  0.1366  0.0692  0.1662
16896W        W36430   3.732  18.608   3.774 -0.0071 -0.1601 -0.1982
16897W        W36431  14.736   2.049  11.264  0.0583 -0.0839  0.2803
16898W        W36432   4.601   0.998   1.473 -0.0029  0.0590 -0.2191
16899W        W36433  16.785   7.121  14.338 -0.1501 -0.1139  0.3778
16900W        W36434   7.318   2.753   3.377  0.1953  0.0232 -0.3072
16901W        W36435   0.459   2.514   0.505  0.1497  0.0979 -0.0505
16902W        W36436   0.818   5.165  13.491 -0.0605 -0.1216 -0.1985
16903W        W36437   8.604  17.769   3.284  0.3498 -0.2404 -0.0497
16904W        W36438   8.585   8.412   3.425 -0.2446  0.1832  0.0481
16905W        W36439   3.317  14.778  10.377  0.0303  0.5359  0.0865
16906W        W36440   6.876   4.286   2.253 -0.0479 -0.0521  0.2508
16907W        W36441   6.048  17.051   1.779 -0.3179  0.2052 -0.2300
16908W        W36442   3.307  10.128   1.600 -0.2274 -0.2994  0.0869
16909W        W36443  12.369  16.674   1.447  0.0502  0.1308  0.0274
16910W        W36444  10.555  18.670  12.781  0.0484  0.4205  0.0970
16911W        W36445   4.811  14.778  10.582 -0.7430  0.1369  0.1696
16912W        W36446   6.722   7.096  12.512  0.1804  0.0018 -0.2194
16913W        W36447   5.882   5.721   2.506  0.3273 -0.2531  0.2056
16914W        W36448   0.431  18.014   3.979 -0.2465  0.1635  0.0028
16915W        W36449   2.926  11.010   0.388  0.1775  0.0313  0.1158
16916W        W36450  18.769  14.892   0.199 -0.2940 -0.1551  0.1960
16917W        W36451  13.602   6.236   1.559  0.1341 -0.2918  0.0056
16918W        W36452  16.616   0.034  11.840 -0.0565  0.1783 -0.0597
16919W        W36453   7.702   8.573   1.323  0.0989  0.0596 -0.1536
16920W        W36454  17.374  16.349  14.222 -0.1027  0.1709 -0.1317
16921W        W36455   6.586  17.548   2.452 -0.0868  0.2575  0.3299
16922W        W36456  11.066   1.892  13.144 -0.5079 -0.2042  0.2194
16923W        W36457  17.423   1.583   2.508 -0.0639  0.0893 -0.0681
16924W        W36458   7.263  10.432  13.755  0.0362 -0.1860 -0.0077
16925W        W36459   3.537   2.837  11.179  0.3058 -0.1017  0.2880
16926W        W36460   8.833  16.555  12.815  0.0458 -0.0864  0.3001
16927W        W36461   2.808  16.081  12.465 -0.0689  0.1051  0.0516
16928W        W36462  11.296  18.782   3.263  0.0106  0.0741  0.0750
16929W        W36463   7.871  12.968  12.676  0.1675  0.1052  0.3346
16930W        W36464   0.874  16.074  10.938 -0.1270 -0.0053  0.3439
16931W        W36465   8.828   6.437  11.461 -0.2853  0.0936 -0.0695
16932W        W36466  14.196   9.391   1.139 -0.2548 -0.0422 -0.1961
16933W        W36467   4.176  12.108  13.509  0.0221 -0.3316  0.1892
16934W        W36468   8.543   2.044  12.243  0.0047  0.1623 -0.1221
16935W        W36469   3.987  13.333   3.382  0.1027 -0.0405  0.3019
16936W        W36470   8.551  11.460  11.537  0.2248 -0.1632 -0.0178
16937W        W36471   5.131   9.211  12.528 -0.1334 -0.2720  0.0368
16938W        W36472  11.142  16.677  11.849 -0.0391 -0.2347  0.3337
16939W        W36473  19.175   2.462  13.340  0.1103 -0.0317  0.4432
16940W        W36474  14.600  14.069  10.232 -0.0184 -0.0957  0.0738
16941W        W36475  14.706   0.024   1.713  0.2547  0.1413 -0.0577
16942W        W36476   5.615   5.852   5.131 -0.0045  0.2731 -0.0240
16943W        W36477  11.240   7.680   3.816  0.2250 -0.0170 -0.0467
16944W        W36478   0.918  14.873   2.261  0.2994 -0.2745  0.3565
16945W        W36479   8.854  12.814   1.232 -0.0378 -0.0034  0.1454
16946W        W36480   6.902  13.367   0.617  0.2249 -0.0198  0.2660
16947W        W36481   6.052  17.365  12.629  0.0201  0.3754  0.1398
16948W        W36482  16.282  19.369  13.362  0.0080  0.2485 -0.3404
16949W        W36483   7.683   1.607   1.613 -0.3325 -0.2254  0.0399
16950W        W36484   4.716  19.073  11.640  0.0919  0.0890  0.3612
16951W        W36485   4.532   6.216  12.716  0.0221  0.1354  0.1462
16952W        W36486  17.782   9.935   3.201  0.4329 -0.1518  0.2172
16953W        W36487   1.847  17.727  14.199  0.0886  0.0911  0.1062
16954W        W36488  14.696  15.010   3.191  0.1275  0.1771 -0.0627
16955W        W36489  12.850  14.662  11.373  0.0859  0.0388  0.1178
16956W        W36490   4.562   5.854  13.035 -0.3853 -0.2346  0.2426
16957W        W36491  10.242  12.825  12.889 -0.0019 -0.0172 -0.0386
16958W        W36492  17.866  18.732  13.613 -0.3174 -0.0066  0.0103
16959W        W36493  15.429   0.905   1.671 -0.2003 -0.1422 -0.1729
16960W        W36494   7.308   5.024   1.214 -0.0031  0.1940 -0.0897
16961W        W36495   5.845   4.659  13.197  0.1671 -0.0785 -0.0085
16962W        W36496  18.646   0.411   4.044  0.3633 -0.3252 -0.2733
16963W        W36497   2.311  17.469   1.984 -0.3526  0.3865  0.0002
16964W        W36498  14.206  17.053   3.655 -0.0677 -0.0174 -0.0606
16965W        W36499   7.825   1.108   2.819  0.0076  0.1770  0.0220
16966W        W36500   1.630   4.740   3.540 -0.0910  0.1297 -0.5276
16967W        W36501   1.264   2.392  12.574  0.1831  0.1512 -0.1747
16968W        W36502  16.180  12.331  13.058 -0.0335  0.0403  0.2473
16969W        W36503   0.979   1.397  12.562 -0.2314  0.0139 -0.1601
16970W        W36504   5.358   9.314   0.442  0.0614 -0.0540 -0.1408
16971W        W36505  11.340  10.836   1.183 -0.0518 -0.0057 -0.2070
16972W        W36506   2.160   5.380   0.234  0.1524 -0.0309 -0.1341
16973W        W36507   6.760  13.860   2.671 -0.1443  0.2214  0.0208
16974W        W36508  15.410   0.897  14.129 -0.2905  0.0395 -0.1003
16975W        W36509  19.490  13.432  13.222  0.1788 -0.0633 -0.2043
16976W        W36510   0.556   1.268  11.953  0.1227 -0.0145  0.1844
16977W        W36511   0.659   7.349  13.227  0.1185  0.1096  0.0111
16978W        W36512   0.639   9.271  10.422  0.3941 -0.1223 -0.2087
16979W        W36513  14.122  19.031  12.312 -0.1664 -0.3569  0.0825
16980W        W36514   3.306  14.635  11.237  0.1321  0.1828 -0.2713
16981W        W36515   6.808  14.652  13.653  0.0021 -0.2968 -0.1020
16982W        W36516  19.209  10.811  12.306 -0.1149 -0.0653 -0.0815
16983W        W36517  18.101   0.513   3.556  0.1771 -0.2361  0.1848
16984W        W36518  10.331  11.484   2.573  0.1731 -0.2523  0.0125
16985W        W36519   6.247   7.312   3.205 -0.0794 -0.0625 -0.4613
16986W        W36520  13.602   0.085  12.901  0.1154 -0.0424  0.0406
16987W        W36521   7.699   3.823  13.704  0.2098 -0.0562  0.0119
16988W        W36522   9.133  12.077  10.150 -0.1135 -0.1335  0.0039
16989W        W36523  10.261   3.350   2.520 -0.1812 -0.0211 -0.2463
16990W        W36524   7.983   6.800   0.526  0.2698  0.0547 -0.2045
16991W        W36525   5.007  12.805   2.694  0.0197  0.5339  0.2420
16992W        W36526  19.188   8.409   0.031  0.0035  0.1193 -0.1476
16993W        W36527   3.391   6.143   2.359  0.1534  0.1192 -0.0192
16994W        W36528  12.749   9.936   3.350  0.2041 -0.1126 -0.2760
16995W        W36529  17.822   1.989  10.342  0.6211  0.0809  0.2250
16996W        W36530   5.968   9.705  13.315 -0.2055 -0.1159 -0.0349
16997W        W36531  14.023   4.874   0.272  0.0269  0.0908  0.0706
16998W        W36532   8.592  17.769   2.545 -0.0739 -0.0794  0.0175
16999W        W36533  12.028   0.241  13.166 -0.0998 -0.0019  0.3602
17000W        W36534  17.331  12.915   1.376  0.2249  0.0606  0.1202
17001W        W36535   0.307   7.524   0.910  0.0396 -0.2099 -0.1973
17002W        W36536   5.527   7.983  12.423  0.2213  0.0290 -0.3032
17003W        W36537   0.887   5.620   4.296  0.3035 -0.2160 -0.0269
17004W        W36538   2.215   5.452  10.927 -0.0488  0.0482 -0.0694
17005W        W36539   1.199  11.258   4.520 -0.0305  0.0549 -0.2353
17006W        W36540   2.352   3.375   2.743  0.0628  0.0026  0.0579
17007W        W36541  13.574  15.671  12.116 -0.5030 -0.0927  0.1999
17008W        W36542  11.854   3.315  11.683 -0.1012  0.1367 -0.2344
17009W        W36543  15.914  13.088   0.661 -0.1697  0.2346 -0.0119
17010W        W36544   5.293  15.002   3.501  0.2499  0.1126  0.2621
17011W        W36545  15.359  16.547  10.505  0.1494  0.0006 -0.1426
17012W        W36546   0.654  17.195   1.192  0.0594 -0.3373  0.0268
17013W        W36547  18.321  17.915  11.472  0.1198  0.1903 -0.1931
17014W        W36548   0.722   7.564  12.225 -0.0030  0.2736 -0.0562
17015W        W36549  12.344   0.974  12.082 -0.0799  0.5551 -0.0184
17016W        W36550  17.018   6.464  11.269 -0.0250 -0.1187 -0.1136
17017W        W36551   4.542  10.635   2.027  0.1620 -0.0386  0.2913
17018W        W36552   5.588   7.826   3.186  0.2552 -0.0489 -0.1404
17019W        W36553  12.268  11.618  13.062 -0.1125  0.1947  0.0492
17020W        W36554   3.487  15.402  12.730  0.0691 -0.2558  0.1573
17021W        W36555   4.230  19.407   3.700 -0.2340 -0.1593 -0.2148
17022W        W36556  11.399   6.706  11.212  0.0279  0.1430 -0.2093
17023W        W36557   8.810  15.445   3.705  0.0051  0.1886 -0.2774
17024W        W36558  11.444   8.491  14.150 -0.1443 -0.2112 -0.0571
17025W        W36559  12.351   6.340  12.985  0.3992  0.1481 -0.2563
17026W        W36560  13.486   4.986  10.628  0.0375 -0.0735  0.2714
17027W        W36561  18.109  12.733   1.084  0.3526  0.1329 -0.0341
17028W        W36562   0.989   9.807   3.205  0.2560  0.1743 -0.0197
17029W        W36563  14.610  15.418  13.498 -0.1638 -0.1622  0.0102
17030W        W36564  18.971   7.601   0.495  0.2757  0.1878  0.0641
17031W        W36565   3.366  11.135   3.119  0.0304 -0.0782  0.1599
17032W        W36566  14.903   7.906   0.524  0.0275 -0.0500 -0.2282
17033W        W36567   3.874   8.762  13.223  0.1812  0.1205  0.2471
17034W        W36568  17.111   7.633  10.407 -0.0416 -0.1781  0.1384
17035W        W36569  13.326  11.398  11.802 -0.0689 -0.1505  0.1749
17036W        W36570  19.520  19.369   2.308 -0.1103 -0.0152  0.1793
17037W        W36571  17.578  11.569   2.874  0.1533  0.0985 -0.2857
17038W        W36572  15.709  16.220  13.123 -0.4415  0.1630 -0.0036
17039W        W36573  19.484   9.174   2.783 -0.2399  0.1120 -0.7489
17040W        W36574   8.847  17.623   0.063  0.0340 -0.2570 -0.2538
17041W        W36575  10.972  12.009  14.225  0.0885  0.1587 -0.2064
17042W        W36576   6.955   6.739   0.966  0.2022 -0.1066  0.3414
17043W        W36577  16.754   4.409   1.693 -0.1728 -0.3124 -0.0733
17044W        W36578   0.697  17.212   2.151 -0.1269  0.3288  0.2045
17045W        W36579   2.976   2.593  11.209 -0.1262  0.0353  0.0810
17046W        W36580   5.731  18.483   0.182  0.0385  0.2472 -0.1106
17047W        W36581  14.032   6.676   0.699  0.0272 -0.3442  0.1422
17048W        W36582  16.123  15.938   2.727 -0.2541  0.0986  0.2595
17049W        W36583  16.883   4.430  13.512  0.1124  0.1594 -0.1559
17050W        W36584   0.237  14.538   3.857 -0.0372  0.3206 -0.3829
17051W        W36585   1.522  12.999   0.829  0.0107  0.0259  0.0024
17052W        W36586  16.125   9.546   0.226 -0.1887 -0.4423 -0.1028
17053W        W36587  17.657  15.499   1.031  0.1343  0.2337 -0.4051
17054W        W36588  19.232   1.195   5.080 -0.2707  0.0011  0.0355
17055W        W36589   2.115   6.998  14.124  0.0707 -0.0256  0.1622
17056W        W36590   9.126  16.727   0.125  0.1041 -0.4532  0.1563
17057W        W36591   5.025   0.217   3.393 -0.3648  0.0259  0.2877
17058W        W36592   5.685   1.490   3.491  0.0769 -0.1672  0.0752
17059W        W36593  16.635   8.485   0.983 -0.0488 -0.1285 -0.1385
17060W        W36594   1.217   6.958   2.308  0.2569  0.0480 -0.1016
17061W        W36595  16.352   1.605  13.459 -0.1428 -0.3230 -0.0387
17062W        W36596   0.769   5.923   3.734  0.1953 -0.3202 -0.0745
17063W        W36597   7.038  14.377  11.855 -0.1278  0.3843 -0.1410
17064W        W36598   1.801   5.568   2.018 -0.1175  0.0645 -0.1991
17065W        W36599   2.325   8.396  10.390  0.2533  0.0834 -0.3546
17066W        W36600   7.072   3.043  14.305  0.0488  0.4144 -0.2689
17067W        W36601  10.847  16.392  10.675  0.1983  0.2963 -0.1635
17068W        W36602   1.464   9.199   3.820  0.1612 -0.0514 -0.0776
17069W        W36603   7.793  18.381   3.625 -0.2901 -0.2664 -0.1020
17070W        W36604   3.960  15.492  14.214  0.1169  0.0332 -0.1393
17071W        W36605   0.116  13.028  12.103 -0.3574  0.1395 -0.0776
17072W        W36606  14.299  18.757   3.873 -0.1304 -0.0618 -0.0418
17073W        W36607  17.984  18.073   2.240 -0.0710 -0.0302 -0.1538
17074W        W36608   6.867   2.937   3.438  0.2185  0.0631  0.1871
17075W        W36609  12.361   9.981   1.313  0.2346  0.1889  0.3268
17076W        W36610   6.819   7.337   2.582  0.0718 -0.2432 -0.0814
17077W        W36611   2.875  15.103  11.074 -0.3064 -0.2224 -0.1950
17078W        W36612  13.976  15.002   1.306  0.1794  0.2078  0.0657
17079W        W36613   6.431  13.681  10.163 -0.4453  0.1161 -0.3257
17080W        W36614   3.917  11.956  10.822 -0.2376 -0.1218  0.0357
17081W        W36615   2.838  11.446  12.066  0.2351  0.1549  0.0818
17082W        W36616  18.974   9.123  10.743  0.2768 -0.0829 -0.0153
17083W        W36617  19.322   2.726  13.836  0.1867  0.2204 -0.0815
17084W        W36618   8.368  12.348  11.092  0.0781  0.0965  0.1767
17085W        W36619  13.108  17.106  14.203 -0.2649 -0.0732 -0.3555
17086W        W36620  17.038   8.163   3.657  0.2240 -0.1560 -0.2799
17087W        W36621  10.942  10.827  11.169  0.0181 -0.2779  0.1170
17088W        W36622  18.724  16.752  11.872  0.0504  0.0334  0.1011
17089W        W36623   0.643  14.852  11.106  0.1358  0.2025 -0.1253
17090W        W36624  12.204  11.983   3.273 -0.2952 -0.1591  0.1029
17091W        W36625   6.055   9.131   1.655  0.3996  0.2664  0.0456
17092W        W36626   1.005  19.182   1.626  0.4577 -0.3389 -0.1127
17093W        W36627  17.691   8.394  10.801  0.1039  0.0656  0.0596
17094W        W36628  15.753   2.126   2.276  0.1602 -0.2692  0.0295
17095W        W36629   9.257  18.756  10.915  0.2770 -0.3216  0.0271
17096W        W36630   8.156   6.701   1.051 -0.3180  0.0457 -0.0570
17097W        W36631   9.262  12.161   2.824  0.2909 -0.0487 -0.0200
17098W        W36632  16.857   2.718   3.584 -0.0987  0.0066  0.0542
17099W        W36633   5.755  18.910   1.964 -0.2137 -0.0162 -0.1613
17100W        W36634  15.143   6.460   0.640  0.1589 -0.2237  0.0901
17101W        W36635  12.715   6.113  12.551  0.2302  0.0860  0.1556
17102W        W36636   0.629   2.649   2.388  0.0480  0.0840  0.0482
17103W        W36637   2.644  17.713  12.586  0.1839  0.5128 -0.1674
17104W        W36638  19.395  19.044   4.405 -0.4130 -0.2733  0.3938
17105W        W36639   7.762   4.412   9.975 -0.0296 -0.2590 -0.4150
17106W        W36640   2.689   9.865   2.337  0.0547 -0.0131  0.0635
17107W        W36641  11.848   5.223  10.808  0.2781  0.4214  0.1201
17108W        W36642   4.645   1.672   3.477 -0.0195 -0.1348  0.1250
17109W        W36643  15.250  11.296  10.288  0.3008 -0.0095  0.1772
17110W        W36644  19.193   3.466  12.243  0.2098 -0.0610 -0.1535
17111W        W36645  19.016   5.735  13.485 -0.1698 -0.3200 -0.1281
17112W        W36646   4.752   0.410  12.047  0.1063 -0.1739 -0.3872
17113W        W36647  11.149  17.743   2.538  0.2019 -0.4350  0.0723
17114W        W36648   8.866  11.465   1.643 -0.0296 -0.0475  0.0061
17115W        W36649   8.881   2.539   4.074 -0.1082  0.2341  0.1174
17116W        W36650   0.922  18.763  13.009  0.0919  0.1744 -0.0052
17117W        W36651   6.933   6.131  13.066  0.2411 -0.2202  0.1477
17118W        W36652   2.158   9.720   2.291  0.0158  0.0499 -0.1568
17119W        W36653  13.132   1.832  11.243 -0.0987  0.1538  0.0519
17120W        W36654  19.481  17.230  13.870 -0.2861 -0.0267 -0.1290
17121W        W36655  19.479   5.703   1.844  0.0654  0.3520  0.2362
17122W        W36656  11.024   7.692  10.434  0.0200 -0.1270 -0.3411
17123W        W36657  18.123  18.705  11.192  0.5118  0.2153 -0.0481
17124W        W36658   0.752   4.177  11.775  0.0038  0.0285 -0.2623
17125W        W36659   6.054  15.585   3.486 -0.1648 -0.1587 -0.0173
17126W        W36660   8.296   4.930  12.270 -0.1907 -0.2861  0.1332
17127W        W36661   0.429  16.019  14.006  0.0076 -0.3238 -0.4156
17128W        W36662  18.780  17.182   2.982 -0.1371  0.2805  0.0429
17129W        W36663   3.149   6.205   1.552  0.1799  0.1070  0.0722
17130W        W36664   3.293  18.053   2.255 -0.3756  0.1566 -0.3302
17131W        W36665   5.405   5.506  11.637 -0.0768 -0.1622 -0.0981
17132W        W36666  18.232   5.656  11.754 -0.1159  0.0673 -0.0185
17133W        W36667   0.236   6.529  10.993  0.2219 -0.0430 -0.0207
17134W        W36668  12.954  19.242   0.525  0.0140 -0.0684  0.0492
17135W        W36669  17.194   1.701   2.062 -0.1316  0.0565 -0.0214
17136W        W36670  17.427   1.378   3.293 -0.1531 -0.2174  0.0026
17137W        W36671   3.265   4.356   9.996 -0.0681  0.1982  0.0171
17138W        W36672   8.307  13.988   0.849 -0.1814 -0.0691  0.1163
17139W        W36673  11.894  10.781   1.365  0.3053  0.3077 -0.0872
17140W        W36674   8.379   1.126  13.188  0.2720 -0.0662 -0.1201
17141W        W36675   6.839  18.113   0.731 -0.0087 -0.1212  0.1658
17142W        W36676   4.983  15.773  11.835  0.1053 -0.1583  0.1508
17143W        W36677  12.399  19.030   3.907 -0.1498  0.1516 -0.2732
17144W        W36678  18.424  19.309  12.030  0.2057 -0.1450  0.0792
17145W        W36679  17.915   0.296  13.808  0.3033 -0.1020 -0.1030
17146W        W36680   2.969  15.795   3.483  0.1800 -0.0003 -0.0578
17147W        W36681  13.572   5.600   3.376 -0.0021 -0.0706 -0.0374
17148W        W36682  16.588  15.364  13.665 -0.0804  0.2884 -0.2113
17149W        W36683  14.865  16.959  10.636  0.3346 -0.1901 -0.0632
17150W        W36684  12.231   0.608  14.147  0.0692 -0.2567  0.0096
17151W        W36685  19.053  18.722   5.343  0.0820 -0.0066  0.3270
17152W        W36686  12.280  11.674   3.848  0.0776  0.4820  0.2088
17153W        W36687   4.197  16.830  13.634  0.3290  0.1813  0.0053
17154W        W36688  11.561   0.966   1.832  0.0142 -0.2932  0.0747
17155W        W36689   5.850   7.157   1.551  0.1284 -0.0484 -0.1869
17156W        W36690   1.283   0.627  13.123 -0.1018 -0.0793  0.0990
17157W        W36691  12.843   6.384   0.364  0.0169  0.1159 -0.3469
17158W        W36692  16.522   0.768  10.524  0.3005 -0.1744 -0.5421
17159W        W36693   5.598   9.283   1.174  0.1483  0.0305 -0.1843
17160W        W36694   4.958   1.071   4.164  0.2293 -0.0243  0.0293
17161W        W36695  14.658   4.837   4.379 -0.2363  0.2666 -0.0328
17162W        W36696  17.068  18.264  11.619 -0.2070 -0.1084 -0.5972
17163W        W36697  19.334   6.288   3.639  0.4690  0.1538 -0.0431
17164W        W36698  12.164   7.337  11.979  0.1715  0.0174 -0.0957
17165W        W36699   6.703   8.873   2.804  0.0897 -0.2225 -0.0870
17166W        W36700   8.688   3.551   2.755 -0.0913 -0.3219 -0.0033
17167W        W36701   1.311  13.958  11.310 -0.0745  0.0735 -0.0537
17168W        W36702  10.685  17.264  11.844  0.0098  0.0703 -0.0022
17169W        W36703  15.489   8.980   3.968 -0.0268  0.2104  0.2441
17170W        W36704  10.482   1.003  11.184  0.3127  0.1449 -0.1296
17171W        W36705  18.217  18.759  13.207 -0.1156  0.0230  0.0331
17172W        W36706  17.986   5.946   0.830  0.0808 -0.0047 -0.0771
17173W        W36707  17.796  15.898   8.980  0.0360 -0.1872  0.0126
17174W        W36708   6.963  16.048   0.911  0.0587 -0.1624  0.0535
17175W        W36709  17.337  11.572   1.057  0.1681  0.1569  0.2112
17176W        W36710   9.248   5.626   5.168 -0.0805  0.1246  0.4156
17177W        W36711  17.607   7.322  13.755 -0.1987  0.0251  0.0993
17178W        W36712   4.907   3.715  11.004 -0.1754  0.1521  0.2168
17179W        W36713   6.102   1.966  12.855  0.1462  0.1805 -0.0188
17180W        W36714   6.371  14.026  10.664 -0.0752 -0.0841 -0.0076
17181W        W36715  11.431   0.556   1.419  0.4544  0.0345  0.1006
17182W        W36716  12.852  14.468   4.737  0.1167  0.0078  0.2318
17183W        W36717   2.605   3.924  12.716  0.1130 -0.0472 -0.2598
17184W        W36718   0.115  14.007   3.635  0.2923 -0.0744 -0.0812
17185W        W36719  16.433   6.294  12.101 -0.0537 -0.1058  0.0420
17186W        W36720   7.276  18.720   1.288 -0.0619 -0.0198  0.2915
17187W        W36721   4.830  11.632   4.620  0.0909 -0.0357  0.1011
17188W        W36722  16.470   2.988  12.966  0.0007  0.1292  0.0579
17189W        W36723  14.381   8.564  13.705 -0.2418 -0.3344 -0.0460
17190W        W36724  14.982   4.469  10.467  0.2372 -0.0638 -0.0992
17191W        W36725   8.630  15.319  11.236 -0.1998  0.0506 -0.0810
17192W        W36726  11.765  17.420   0.353  0.2141 -0.1789  0.0718
17193W        W36727   5.875  13.555  13.677  0.0662 -0.0675 -0.4508
17194W        W36728   8.331  13.369   2.956 -0.0670  0.2131  0.0792
17195W        W36729   7.666  16.080   4.754 -0.0978  0.2629 -0.1668
17196W        W36730  18.079   5.336   0.158  0.0153 -0.2687 -0.1084
17197W        W36731   7.477   6.854  12.452 -0.1626  0.0271  0.0110
17198W        W36732   5.625  16.038  13.602 -0.1269 -0.0888 -0.0191
17199W        W36733   6.472   8.437   4.145  0.0932 -0.2267 -0.3730
17200W        W36734  18.813   6.504  11.049 -0.0370 -0.2265  0.3219
17201W        W36735  12.339  11.643  10.767 -0.1238  0.1631  0.0270
17202W        W36736  13.391  15.725   9.796  0.1611  0.0445  0.2973
17203W        W36737   6.471  19.189   1.419 -0.0328 -0.1428 -0.2045
17204W        W36738   3.560  14.488   1.531  0.0128  0.4173 -0.0411
17205W        W36739   3.431  14.460   2.809 -0.0686 -0.1006 -0.2190
17206W        W36740   7.943   1.549  11.653  0.0954 -0.2697  0.1008
17207W        W36741  16.903  17.319   0.071  0.3991  0.0479 -0.0855
17208W        W36742   0.887   4.527  10.215 -0.0247 -0.2264  0.2333
17209W        W36743  14.092  16.143  12.353 -0.2841  0.3695 -0.0977
17210W        W36744  15.468  18.030   4.671 -0.0252 -0.1134 -0.1994
17211W        W36745   7.617   4.095   0.246  0.0762 -0.1715  0.0411
17212W        W36746   9.970   6.508  12.392 -0.2619  0.0106  0.0787
17213W        W36747  18.310   0.034  13.558 -0.0154  0.1001 -0.1355
17214W        W36748  15.874   6.241  13.710 -0.1321 -0.3688  0.1482
17215W        W36749  10.575  11.513   2.072 -0.1704 -0.3362 -0.0541
17216W        W36750   1.997  16.632  10.454 -0.0420 -0.1247  0.1232
17217W        W36751   7.739  12.112  11.453  0.1013 -0.0083  0.1417
17218W        W36752   9.310   2.082   2.289  0.1808  0.1305  0.0489
17219W        W36753  14.193   8.789   1.145  0.1271  0.0549 -0.0325
17220W        W36754  16.232   7.398  10.543 -0.1505  0.4485  0.0144
17221W        W36755   9.725   7.732   1.861 -0.0217  0.0779 -0.2645
17222W        W36756  13.475   8.250  12.638  0.2853  0.0918 -0.1206
17223W        W36757  11.853   2.165   4.536 -0.0489 -0.3753  0.0688
17224W        W36758   9.246   0.903  12.603  0.3128  0.0536  0.2956
17225W        W36759  10.611  14.692   2.594 -0.1866 -0.1069  0.0488
17226W        W36760   3.019  15.590  11.663 -0.1669 -0.0914 -0.0831
17227W        W36761  16.628  11.295   4.302 -0.0535 -0.0199  0.0091
17228W        W36762   1.389   2.459  11.750 -0.1938 -0.1263 -0.0747
17229W        W36763  14.355   8.378  10.922 -0.1918  0.1734 -0.1367
17230W        W36764   6.999  11.094   4.568 -0.1994  0.2309 -0.2990
17231W        W36765  15.494  10.815  10.398 -0.0474 -0.2076 -0.0375
17232W        W36766   2.644   3.451   3.368 -0.1557 -0.1394 -0.2743
17233W        W36767  12.366   4.676   2.328  0.2285 -0.1405 -0.0446
17234W        W36768   3.303   9.742   2.514 -0.0087 -0.1842 -0.1071
17235W        W36769   6.011  18.478   0.635  0.2782 -0.1678  0.1726
17236W        W36770  12.322  17.793   0.398 -0.2464 -0.2906  0.0050
17237W        W36771   2.914   2.239  10.773  0.1112  0.1104  0.0890
17238W        W36772  14.343  16.465  10.862  0.0490 -0.4134  0.1435
17239W        W36773  14.776  10.394  11.951 -0.1046  0.0703  0.2639
17240W        W36774   7.897  15.348  12.315 -0.1729  0.2905  0.5128
17241W        W36775   8.033  18.534  11.473  0.3151 -0.0627  0.0648
17242W        W36776  16.857  12.379  13.222  0.4668  0.0201  0.0425
17243W        W36777  11.268   4.386   2.393 -0.1603  0.1395  0.1730
17244W        W36778   2.736   0.154  11.074 -0.1512 -0.1157  0.2822
17245W        W36779   6.526   6.775   3.263  0.2086 -0.1769  0.0415
17246W        W36780   5.682   9.174   0.145  0.2368 -0.0325 -0.4472
17247W        W36781  10.053  19.532  12.911  0.0333  0.0847 -0.0633
17248W        W36782  10.590   0.871   3.751 -0.5036 -0.1448  0.0279
17249W        W36783   7.089   7.454   3.922 -0.0771 -0.3043  0.0258
17250W        W36784  18.767  16.937   1.908  0.0846  0.0440  0.0193
17251W        W36785  14.269  17.470  11.871 -0.0730 -0.3563  0.2063
17252W        W36786  13.354   2.444  12.490  0.1820 -0.2197 -0.0796
17253W        W36787   4.915   0.600  14.190  0.0108 -0.0876 -0.0209
17254W        W36788   9.466   5.925   1.634  0.1325  0.0410 -0.3495
17255W        W36789   9.806   4.923  13.568 -0.2546  0.0299 -0.2831
17256W        W36790   7.004  11.605   9.632 -0.3503  0.2597  0.1518
17257W        W36791  11.008  15.433   3.360  0.0183 -0.0218 -0.0734
17258W        W36792  18.186  12.404   9.595 -0.0173 -0.2230  0.1204
17259W        W36793  13.990   4.543  12.206 -0.0194  0.4038 -0.1015
17260W        W36794  16.446   0.582   3.135  0.1599  0.0591 -0.0860
17261W        W36795  18.388   3.394   0.049  0.1222 -0.1398  0.0736
17262W        W36796  19.447   7.651  11.589  0.0169 -0.1103  0.1817
17263W        W36797   1.240  12.981   1.899 -0.0980  0.0524  0.1086
17264W        W36798  11.920   2.504   4.196 -0.2279  0.1120  0.0575
17265W        W36799   3.997  12.592  11.301 -0.1789 -0.3440 -0.0660
17266W        W36800  11.147   3.837  10.348  0.1267  0.0712 -0.0526
17267W        W36801  13.841   2.797  12.309  0.4402  0.1280 -0.0066
17268W        W36802  15.213   4.258  12.609  0.2281  0.0783 -0.0933
17269W        W36803  12.650   4.214   4.252 -0.3574  0.0019  0.3399
17270W        W36804  10.385   9.538   2.609 -0.0965 -0.2148 -0.0491
17271W        W36805  12.563  14.348   2.435 -0.2236 -0.0331  0.0744
17272W        W36806   6.811   1.123   0.395  0.0933  0.0305 -0.2806
17273W        W36807   6.556  11.399  13.253 -0.0165 -0.3525  0.1699
17274W        W36808   2.549   2.411  11.982 -0.1232  0.1521 -0.1345
17275W        W36809  19.466   8.251  12.356  0.0110 -0.2371 -0.0243
17276W        W36810   8.659  14.219   2.485 -0.0793  0.2725 -0.1720
17277W        W36811  12.505  18.596  12.363 -0.1313  0.1418  0.0728
17278W        W36812   1.034  11.046  13.361 -0.2523  0.0298 -0.1137
17279W        W36813  10.343  13.775   3.464 -0.0780  0.0123  0.0149
17280W        W36814  11.168   2.288   4.602 -0.2427  0.0112  0.2099
17281W        W36815  15.767   0.319  11.532 -0.1558 -0.1674  0.2328
17282W        W36816   1.696   8.453  11.495  0.0912  0.2704 -0.1141
17283W        W36817   9.156   4.015   2.073  0.0400 -0.1241  0.1385
17284W        W36818   7.695  19.411   0.092 -0.0186  0.2893 -0.0629
17285W        W36819   8.672  10.604   1.980  0.3337  0.0652  0.0676
17286W        W36820   9.568   1.201   3.957 -0.0493  0.1481  0.0044
17287W        W36821   8.262  13.184  10.499  0.1359  0.0384 -0.1044
17288W        W36822   2.409   5.935  10.720 -0.1873  0.0694  0.0195
17289W        W36823  11.632  13.670  11.925 -0.0913  0.4186  0.3434
17290W        W36824   8.746   6.490  13.153  0.0106 -0.0268  0.2528
17291W        W36825   1.854   5.795   2.526 -0.2826 -0.0854  0.1484
17292W        W36826  19.001  16.567  12.966 -0.3071  0.3694  0.5947
17293W        W36827  18.294   6.377  13.670 -0.1756  0.0298 -0.2908
17294W        W36828  17.748  11.331   0.948  0.0860 -0.0903 -0.1229
17295W        W36829  17.685   3.622   3.229  0.1500  0.2208 -0.3223
17296W        W36830   0.571  17.477  11.132 -0.1535  0.3321 -0.2437
17297W        W36831   5.505   4.352   3.910 -0.1483  0.0449 -0.0051
17298W        W36832  19.150   4.724  13.116 -0.4660 -0.1628  0.0537
17299W        W36833  12.055   0.908  10.692 -0.0379 -0.0716 -0.2089
17300W        W36834  10.335   5.730   3.411  0.1239 -0.2291  0.3188
17301W        W36835  14.993   5.725   1.331  0.2503  0.2702 -0.0783
17302W        W36836  18.171   6.307   3.164 -0.1247  0.2426 -0.1172
17303W        W36837   5.099  18.352   1.068  0.0511  0.2061  0.0355
17304W        W36838  15.669  10.780   9.069 -0.2378  0.1617 -0.2637
17305W        W36839  10.895  12.123   2.943 -0.2455  0.0421 -0.6241
17306W        W36840   9.552  16.062   1.393  0.3150 -0.2050  0.2469
17307W        W36841  12.430  15.797   1.503 -0.0414 -0.0251  0.1161
17308W        W36842  12.702   3.839   0.050 -0.0319 -0.0127  0.3132
17309W        W36843  17.843   0.853  12.464  0.0582 -0.0852 -0.4049
17310W        W36844  14.078   8.845   9.363 -0.1453  0.0797 -0.0056
17311W        W36845   2.599   1.620   3.808  0.1133 -0.0748  0.4666
17312W        W36846  12.432  11.458   3.206  0.0584 -0.0868  0.1901
17313W        W36847   1.417  10.613   2.469  0.0687  0.0324  0.1113
17314W        W36848   1.696   0.980   3.406 -0.2569 -0.2421 -0.1458
17315W        W36849   3.617   1.069  12.841 -0.1772  0.0884  0.2649
17316W        W36850  11.951   6.182   2.397 -0.0724  0.0709  0.1549
17317W        W36851   4.482   7.288   3.945 -0.0220  0.2111 -0.1699
17318W        W36852  14.907  10.122   0.843 -0.0954 -0.0345 -0.1533
17319W        W36853  15.504  13.190   0.886 -0.1846  0.0710  0.0369
17320W        W36854  14.793   8.757  10.227 -0.0773 -0.2047  0.0619
17321W        W36855  11.261   3.132   2.222 -0.0416 -0.1254  0.1710
17322W        W36856   6.203  17.910   1.374  0.0434  0.0302 -0.3159
17323W        W36857   5.927   7.688   1.657 -0.0003  0.0707  0.2151
17324W        W36858   4.532   2.453   1.019 -0.3264  0.2011  0.3759
17325W        W36859   4.245  15.060  13.991 -0.2160  0.0804 -0.0030
17326W        W36860  17.813   4.862   0.118 -0.1335 -0.0077 -0.0391
17327W        W36861   2.173   3.011  13.874  0.0322  0.4084  0.1980
17328W        W36862   8.003  10.374  14.220 -0.2816 -0.3222 -0.0910
17329W        W36863  13.365   7.467   2.205 -0.0909  0.0256 -0.0065
17330W        W36864   1.816  14.496  10.441 -0.1434  0.0043  0.0998
17331W        W36865   8.342   6.062  13.075  0.1515  0.0454  0.1199
17332W        W36866  17.802   1.888  13.311 -0.0593 -0.0468  0.0391
17333W        W36867   4.346   8.348   2.938 -0.0588  0.0575 -0.2610
17334W        W36868   7.464   0.371   4.152 -0.0320 -0.0085  0.0303
17335W        W36869  18.493   3.747  12.196 -0.0746  0.0537 -0.0068
17336W        W36870  11.912  16.416  12.209 -0.0328  0.0030 -0.1614
17337W        W36871   1.865  17.986   4.857 -0.1003 -0.1462  0.2157
17338W        W36872  10.482  16.782   2.522 -0.0049 -0.3702  0.3210
17339W        W36873  15.780  11.108  13.388  0.1244  0.1205  0.1100
17340W        W36874   3.040   6.811  13.921  0.0489 -0.0329  0.0752
17341W        W36875   4.369  16.650   3.686  0.2098  0.0337 -0.4832
17342W        W36876  11.281   8.700  12.161 -0.0554  0.2349  0.1109
17343W        W36877  13.048   4.592   1.110 -0.2899  0.0698 -0.1790
17344W        W36878  10.282   1.288   1.028  0.0844 -0.2018  0.1852
17345W        W36879  13.999  11.263  11.003 -0.0317  0.1375  0.0596
17346W        W36880   8.956  14.334   2.089  0.1862  0.4777  0.1729
17347W        W36881   7.439   7.773   1.730  0.0071  0.0354 -0.0606
17348W        W36882   3.945  13.113   1.499 -0.1324  0.1833  0.1397
17349W        W36883  12.360  11.474   2.485  0.1524  0.2026 -0.1446
17350W        W36884  12.826   6.059   2.255 -0.1392  0.1878 -0.2297
17351W        W36885   0.286   3.541  10.897 -0.1572  0.0503 -0.0419
17352W        W36886   0.769  16.564  13.247 -0.0281  0.0367 -0.0409
17353W        W36887  13.674   7.823   3.069 -0.0787 -0.0612  0.0963
17354W        W36888   6.077  15.019  13.462 -0.0937 -0.2527  0.0341
17355W        W36889  12.813   0.411   9.649 -0.0303 -0.0743  0.3572
17356W        W36890   5.977  17.993   0.820 -0.0483  0.2788 -0.1316
17357W        W36891  14.466  15.748   3.827  0.3914  0.1880 -0.1413
17358W        W36892  14.124  18.695  10.022 -0.1164  0.1994 -0.0534
17359W        W36893   3.062   0.401  10.567 -0.0493  0.1768  0.1089
17360W        W36894   1.046  11.868  13.941  0.2014  0.2738 -0.1328
17361W        W36895   6.991  10.551  11.363  0.1393 -0.1119  0.1076
17362W        W36896  11.070   8.263   1.430 -0.2133  0.0370  0.0823
17363W        W36897   6.599  11.521   1.052 -0.2886  0.0242  0.0593
17364W        W36898  15.142   8.827  12.700  0.3047  0.1084  0.2520
17365W        W36899   0.467   3.781  13.894 -0.1789 -0.0013  0.0610
17366W        W36900  13.228   2.959   3.514  0.0467 -0.1364 -0.2189
17367W        W36901  15.085   6.191  10.236  0.2147  0.1315  0.3329
17368W        W36902  15.922   2.502   3.085 -0.1615 -0.4888  0.0253
17369W        W36903   5.995   6.779   3.857  0.2675  0.0980  0.2994
17370W        W36904   5.140  19.060  10.959 -0.0232  0.2605 -0.0631
17371W        W36905  11.780   6.126   4.837 -0.2985 -0.0526  0.0471
17372W        W36906   0.930   5.510  10.335  0.0953 -0.5218  0.4488
17373W        W36907   7.389  11.665  12.874 -0.0045  0.0800 -0.0335
17374W        W36908   0.346   0.102  12.990  0.0865  0.0981 -0.2183
17375W        W36909   1.497   1.728   2.807 -0.2337  0.3232 -0.3774
17376W        W36910   8.591   3.702   1.664  0.1327  0.0645 -0.0307
17377W        W36911  18.716  12.976  13.437  0.0409 -0.0356  0.1607
17378W        W36912  15.953  13.140  12.883 -0.0423 -0.2010  0.2635
17379W        W36913   3.853  15.671   3.061  0.1938 -0.4999 -0.0421
17380W        W36914  10.375  11.465   1.591  0.0638  0.1573 -0.1503
17381W        W36915  17.735   9.332   0.324  0.2802  0.0085  0.1820
17382W        W36916   0.200  10.877   1.817 -0.0488 -0.1101  0.1274
17383W        W36917   6.757  10.092  13.290 -0.1495  0.3519  0.1269
17384W        W36918   7.796  14.875  11.395 -0.3676  0.0633 -0.4595
17385W        W36919   7.175   5.696   4.643  0.3014  0.0666 -0.0621
17386W        W36920   7.905   3.089   1.133  0.2160  0.1013 -0.2932
17387W        W36921  18.030  15.627   9.278 -0.4341  0.4596  0.2130
17388W        W36922   2.737  16.367  14.064 -0.2039 -0.1757  0.0398
17389W        W36923  10.098   6.421   9.313  0.1110  0.2463 -0.0837
17390W        W36924  19.234  12.821  11.445  0.2280  0.1554 -0.0623
17391W        W36925   9.530   8.937  13.759  0.1443  0.4619  0.0235
17392W        W36926  18.905   1.053   0.945  0.3230  0.5261 -0.0053
17393W        W36927   6.240   2.296   3.154 -0.1286  0.0972 -0.1617
17394W        W36928  18.551   9.975   0.846 -0.1492 -0.1307 -0.5076
17395W        W36929   8.226  10.042  12.906  0.1328 -0.2630  0.0831
17396W        W36930   6.730  12.210  10.292 -0.4421  0.2462  0.0644
17397W        W36931   9.561  11.221   2.279  0.1069  0.1275  0.2335
17398W        W36932   6.386   8.853   0.886  0.0152 -0.1910 -0.1559
17399W        W36933  17.276   1.806   3.527  0.0774  0.0370  0.1602
17400W        W36934  17.389   2.467  12.687 -0.0706 -0.1208 -0.1677
17401W        W36935  13.828  11.870  12.489 -0.3905 -0.1344 -0.2355
17402W        W36936  14.820  17.071   3.343  0.0692  0.0848  0.1812
17403W        W36937  16.870   7.010  11.990  0.0533 -0.1734  0.4780
17404W        W36938  10.551   9.911   2.857 -0.0731  0.1300  0.1916
17405W        W36939   5.202  19.281   9.734  0.1735 -0.3026  0.0632
17406W        W36940  18.311   7.124   3.914  0.0066  0.3179 -0.1759
17407W        W36941   9.758  13.813  11.401 -0.1069 -0.0911 -0.0583
17408W        W36942  16.447   6.409  14.077  0.1460 -0.0448 -0.1038
17409W        W36943   2.365  10.594  12.107  0.1086 -0.1033 -0.1680
17410W        W36944  18.452   4.340   1.244  0.2981 -0.1736  0.2616
17411W        W36945  10.967  14.299  13.853 -0.0964  0.2557 -0.1299
17412W        W36946  13.451  10.178  12.901  0.3390 -0.0235  0.0254
17413W        W36947   1.365   1.397   0.077  0.0434 -0.0182  0.1721
17414W        W36948   3.595   3.829  10.821  0.0623 -0.2797  0.4426
17415W        W36949  10.419  17.724   1.421  0.0022 -0.0158  0.0481
17416W        W36950  12.014  11.855   2.106  0.2657  0.1122 -0.1669
17417W        W36951  10.276   2.385   0.230 -0.1323 -0.0418  0.2890
17418W        W36952  17.643   5.268  13.449  0.0727  0.0327  0.1256
17419W        W36953   4.141   8.218  10.492  0.0271  0.0614 -0.0180
17420W        W36954   9.461  10.167  12.161  0.1698 -0.2865 -0.2477
17421W        W36955   7.396   0.932   0.542 -0.1529 -0.0424  0.1657
17422W        W36956  12.242   3.398   0.865  0.0817  0.1778  0.1496
17423W        W36957   8.412   9.080  12.983  0.0719  0.2614 -0.2329
17424W        W36958   1.266   3.316  14.010  0.0547  0.4267  0.0553
17425W        W36959   6.244  16.149   1.082  0.0923  0.4173  0.0304
17426W        W36960  14.714   5.274  12.820 -0.0959  0.0280 -0.3225
17427W        W36961  15.034  17.291  13.935 -0.0507  0.2039  0.1769
17428W        W36962   3.920   9.050   2.749  0.1181  0.1212  0.0729
17429W        W36963   4.969   7.581   0.668 -0.2015  0.3892  0.0257
17430W        W36964  14.985  15.733  13.350  0.0360  0.3709 -0.0556
17431W        W36965   8.678   7.764   2.333  0.1482 -0.0101  0.3686
17432W        W36966  16.694   0.453   1.365  0.0741 -0.0161 -0.2375
17433W        W36967  10.216  17.982  12.238 -0.2203 -0.2581 -0.1522
17434W        W36968  17.539   3.499   1.072 -0.2748  0.3659  0.0558
17435W        W36969   1.037  15.011   3.812 -0.1334 -0.1153  0.3573
17436W        W36970   3.287  12.385   2.843  0.1790  0.0327  0.4760
17437W        W36971  15.338  12.793  13.538  0.1715  0.0845 -0.3328
17438W        W36972  11.748  15.179   3.245  0.1575  0.0539 -0.5405
17439W        W36973   2.586  12.889   1.218  0.2152  0.0067 -0.1663
17440W        W36974  16.351  10.065   0.336  0.0156  0.2046 -0.0153
17441W        W36975  12.427   2.305   3.557 -0.1814  0.0616 -0.3278
17442W        W36976  18.691  12.350   4.627 -0.2511 -0.2564  0.0915
17443W        W36977  18.011   1.910  11.499  0.0221  0.0810 -0.0942
17444W        W36978   4.551  18.275  14.008 -0.1721 -0.0516  0.1063
17445W        W36979   3.013  11.964   3.043  0.0087 -0.2911 -0.1396
17446W        W36980   7.124   9.200  10.481 -0.2493 -0.1172 -0.2123
17447W        W36981   5.124  17.535   0.638  0.0310 -0.1334 -0.0211
17448W        W36982  17.997   0.275   9.683 -0.2141 -0.2593  0.2348
17449W        W36983   4.804   3.534  12.938  0.0856 -0.0501  0.2824
17450W        W36984   1.707   4.775  13.678  0.3166  0.0177  0.2314
17451W        W36985   3.462   4.315  12.742  0.0007  0.0210 -0.0453
17452W        W36986   7.192   2.835  12.822 -0.2470 -0.1944 -0.0076
17453W        W36987   3.980   0.547  11.631 -0.0041 -0.1622 -0.0085
17454W        W36988  11.623  16.908  13.135 -0.2506 -0.2411  0.0996
17455W        W36989   7.153  10.155   1.471 -0.1302  0.0381 -0.1892
17456W        W36990  14.206   5.447   1.200 -0.1684  0.0677 -0.1544
17457W        W36991  19.139   8.225   4.363 -0.0044 -0.2584  0.1081
17458W        W36992  17.629  13.343  12.055 -0.2539 -0.1163 -0.4052
17459W        W36993  16.287  10.165   4.680  0.0988 -0.2510 -0.0943
17460W        W36994   7.476  16.873   2.379  0.1009  0.4978  0.0002
17461W        W36995   1.077   5.919  13.145  0.2543  0.0588  0.2492
17462W        W36996  11.894  19.446  10.820 -0.3992 -0.0001 -0.2011
17463W        W36997  14.218   6.264  11.824 -0.0614  0.1079  0.1206
17464W        W36998   0.969  12.869  10.770  0.0982 -0.0382  0.0949
17465W        W36999  16.145  18.732  14.074  0.0425  0.0976  0.0072
17466W        W37000  19.442   0.470   0.361  0.1985 -0.2519  0.1842
17467W        W37001  18.054  16.267  10.060  0.2163 -0.0396  0.0419
17468W        W37002   5.360   2.031   2.829  0.0637  0.2203 -0.1587
17469W        W37003   6.038   4.342  12.843  0.3641 -0.1472  0.1859
17470W        W37004  10.090   4.298   2.287 -0.0234  0.2377  0.2931
17471W        W37005   3.491  19.355   1.308 -0.2499  0.0322 -0.1194
17472W        W37006  17.908  16.557  10.449 -0.3463  0.3409  0.0530
17473W        W37007  13.662  12.323  12.211 -0.1197 -0.0266  0.0215
17474W        W37008  12.566   2.343   0.661 -0.0481  0.0055 -0.0863
17475W        W37009  13.945  17.892   0.408 -0.2916  0.1378 -0.1052
17476W        W37010  17.504  18.020   3.501  0.2100 -0.1680 -0.1948
17477W        W37011   1.441  17.632  12.459 -0.3001  0.1586 -0.2428
17478W        W37012   6.508  15.973  11.944  0.2056  0.0367 -0.0536
17479W        W37013   8.591   2.200   2.868  0.1164  0.0565  0.1220
17480W        W37014   2.444   2.568  13.931 -0.1989  0.4015 -0.0682
17481W        W37015   4.183  13.704  12.938  0.2592 -0.2900  0.0680
17482W        W37016  18.282  18.099  14.207 -0.0495 -0.4357 -0.0108
17483W        W37017   7.195  11.263  12.109 -0.0683 -0.1330 -0.0032
17484W        W37018  11.896   0.135  11.831  0.1688 -0.0512 -0.0838
17485W        W37019   0.945   9.791  13.539 -0.0167 -0.5167 -0.0421
17486W        W37020  17.973   9.202   0.805 -0.4132  0.0380  0.2904
17487W        W37021  18.286  11.828  13.651 -0.0246 -0.1961 -0.5082
17488W        W37022   3.865  14.386   4.672  0.1989  0.1189 -0.0948
17489W        W37023  10.953   9.377  12.646 -0.2210 -0.0650  0.0098
17490W        W37024   7.972  13.593   1.553  0.0205 -0.0149 -0.1938
17491W        W37025   2.815  14.947   3.517 -0.0052  0.2696 -0.1189
17492W        W37026  11.853   7.204  12.984 -0.0751  0.1537 -0.3760
17493W        W37027   4.014   7.482   3.065 -0.0860  0.1625  0.1823
17494W        W37028   3.625  17.716  12.979 -0.0577  0.1127  0.0234
17495W        W37029  12.767   4.796  13.249 -0.3137  0.0998 -0.1440
17496W        W37030  19.426  18.289  11.208 -0.2230  0.0588 -0.2551
17497W        W37031   3.029  13.364   3.380  0.6914 -0.1643  0.0525
17498W        W37032  15.619  10.793  12.963 -0.2151 -0.3744 -0.1944
17499W        W37033   7.632   6.243   2.440  0.1054  0.0210  0.0428
17500W        W37034   6.439   8.748  11.906 -0.2151  0.0920 -0.1184
17501W        W37035   6.271   3.628  12.174 -0.0562 -0.2407 -0.3450
17502W        W37036  18.128   2.443  12.680 -0.0921  0.0168 -0.4983
17503W        W37037   3.928  12.978   3.047 -0.0228 -0.1695 -0.2273
17504W        W37038  14.783  15.394  12.402  0.3088 -0.2312 -0.0348
17505W        W37039  14.592  15.284  11.173 -0.2587  0.3496 -0.1789
17506W        W37040   0.419  16.760   1.293 -0.0937  0.0556 -0.0561
17507W        W37041  12.921   1.624  13.662 -0.0032  0.1558 -0.3426
17508W        W37042  17.498   0.421  13.579 -0.2452  0.0515  0.1558
17509W        W37043  18.676   0.891   3.941 -0.2229 -0.0861 -0.1611
17510W        W37044   1.047   1.658  10.808  0.0309  0.1950  0.2525
17511W        W37045   3.473   3.091   3.789  0.1493 -0.0221 -0.0058
17512W        W37046  13.880   8.155  13.745 -0.1364  0.0644 -0.0055
17513W        W37047  16.265  18.465  12.927 -0.3212 -0.2251 -0.0967
17514W        W37048   8.440  12.927   2.646  0.0908 -0.0231  0.1715
17515W        W37049   1.256   4.597   2.614  0.0859  0.1182 -0.1633
17516W        W37050   0.356   9.335   1.803 -0.1818  0.0408  0.2383
17517W        W37051  10.025  14.095  10.709  0.0691 -0.1770 -0.2629
17518W        W37052  15.575  15.966  12.428 -0.1117  0.3499 -0.1165
17519W        W37053  13.799  18.581  12.395  0.1895  0.1110 -0.3790
17520W        W37054  11.529   2.165   3.067  0.2892 -0.1444 -0.1654
17521W        W37055  11.307  12.301  13.678 -0.1541  0.1228  0.0987
17522W        W37056  10.785  18.200   3.819  0.2114  0.0079  0.1735
17523W        W37057   0.344   9.021  14.040 -0.1180  0.3732  0.1559
17524W        W37058   1.265   0.042   2.450 -0.0059  0.0565  0.0744
17525W        W37059  18.787  15.466   2.373  0.0130  0.1056  0.0082
17526W        W37060  17.694   6.496  12.843 -0.1275 -0.0894 -0.1849
17527W        W37061  17.859   0.529   2.795 -0.3498  0.1577 -0.1297
17528W        W37062  19.491  19.444  11.767  0.0709  0.1760  0.1654
17529W        W37063   3.635   4.312   0.502 -0.1259 -0.3407 -0.0542
17530W        W37064  12.740   9.195  13.546 -0.3492  0.3886 -0.2543
17531W        W37065   2.819  17.410   4.159  0.0617  0.1089  0.3023
17532W        W37066   2.201   5.834   2.856 -0.2226 -0.0481 -0.0675
17533W        W37067  18.373   3.084   1.463  0.2726  0.2467 -0.2314
17534W        W37068   0.761   2.844  12.243  0.0917 -0.1376  0.1873
17535W        W37069   7.428   2.592  11.529 -0.1795 -0.1570 -0.1650
17536W        W37070   2.558   7.026  12.035  0.1159 -0.0252  0.0125
17537W        W37071   0.370  13.244   9.976  0.1139 -0.1118  0.3967
17538W        W37072  16.364  18.723   0.857  0.0022  0.3797 -0.0223
17539W        W37073   2.711  13.520  12.280 -0.1361 -0.0496  0.2152
17540W        W37074  18.912   2.385   9.925 -0.1010  0.0695  0.0331
17541W        W37075  16.516  18.361   3.075 -0.3193  0.1617 -0.1730
17542W        W37076   6.678   6.151  11.402 -0.4290 -0.1678 -0.0015
17543W        W37077  10.213   5.053  13.783 -0.0962  0.4535 -0.2631
17544W        W37078   3.424   4.479  11.991 -0.3903  0.1011 -0.0593
17545W        W37079  16.440  12.330   4.074  0.2030 -0.0686 -0.3751
17546W        W37080   8.909   9.470  11.194 -0.3280 -0.0795  0.0556
17547W        W37081   7.878   2.483   9.263  0.0673  0.0747  0.0259
17548W        W37082  13.912   6.799  13.404  0.0092  0.0502  0.0244
17549W        W37083   0.012  15.764   3.970  0.0408  0.2123 -0.0334
17550W        W37084  14.412   7.844   0.511  0.0470 -0.1793 -0.0071
17551W        W37085   6.256   2.867  14.031  0.0981 -0.0117 -0.2706
17552W        W37086  12.387  13.154  10.101  0.1002  0.0299  0.3307
17553W        W37087  11.751  14.810  12.616  0.0229  0.1531 -0.0675
17554W        W37088  17.150  11.479  11.683  0.1463  0.1370 -0.2761
17555W        W37089   9.843   1.747   0.698  0.2690  0.1655  0.0491
17556W        W37090  14.841   3.067   2.314 -0.1627  0.1210 -0.2255
17557W        W37091  11.895  15.175   0.592 -0.1609  0.3573 -0.0865
17558W        W37092   0.120   4.908  13.867  0.1020 -0.2483 -0.1878
17559W        W37093  16.687   2.418   4.547 -0.0102  0.0430 -0.0315
17560W        W37094   1.122  14.387  12.207  0.3087 -0.4219  0.1562
17561W        W37095   9.064   1.742   3.268 -0.2712 -0.0950 -0.2442
17562W        W37096  10.489  10.407   3.563  0.0244 -0.1615 -0.2281
17563W        W37097   4.551  19.145   1.353 -0.0895  0.1457 -0.0788
17564W        W37098   1.836   5.654   4.844  0.1476 -0.3140 -0.2019
17565W        W37099  11.959   4.816   4.009 -0.1974  0.0861 -0.0439
17566W        W37100  14.424   6.063   1.412 -0.0164 -0.0112  0.3787
17567W        W37101  18.198   7.223  10.641  0.1401  0.0381  0.1162
17568W        W37102   1.949  11.324  10.840  0.0371 -0.1337  0.1475
17569W        W37103   6.910   0.183   3.544  0.1974  0.0819 -0.1405
17570W        W37104   3.909  18.969  14.241  0.0671 -0.2215 -0.3948
17571W        W37105   0.605   0.632   1.439 -0.0938  0.0466  0.2339
17572W        W37106  18.149   2.426  12.119  0.2856 -0.2035 -0.0040
17573W        W37107   9.784  12.667  12.528  0.0171  0.0970 -0.2316
17574W        W37108   8.199   7.424  11.811  0.0478  0.1933  0.1927
17575W        W37109  11.878  10.810   2.776  0.1473  0.1920  0.0221
17576W        W37110   8.298   6.670  10.808 -0.0554 -0.0356  0.0601
17577W        W37111   1.224  13.415  12.513 -0.0226  0.0980  0.2769
17578W        W37112   0.093  12.731   4.413  0.0362  0.1313 -0.3098
17579W        W37113   9.992   2.841  12.152 -0.2036 -0.2919 -0.3188
17580W        W37114  11.614  12.945   4.200  0.2033 -0.0209  0.1003
17581W        W37115  13.818   0.786   0.669 -0.0056  0.3676  0.0781
17582W        W37116  12.607  18.960  13.226 -0.2013 -0.0000  0.0320
17583W        W37117   4.950   7.555   3.828  0.0178 -0.0531  0.0979
17584W        W37118  16.394   3.122   0.037 -0.1189 -0.2752  0.1181
17585W        W37119  15.482   2.088  13.356 -0.0001 -0.2866 -0.0922
17586W        W37120   0.571   3.285   4.069  0.0484 -0.1487 -0.1778
17587W        W37121  14.647  10.860   1.017  0.0060 -0.0816  0.3807
17588W        W37122  13.781   4.932   1.922 -0.2353  0.3222  0.2400
17589W        W37123  16.350  13.541  11.678 -0.0278 -0.3347  0.0988
17590W        W37124   7.928  14.767  12.740 -0.3243 -0.2855 -0.1098
17591W        W37125   0.205   6.840   4.802 -0.2350 -0.0255 -0.0507
17592W        W37126   5.877   1.083   2.864 -0.2254  0.3367  0.2212
17593W        W37127   3.957  16.888  13.201 -0.1996 -0.0774  0.0148
17594W        W37128  13.695  12.984   0.896  0.3903  0.1714  0.0858
17595W        W37129   3.341  17.484  11.511  0.4143 -0.6429  0.2122
17596W        W37130   8.084   4.432  13.170 -0.0116  0.0158  0.0909
17597W        W37131  17.844  19.306   3.849  0.3490  0.1524 -0.1825
17598W        W37132   3.715   4.068  14.019  0.1143  0.0358  0.0504
17599W        W37133   6.806   8.242   2.075 -0.1616  0.0528 -0.1404
17600W        W37134  19.328  15.625  13.258  0.4316  0.1820 -0.1517
17601W        W37135  15.470   3.536   9.536 -0.2948 -0.1018  0.0284
17602W        W37136   5.131   1.525   3.507  0.2512  0.0955 -0.3383
17603W        W37137   9.230  10.255  12.804 -0.2643  0.1720  0.3081
17604W        W37138   2.447  15.916   1.925 -0.1794 -0.1746 -0.2482
17605W        W37139   7.273  11.494   5.326 -0.1702 -0.1310 -0.1547
17606W        W37140  18.379  11.887  14.308  0.1128 -0.0112  0.1318
17607W        W37141   1.751   6.241  11.034 -0.0980  0.0211  0.0635
17608W        W37142  11.153   0.673   4.667  0.2550  0.0298  0.0966
17609W        W37143  10.171  13.432   2.435  0.3848  0.2489 -0.0402
17610W        W37144  16.629  15.864  10.870 -0.2399 -0.0130  0.1868
17611W        W37145   5.624   2.707  11.720 -0.1244 -0.0283  0.0244
17612W        W37146  11.804  16.530   2.354  0.0924 -0.2180  0.2755
17613W        W37147  15.740   5.167  14.205 -0.0320  0.0792 -0.4281
17614W        W37148   4.893   8.959  13.983 -0.1103  0.1641  0.3090
17615W        W37149  12.355   2.239   1.143 -0.1551  0.3143  0.3422
17616W        W37150   7.745  12.415  10.464 -0.0544 -0.0934  0.0597
17617W        W37151   2.987   5.284   2.927  0.1444  0.0519 -0.2235
17618W        W37152   4.256  17.276  13.421 -0.0679  0.3753  0.2730
17619W        W37153  17.927  18.881   1.991 -0.2597 -0.3911  0.0546
17620W        W37154   0.110  10.953  11.643 -0.0087 -0.0696  0.0017
17621W        W37155  18.510   1.037  12.441 -0.0005  0.2855  0.1101
17622W        W37156   0.842   9.681  11.352 -0.3269 -0.1683 -0.1010
17623W        W37157   9.913   2.463  13.819 -0.0445  0.2008 -0.1986
17624W        W37158  17.059  17.287   3.623  0.1533 -0.1806  0.2102
17625W        W37159   1.709  13.182   3.501  0.0491  0.0878  0.3314
17626W        W37160   9.409   0.288  10.516 -0.2439 -0.1016 -0.0190
17627W        W37161  13.472   4.499  12.899  0.1472  0.2637  0.0696
17628W        W37162   6.437   9.885   4.571 -0.0500  0.1859  0.0512
17629W        W37163   7.445  11.262  12.546  0.0705  0.0289  0.0170
17630W        W37164  15.167   7.812  10.597  0.0818  0.3100 -0.2629
17631W        W37165  16.522   5.760   1.788  0.4001  0.0749  0.1925
17632W        W37166   0.587  12.039  12.866  0.2928 -0.0162 -0.0490
17633W        W37167   0.049  12.113  11.997 -0.0310 -0.0843 -0.0294
17634W        W37168   3.960   4.439   3.158 -0.1769  0.0434  0.0549
17635W        W37169  13.794   1.865  13.969  0.0258 -0.0232 -0.0738
17636W        W37170  16.232   8.028  11.181  0.3030 -0.3925  0.0968
17637W        W37171   0.432   6.946  13.088  0.1086  0.0047  0.2286
17638W        W37172   8.593   3.252  10.208 -0.3291  0.3280  0.4087
17639W        W37173   4.207   0.275   1.519 -0.1552  0.1129  0.0882
17640W        W37174  18.275  14.141  10.171  0.2815  0.1122  0.1140
17641W        W37175  12.647  19.453   4.249  0.0498 -0.2523  0.0691
17642W        W37176  12.034   3.229  13.612  0.1466  0.0352 -0.0044
17643W        W37177  11.699  15.961   3.042 -0.0830 -0.1133 -0.0794
17644W        W37178  14.486   2.314   9.197  0.3557  0.2705  0.1268
17645W        W37179   7.827   2.755  12.297  0.2583 -0.2142  0.0628
17646W        W37180  17.926  16.170  13.944 -0.0304 -0.0301  0.3381
17647W        W37181  18.842  15.563   0.439 -0.1881  0.1898  0.0977
17648W        W37182   7.102  14.280  12.330  0.4300 -0.0072  0.0392
17649W        W37183   8.076  13.069   0.637  0.2030 -0.1320 -0.1156
17650W        W37184  17.042   4.913  11.411  0.1385  0.1447  0.1952
17651W        W37185   0.060   2.499   3.245  0.3474  0.0386  0.0407
17652W        W37186  13.400  14.990  12.650  0.1002  0.1748 -0.2851
17653W        W37187   4.325   3.330   1.800 -0.0557 -0.2614  0.1733
17654W        W37188   2.311  10.597   2.701 -0.0237  0.2079 -0.0300
17655W        W37189  11.240  10.643   2.009  0.1225  0.0345  0.1070
17656W        W37190   3.294   3.503   4.089 -0.1645  0.2640 -0.1330
17657W        W37191   1.151   2.835  13.581  0.1000  0.0550 -0.1621
17658W        W37192   3.590  13.738  10.214  0.3329 -0.0216  0.1021
17659W        W37193   3.177   9.902  11.360  0.0066 -0.1241  0.0532
17660W        W37194   7.387   1.724   2.083  0.1414 -0.0171 -0.0301
17661W        W37195   4.147   6.481   0.104 -0.1171  0.2746 -0.1003
17662W        W37196  11.058   5.132   1.926 -0.0099  0.0197 -0.0184
17663W        W37197  10.682   8.069  10.506 -0.1691 -0.0159 -0.1027
17664W        W37198   4.470  15.421  10.875  0.0422 -0.0370 -0.1541
17665W        W37199  12.758   5.337   0.349 -0.3065  0.0733 -0.0431
17666W        W37200  17.341   8.247  11.131  0.0886 -0.0837  0.0611
17667W        W37201  11.977  14.553   3.611 -0.3595 -0.2114  0.1201
17668W        W37202   3.517  15.546   3.949 -0.1378 -0.0295 -0.0905
17669W        W37203   8.739  13.136   3.770  0.0876  0.0696 -0.0694
17670W        W37204   6.257   7.301  12.256  0.0769 -0.1014  0.1588
17671W        W37205  15.014  11.806  11.726  0.3766  0.3366 -0.0817
17672W        W37206  14.982   7.664  11.020 -0.0899 -0.2865  0.3725
17673W        W37207  15.000  15.002   0.868  0.1216  0.0336  0.0015
17674W        W37208   6.584   2.343   9.419  0.0703  0.1782 -0.2476
17675W        W37209   2.607   6.550   1.694  0.1394  0.1107  0.0964
17676W        W37210   0.906  13.392  10.750  0.3261 -0.1535 -0.1549
17677W        W37211  17.178   3.580   3.350 -0.2725 -0.0570 -0.2474
17678W        W37212   3.540   1.604  13.331  0.3402 -0.0194 -0.0056
17679W        W37213  11.296  16.613  10.770  0.1012 -0.2176  0.2811
17680W        W37214   7.457   7.323   0.469 -0.0853  0.0601 -0.0580
17681W        W37215  17.955   2.462   3.790  0.0638  0.3811 -0.0040
17682W        W37216  14.465  14.772  11.939  0.0728  0.1457  0.2039
17683W        W37217   2.878  15.460  10.711  0.1582  0.0531  0.1196
17684W        W37218  12.865  10.498   1.550  0.1008  0.1601  0.1460
17685W        W37219   7.420  11.398   4.207  0.2998  0.0241 -0.1712
17686W        W37220  12.586  13.321  13.494  0.1438 -0.0525 -0.2608
17687W        W37221   5.234   0.310  13.899 -0.0897 -0.1289 -0.4300
17688W        W37222  11.815   5.813  13.648 -0.2429  0.1711 -0.0360
17689W        W37223   8.100  17.192  14.178  0.1280 -0.3638  0.0916
17690W        W37224   7.335  12.783  10.333  0.3198 -0.2806  0.1362
17691W        W37225   2.266   1.844   3.467  0.0198  0.2381  0.2535
17692W        W37226   3.451   0.773  13.775 -0.3029 -0.0145 -0.0711
17693W        W37227  15.098  15.010   3.585  0.3638 -0.0750  0.1639
17694W        W37228  12.366   2.166  12.201 -0.2976  0.2162  0.1139
17695W        W37229   5.508  12.928  13.868  0.3037  0.0096  0.1192
17696W        W37230   6.080  12.540   2.359 -0.0655 -0.2027 -0.0942
17697W        W37231  14.476   5.449  10.779  0.0017 -0.1982  0.0515
17698W        W37232   6.162   4.568  11.154 -0.2047  0.0730  0.0528
17699W        W37233   9.253  16.905  12.853 -0.0635 -0.2146 -0.0297
17700W        W37234  17.065  16.052  11.995 -0.1420  0.0724 -0.3087
17701W        W37235   1.092  11.859   3.635  0.2215  0.0677 -0.1042
17702W        W37236  17.975  17.163  13.346 -0.1044 -0.4429  0.0508
17703W        W37237  19.300   6.404   2.391 -0.0019  0.0044  0.2106
17704W        W37238   3.405   4.258  10.986 -0.0464  0.1934 -0.3424
17705W        W37239  13.945  14.678  13.800 -0.0274 -0.0973 -0.1545
17706W        W37240   4.742  14.757   1.736  0.1093 -0.5203 -0.0475
17707W        W37241  10.320   6.215  12.779  0.3926  0.1489  0.0064
17708W        W37242   7.654  14.670   1.809 -0.3260  0.2120  0.1101
17709W        W37243   4.026  16.839   0.436  0.0321 -0.1627 -0.3904
17710W        W37244   7.737   4.752  12.943 -0.2614  0.1128  0.1091
17711W        W37245   8.157  18.307   1.996  0.0086  0.2216  0.1891
17712W        W37246   6.541  17.013  11.739  0.0771 -0.3194 -0.1013
17713W        W37247   5.556  14.273  13.396 -0.0150  0.2629  0.2383
17714W        W37248  13.629  13.083   2.692  0.1365 -0.2483  0.1850
17715W        W37249  14.969   0.872  12.747 -0.4999 -0.0695 -0.2038
17716W        W37250  10.201  14.040  12.721 -0.1380 -0.2711 -0.2962
17717W        W37251  10.038  14.183  13.532 -0.0008 -0.1011  0.0303
17718W        W37252  12.874  18.454  12.810 -0.1768  0.3408 -0.2201
17719W        W37253  10.540  15.836   1.834 -0.3859 -0.0101  0.3250
17720W        W37254  10.172  18.554   0.868  0.1436 -0.0850  0.1587
17721W        W37255   3.915   4.212  13.528 -0.0878 -0.1896 -0.1089
17722W        W37256   9.479   4.513   4.875  0.0112 -0.0345  0.3530
17723W        W37257  15.816   5.100   0.537 -0.2061  0.1723 -0.0856
17724W        W37258  16.049  17.228   1.310  0.0499  0.1023  0.1089
17725W        W37259   2.720  11.593   3.633  0.0898 -0.1913  0.1554
17726W        W37260  12.548  10.063   9.448  0.4737  0.0359 -0.1039
17727W        W37261  15.013   0.250  11.469  0.0669 -0.2053  0.1336
17728W        W37262   5.374  13.166  12.302  0.0313  0.0483 -0.0276
17729W        W37263  13.279  17.486   2.584 -0.1037  0.1125  0.0717
17730W        W37264  13.685  10.499  12.018 -0.2090 -0.0969 -0.0445
17731W        W37265   9.251   7.216   1.865 -0.0502  0.2592  0.1149
17732W        W37266  14.853   9.243  14.090 -0.0088  0.1465  0.0442
17733W        W37267  18.751  10.619  11.800 -0.1239 -0.2912  0.1314
17734W        W37268  14.718  12.694   0.643 -0.1438  0.1941 -0.1484
17735W        W37269  16.158  13.592  12.481  0.3436 -0.0023  0.1970
17736W        W37270  15.420  16.482   2.942  0.3840  0.2215  0.0494
17737W        W37271  18.984   7.043   2.427 -0.0532 -0.1551  0.0192
17738W        W37272   7.621  17.872   3.823 -0.0514 -0.1000 -0.1915
17739W        W37273   2.043   7.502  13.759 -0.0187 -0.0016  0.3404
17740W        W37274  18.598   5.985   3.018  0.1004 -0.1813 -0.1272
17741W        W37275   0.574   1.796  14.326 -0.0321  0.0339 -0.1955
17742W        W37276   2.802  18.438  11.865  0.2397  0.0656 -0.1231
17743W        W37277   4.049  11.652  11.194  0.0746 -0.4772  0.3885
17744W        W37278   4.526  19.129  10.642 -0.2145 -0.1761  0.2171
17745W        W37279  19.086  16.657   4.074 -0.0561 -0.0955  0.2859
17746W        W37280   1.081  18.773   1.945 -0.0821  0.0141  0.0174
17747W        W37281  17.388  17.530   1.545 -0.2797  0.2820  0.1833
17748W        W37282   5.152  17.585   0.043  0.1559  0.0533 -0.0687
17749W        W37283   0.648   2.289  13.055  0.0362 -0.1548 -0.0301
17750W        W37284   4.092  15.801  10.610  0.1408  0.0287 -0.1519
17751W        W37285   8.502  13.030   0.983 -0.3942 -0.2682 -0.0480
17752W        W37286  10.482  18.271   2.383  0.4205  0.3421 -0.0197
17753W        W37287  16.445  13.290  13.313  0.3673 -0.0618  0.0627
17754W        W37288  11.552  14.309   9.126  0.3322  0.1665 -0.0672
17755W        W37289  17.999  18.229   2.744  0.0302 -0.2314 -0.1687
17756W        W37290   3.639   9.789  11.394  0.1441  0.0753  0.1895
17757W        W37291   6.363  14.843   3.264 -0.1787  0.2768  0.0298
17758W        W37292   7.022  17.286   2.632 -0.2750  0.1628  0.0495
17759W        W37293   9.904   7.748   3.656 -0.1085 -0.4383 -0.0541
17760W        W37294  13.448  14.469   2.958 -0.3702  0.1942 -0.1066
17761W        W37295   3.958  11.042   0.133 -0.1458 -0.0268  0.0610
17762W        W37296  14.218   6.256  14.127 -0.1127 -0.1953  0.0107
17763W        W37297  18.270   1.568   3.302 -0.0916  0.2135 -0.0417
17764W        W37298  15.742   6.310   4.136 -0.2040 -0.0809 -0.3086
17765W        W37299  18.255  10.469  10.351 -0.2091  0.1691 -0.0441
17766W        W37300  19.008   8.447  12.302 -0.1131 -0.1434 -0.1508
17767W        W37301  16.891  19.378  11.236 -0.1640 -0.1908 -0.2041
17768W        W37302  17.103  17.908   2.825 -0.1652 -0.0768  0.2429
17769W        W37303  15.265  16.008  11.938  0.0879 -0.1990 -0.0094
17770W        W37304  12.938  18.252   1.983 -0.1648 -0.0668  0.1327
17771W        W37305  16.959  14.153  11.318 -0.3478  0.0236  0.2572
17772W        W37306  17.822   3.168   1.406 -0.2810  0.0716  0.3011
17773W        W37307  13.947   1.091   1.589 -0.1374  0.1840  0.0068
17774W        W37308   9.845   2.959   4.788  0.1382  0.1539 -0.0878
17775W        W37309   7.478   2.024  12.630  0.1117  0.1811 -0.1097
17776W        W37310  18.010   4.171  13.036 -0.0345 -0.0731  0.0533
17777W        W37311  17.779  10.457  12.443  0.0048  0.1650 -0.0656
17778W        W37312   2.101   4.076   0.667 -0.3271  0.3043 -0.0437
17779W        W37313   7.388   6.046  13.629 -0.0027 -0.1042 -0.4014
17780W        W37314  17.742   7.901  11.073 -0.0980  0.0287  0.4871
17781W        W37315   6.869  15.162   0.277 -0.1198  0.1270 -0.0555
17782W        W37316  19.470  15.894  14.134  0.0697 -0.1318 -0.1404
17783W        W37317   7.483  15.887   3.853 -0.0418 -0.3273  0.0601
17784W        W37318  12.064  10.640   3.632  0.1019  0.2195 -0.2307
17785W        W37319   4.863   6.950   3.752  0.3894 -0.2794  0.0276
17786W        W37320  18.321  13.908  13.117  0.1316  0.1729  0.2279
17787W        W37321   0.387   4.842   4.417 -0.1643  0.1036 -0.1644
17788W        W37322  10.051   3.286  12.872 -0.3406 -0.2046 -0.0439
17789W        W37323   7.983  11.634  11.529 -0.1142  0.1489  0.0056
17790W        W37324  17.070  17.043  13.362 -0.1842 -0.0000  0.1531
17791W        W37325  17.757  17.457   2.430  0.0870 -0.1200 -0.0654
17792W        W37326  12.053  10.403   0.059  0.2304 -0.1876  0.1560
17793W        W37327   6.184  13.413   9.772  0.2243  0.2347 -0.0526
17794W        W37328   1.743   2.944  11.360 -0.2306 -0.1473 -0.1745
17795W        W37329  17.221   0.484   0.158 -0.0435 -0.0498  0.2756
17796W        W37330   6.556  18.920   4.025 -0.1075 -0.1773 -0.2918
17797W        W37331  14.937   4.612   2.314  0.0364 -0.1110 -0.0537
17798W        W37332   2.616   8.143   0.974  0.0338  0.2091  0.1291
17799W        W37333   0.943  10.968   2.477  0.3442  0.2048  0.2396
17800W        W37334  10.299   8.654   2.285 -0.3010 -0.3879  0.0844
17801W        W37335   2.156  15.969   0.907  0.4365 -0.0161 -0.2538
17802W        W37336  10.834  13.762   9.243  0.2153 -0.0948  0.0404
17803W        W37337   9.635  15.069  13.665  0.1932  0.1525 -0.0163
17804W        W37338   6.858  12.078  10.900  0.0309 -0.3291  0.0184
17805W        W37339  18.480  12.774   2.479  0.1443  0.4248  0.2791
17806W        W37340  19.065  14.785  11.654  0.1142 -0.0422 -0.3277
17807W        W37341   8.272  16.871  12.329  0.2055 -0.4438 -0.0102
17808W        W37342  13.589  18.611   0.679  0.1098 -0.0284  0.1032
17809W        W37343  17.927   2.869   2.231 -0.0636 -0.1633 -0.3223
17810W        W37344   7.892   5.374  13.038  0.1278  0.3562 -0.2018
17811W        W37345   6.370   8.332  12.204  0.1128 -0.0614  0.0868
17812W        W37346   7.583  13.652   3.346 -0.2819  0.0514  0.0873
17813W        W37347  18.054  13.514  13.921 -0.1996  0.1633 -0.0074
17814W        W37348  19.533   4.224   1.991  0.2744  0.1886 -0.0415
17815W        W37349  15.163   0.929  13.613  0.1038 -0.0417  0.2219
17816W        W37350   0.697  18.513  13.901 -0.3420  0.0462 -0.1909
17817W        W37351  18.866   2.580  11.439  0.1489  0.1976  0.3429
17818W        W37352  15.666  11.409  11.212  0.1096  0.0526  0.0887
17819W        W37353   9.178   2.290   0.971  0.2113  0.0252  0.1283
17820W        W37354  14.569   8.078   1.315  0.0824 -0.0845 -0.3114
17821W        W37355  13.721   1.689  13.101  0.0578 -0.0843  0.0175
17822W        W37356  11.598   4.630   2.664  0.1166 -0.2309  0.1096
17823W        W37357  14.924   9.419   4.001 -0.0431 -0.1632  0.1704
17824W        W37358   0.817   2.358   0.783  0.0790  0.0919  0.2934
17825W        W37359  15.261   1.197   3.265  0.2702 -0.2137 -0.0549
17826W        W37360  18.616   7.417  10.853  0.2078 -0.4442 -0.1019
17827W        W37361   7.527  15.235   0.766 -0.1454  0.1782  0.1344
17828W        W37362  14.969   1.851  14.054 -0.4495  0.0408 -0.0959
17829W        W37363  14.054   1.341  13.013 -0.2052  0.2102 -0.4544
17830W        W37364   0.695   7.070  12.286  0.0529 -0.1556 -0.0240
17831W        W37365   4.272   4.100  14.019 -0.1507 -0.1321  0.0308
17832W        W37366   9.788  18.471   3.062  0.1788  0.1396 -0.1852
17833W        W37367   3.064  12.833   1.701 -0.1628  0.1331  0.2672
17834W        W37368  16.007  10.957  12.473  0.1541  0.0777 -0.1069
17835W        W37369   5.171   8.644   2.044 -0.1054 -0.2098  0.1783
17836W        W37370   5.196   8.173  12.741  0.1099  0.1419  0.1235
17837W        W37371  15.979  10.850   2.528  0.0756 -0.1088  0.0235
17838W        W37372   9.262   1.353  14.305 -0.1279  0.0338  0.3375
17839W        W37373   8.023   4.066  11.363  0.2825  0.1572  0.1648
17840W        W37374  17.741   5.472  10.522  0.2742  0.2701  0.0605
17841W        W37375  13.620   5.199   2.266 -0.0310 -0.0183  0.0588
17842W        W37376   8.329   2.262   1.297  0.1716 -0.0141  0.3472
17843W        W37377   2.312   1.375  10.039  0.2050 -0.1416 -0.0814
17844W        W37378  13.684  11.693   2.228  0.2919 -0.0839  0.3112
17845W        W37379  10.439   9.903   3.338 -0.2370  0.2338 -0.3089
17846W        W37380   9.529   2.234  13.505 -0.1978 -0.1134 -0.2026
17847W        W37381  10.214   8.631   3.954  0.3304 -0.2118 -0.3346
17848W        W37382   6.430   3.711   2.084  0.2222  0.0710 -0.0019
17849W        W37383   5.955   0.529   2.828  0.0478 -0.3415 -0.3693
17850W        W37384  19.000   2.028  13.157  0.3604  0.1198 -0.1122
17851W        W37385   8.622   8.753  13.685  0.1208 -0.0118 -0.2478
17852W        W37386  11.399   2.567   4.155  0.1996  0.2389 -0.3238
17853W        W37387   2.298  14.463  10.556  0.1391 -0.1938 -0.0749
17854W        W37388  14.870   4.562   5.139 -0.1426 -0.0712 -0.0801
17855W        W37389  15.115   1.289  11.818 -0.1984  0.0329 -0.3931
17856W        W37390  16.415   4.533   0.146 -0.3413  0.0115 -0.1866
17857W        W37391  10.768  18.599   2.689  0.1768  0.0701  0.0737
17858W        W37392  15.719  12.334  10.320  0.0075 -0.0977  0.1386
17859W        W37393   0.868  19.117   0.235 -0.1473 -0.0427 -0.3654
17860W        W37394  19.465  18.921  11.803 -0.0182  0.4916 -0.1257
17861W        W37395  10.786   5.514   1.073 -0.1719  0.0410  0.2791
17862W        W37396  12.021  15.045  12.158  0.4544  0.0190  0.1595
17863W        W37397   1.360   7.012  12.847 -0.0859 -0.2467  0.1118
17864W        W37398   8.839   6.043   4.413  0.0239  0.0052  0.0431
17865W        W37399   3.265  15.532  11.083 -0.0664  0.3079 -0.0129
17866W        W37400  15.290   1.864   0.733  0.0660  0.0388  0.1555
17867W        W37401   0.673   8.749  13.779 -0.1677  0.2423 -0.0496
17868W        W37402   8.297  15.707  12.605 -0.1305 -0.1812  0.4219
17869W        W37403   1.083   5.068   2.640  0.0717  0.1703 -0.0844
17870W        W37404  16.236  15.410  10.808 -0.2221 -0.0893 -0.1536
17871W        W37405   7.650   0.103   1.093  0.2974  0.2401  0.2213
17872W        W37406   6.901  11.776   9.194 -0.0340 -0.2014 -0.0064
17873W        W37407   0.451  17.927   0.956  0.0543  0.0896 -0.1424
17874W        W37408  13.210  16.091  13.702  0.5826  0.3425  0.0254
17875W        W37409   2.438  15.086   9.001  0.1686 -0.3144  0.2507
17876W        W37410   4.117   7.061   2.386 -0.0250  0.1974  0.0162
17877W        W37411  14.531  14.715   3.605 -0.0093  0.2765 -0.2991
17878W        W37412   2.306  11.798  10.305  0.1431 -0.2530 -0.1002
17879W        W37413   3.744  14.956  12.673  0.1789  0.4242 -0.1118
17880W        W37414  17.931   8.617  13.176  0.2507 -0.1373  0.0541
17881W        W37415   4.087   2.857   3.969  0.0639  0.3410  0.3103
17882W        W37416  15.955  12.797  10.551 -0.0852  0.0899  0.4675
17883W        W37417  19.390   2.332  11.491  0.0154 -0.1975  0.1391
17884W        W37418  10.731  12.502   9.991  0.1640 -0.2299 -0.1536
17885W        W37419  12.702  14.753   9.907  0.1616 -0.0476  0.1456
17886W        W37420  19.086   4.194  13.422  0.0770  0.0132  0.1577
17887W        W37421   1.920  18.240   2.119  0.0225 -0.2093 -0.1908
17888W        W37422  14.403  19.499  12.008  0.1953  0.2337 -0.0089
17889W        W37423  11.220  18.458   2.868  0.2163  0.2165  0.1567
17890W        W37424   7.330   3.869   1.581 -0.2216 -0.0274  0.1447
17891W        W37425   5.640   8.517   9.703  0.3221  0.0877 -0.1287
17892W        W37426   5.459  13.078  13.170 -0.0888  0.0063 -0.0279
17893W        W37427  13.660  16.042  10.020  0.0047  0.0922  0.1678
17894W        W37428  18.772   4.783  12.683  0.3327 -0.2438 -0.0667
17895W        W37429   6.077  19.210  10.858 -0.2310 -0.0275 -0.1639
17896W        W37430  11.101   9.324   0.824 -0.0659 -0.1522 -0.3164
17897W        W37431  14.789   5.974   0.078 -0.1034  0.0313 -0.0317
17898W        W37432  17.471   2.168   0.551 -0.0667  0.0887 -0.1819
17899W        W37433   6.366   6.471   3.716 -0.0583  0.0025 -0.1651
17900W        W37434   7.753   1.422   2.367 -0.2816  0.0636  0.2814
17901W        W37435   3.211   9.011  10.966  0.2812 -0.0600  0.3626
17902W        W37436  18.288  10.735  12.663  0.4487  0.0173  0.0807
17903W        W37437  11.766   6.977  12.186  0.1132  0.0902  0.3499
17904W        W37438  17.074  10.584  11.807 -0.0319  0.1381  0.2871
17905W        W37439   9.011  17.362   3.300 -0.2324  0.1095  0.1584
17906W        W37440  16.295  15.605   1.237  0.1288  0.1174  0.2423
17907W        W37441  18.007  15.667  13.070  0.0238  0.0976  0.0954
17908W        W37442  11.376   4.990   2.929  0.1228  0.0684 -0.1285
17909W        W37443  17.829   4.691  11.032 -0.2466 -0.2696 -0.1584
17910W        W37444   9.557   6.526  11.991 -0.0281 -0.0700 -0.2994
17911W        W37445  18.832  12.189   0.044  0.3501  0.1696 -0.0453
17912W        W37446   3.487   0.869   2.760 -0.0837 -0.2042  0.1167
17913W        W37447  13.697   9.359   3.274 -0.1710 -0.1298  0.0256
17914W        W37448  10.810   7.954  13.066  0.0274 -0.2563  0.0052
17915W        W37449  12.208  16.072   3.779  0.2366 -0.1397  0.2023
17916W        W37450  18.336  17.000  11.272 -0.2119 -0.1579 -0.2804
17917W        W37451  13.431   1.902   2.307 -0.0148  0.2796  0.3331
17918W        W37452   3.234   2.852   0.759  0.0766  0.1252  0.1504
17919W        W37453  14.998   3.967  13.003  0.0789  0.1042  0.5102
17920W        W37454   1.841  11.808   0.402 -0.0445  0.1824  0.1496
17921W        W37455   1.488  16.633   3.698 -0.1068  0.0040  0.0534
17922W        W37456  17.739  18.359   1.102  0.1811  0.2282  0.0005
17923W        W37457  13.896   3.126  13.607  0.1412  0.3030  0.1518
17924W        W37458   8.300   5.949   1.569 -0.0542 -0.0235  0.0872
17925W        W37459  16.213  13.826  11.292 -0.1413 -0.0553  0.1538
17926W        W37460   1.786   2.076  13.650  0.0207 -0.1087  0.1123
17927W        W37461   9.573   9.197   0.876 -0.0258  0.1822  0.1250
17928W        W37462   7.334   9.432   0.860  0.0588  0.2121 -0.3872
17929W        W37463  17.661   4.597  11.618 -0.0654  0.0782 -0.0048
17930W        W37464   5.857   5.610  11.400 -0.0200  0.0912 -0.3644
17931W        W37465   9.253   9.741   1.984 -0.2177 -0.0070  0.1786
17932W        W37466  18.187   7.809   0.632 -0.1153 -0.2003  0.1018
17933W        W37467  16.062   1.371   1.240  0.0068  0.1251  0.0051
17934W        W37468   0.240   4.579   0.376  0.4039 -0.3897  0.0822
17935W        W37469   4.432  14.484  13.903 -0.2199  0.1192  0.0153
17936W        W37470   9.978  15.790   0.533 -0.2387 -0.0245  0.1589
17937W        W37471   3.805   7.344   3.565  0.2458  0.3683 -0.0111
17938W        W37472  16.262   6.804   2.599  0.0180  0.0620 -0.1596
17939W        W37473   5.838  19.311   0.766  0.4052 -0.3938 -0.0244
17940W        W37474   9.208  10.019   2.738 -0.2167 -0.1507  0.1721
17941W        W37475   8.575   9.674  11.498 -0.2766  0.1046  0.1530
17942W        W37476   5.877   9.740  11.459 -0.2857  0.3064  0.1007
17943W        W37477  11.317   1.080  11.409  0.1075  0.3038  0.1746
17944W        W37478  10.345  16.747   3.063 -0.1765 -0.1576  0.0625
17945W        W37479   8.938   2.992  11.290  0.4079 -0.2973  0.0007
17946W        W37480  16.769  17.488  12.615  0.2320 -0.4060  0.1838
17947W        W37481   7.445  18.501  10.681 -0.0885  0.2427  0.0037
17948W        W37482   2.656  10.140   1.927 -0.4598  0.0333  0.1587
17949W        W37483  10.264   5.217   3.437  0.3317 -0.1240 -0.1361
17950W        W37484   9.188   2.699  12.267 -0.1946  0.2809 -0.4609
17951W        W37485  13.853   6.760   2.537 -0.1078  0.0847 -0.2474
17952W        W37486   0.199   1.699  11.916  0.0842 -0.0966 -0.2155
17953W        W37487  13.404   3.132  13.675  0.3537  0.1780 -0.1837
17954W        W37488  14.438   1.970   1.547 -0.2569 -0.4499  0.0608
17955W        W37489  10.809  11.304   2.760 -0.0373 -0.1270  0.1781
17956W        W37490   8.528   2.802   0.047 -0.2084  0.1837  0.2131
17957W        W37491   1.065   0.538  10.862  0.0127  0.0610  0.1160
17958W        W37492  12.573   2.349   4.029 -0.1250 -0.0060 -0.1714
17959W        W37493   9.605   1.293   4.475  0.2444 -0.0441 -0.2478
17960W        W37494   2.035   2.703  14.225  0.0315  0.0482  0.0224
17961W        W37495   8.606   4.384  10.172 -0.0840 -0.0417  0.2830
17962W        W37496   6.526   9.699   2.274  0.1768  0.0065 -0.0136
17963W        W37497   4.919   7.369  13.009 -0.1741  0.0722  0.0121
17964W        W37498   2.758   6.366  10.614 -0.0675  0.1283 -0.0261
17965W        W37499   5.826  18.139  11.924 -0.1285 -0.2813 -0.2874
17966W        W37500   6.020   0.496  12.115  0.1524 -0.1280  0.1272
17967W        W37501  16.982   7.729   3.910 -0.0808  0.2346  0.2841
17968W        W37502   3.254   0.226   0.885  0.2905 -0.1843 -0.0684
17969W        W37503   6.892   1.535   1.935 -0.0873 -0.1514 -0.0018
17970W        W37504   1.939   1.732   5.187 -0.0999 -0.1336 -0.0998
17971W        W37505   6.717  18.356   3.488  0.1825  0.3277  0.1870
17972W        W37506  12.764   7.348  13.194  0.0471 -0.1029 -0.2699
17973W        W37507  11.853  17.285  10.106  0.2729 -0.1332  0.1528
17974W        W37508  16.643  12.949  12.417 -0.0773 -0.0762  0.1894
17975W        W37509  15.197  18.287  13.898 -0.3452 -0.3460 -0.1796
17976W        W37510  16.965  15.872   0.656 -0.2118 -0.0793 -0.1063
17977W        W37511   8.074  14.140  12.761 -0.0438  0.0006  0.1511
17978W        W37512   2.901   1.235  12.126  0.0300 -0.0409  0.2239
17979W        W37513   6.820   5.168   2.848  0.1464  0.0312 -0.1447
17980W        W37514   8.746   8.756  12.573 -0.0696 -0.3872  0.0490
17981W        W37515  19.050  11.308  12.301  0.0844 -0.2632 -0.1379
17982W        W37516   9.157   4.180  12.736  0.2103  0.2045  0.1625
17983W        W37517  13.094  19.383   0.031  0.0046 -0.0313 -0.3452
17984W        W37518  18.460  10.455   0.727 -0.0527  0.2037  0.1961
17985W        W37519  14.402   3.883   4.436  0.0123 -0.2282  0.1834
17986W        W37520   0.193  15.354   2.912 -0.2470  0.1312  0.1359
17987W        W37521   7.026   9.361   0.354 -0.1701  0.1089 -0.0718
17988W        W37522   2.242  11.656   3.536  0.0568 -0.2010 -0.0184
17989W        W37523   6.052   4.220  11.950  0.1396  0.1389 -0.2694
17990W        W37524  13.487   4.679   3.184 -0.2198  0.0314 -0.1323
17991W        W37525  17.241  12.400   3.379  0.0577 -0.1054 -0.1055
17992W        W37526   4.194   1.567  10.698  0.0058 -0.2241 -0.3132
17993W        W37527  17.245   7.391   0.805 -0.1935 -0.1981  0.1204
17994W        W37528  12.402  17.182  10.359 -0.1029 -0.1774 -0.3313
17995W        W37529  11.534   6.679   0.665  0.0801 -0.0539 -0.1361
17996W        W37530  10.639  15.093  12.738  0.0187  0.1562  0.1455
17997W        W37531   5.743   6.494  12.588 -0.2790 -0.2097 -0.0260
17998W        W37532   2.353  11.423  12.959  0.1041  0.1869 -0.0619
17999W        W37533   5.238  15.074  12.342 -0.0399 -0.0874  0.2284
18000W        W37534  18.626  11.190  11.550 -0.1960 -0.3479 -0.1865
18001W        W37535   8.495   6.307   1.181 -0.0668  0.1403  0.0879
18002W        W37536   2.810   3.835  13.960  0.0725  0.0153  0.1726
18003W        W37537   3.939  10.585   0.293 -0.0378 -0.0267  0.1214
18004W        W37538  12.045   6.895   0.529  0.1462 -0.1592  0.1891
18005W        W37539  16.569   2.054  10.680 -0.1594  0.3393 -0.0301
18006W        W37540   6.973  12.976   3.181  0.2142 -0.3003  0.0054
18007W        W37541  17.666   8.383   0.186  0.1635  0.0285 -0.0630
18008W        W37542  16.350  11.276   1.182 -0.1530 -0.0336 -0.0078
18009W        W37543   6.225   7.391   4.266 -0.0105  0.5162 -0.1141
18010W        W37544   3.698  11.017  13.012 -0.3266  0.0940 -0.0970
18011W        W37545   0.668  12.759  12.116 -0.0560 -0.1142 -0.0762
18012W        W37546  10.651   2.558   0.633  0.0508  0.0744  0.1099
18013W        W37547  13.726   2.775   4.999 -0.0151 -0.1136  0.3174
18014W        W37548  10.989  14.254   1.727 -0.0543 -0.0189 -0.0349
18015W        W37549  12.593  16.884   2.874 -0.0469  0.0085  0.0768
18016W        W37550   3.337   7.533   3.484 -0.1144  0.2187  0.0632
18017W        W37551   0.146   2.207   2.491 -0.2465 -0.2752 -0.2478
18018W        W37552   5.021  10.712   1.620  0.1377  0.2803 -0.0231
18019W        W37553  11.813  10.637  11.324 -0.2123 -0.1161  0.3097
18020W        W37554   7.061  15.718   2.880  0.0139  0.2613  0.3648
18021W        W37555  17.510   4.236   2.031 -0.2077 -0.0984  0.1887
18022W        W37556  17.327  12.027   4.570 -0.2774  0.2752  0.1736
18023W        W37557   5.372   0.832  14.068 -0.4065 -0.2423  0.0291
18024W        W37558  10.806   9.122   1.197  0.1566  0.0757  0.2225
18025W        W37559  11.487   3.209   3.114 -0.0363 -0.0852  0.3224
18026W        W37560   3.288   1.786   1.356 -0.2739  0.1589 -0.3701
18027W        W37561   1.873   6.485   3.895 -0.1779 -0.1175 -0.0204
18028W        W37562  13.623   3.100  11.657 -0.5814 -0.2211 -0.2748
18029W        W37563  14.342  17.492   0.617 -0.2787  0.0479  0.2134
18030W        W37564   8.948  19.213  13.942  0.0245  0.2983  0.0205
18031W        W37565   7.742  18.855   2.944 -0.0749  0.2311 -0.1025
18032W        W37566  16.941  12.799   3.275  0.0724  0.1111 -0.0355
18033W        W37567  18.184  16.523   4.074 -0.1780  0.0141  0.1132
18034W        W37568  19.010   0.722   2.302  0.3138  0.1709  0.0470
18035W        W37569   1.911   3.226  12.720  0.0381 -0.1508 -0.2071
18036W        W37570   4.924   4.316   0.373  0.1713 -0.0492  0.0912
18037W        W37571   5.980  17.134  11.086  0.0154  0.1479  0.2771
18038W        W37572   4.978  11.339   4.210  0.1626 -0.2260  0.0192
18039W        W37573  18.243  18.516   0.158  0.1795 -0.1040 -0.2159
18040W        W37574  16.289   6.315  11.626  0.0294  0.3293 -0.1523
18041W        W37575  15.310  17.251   2.648  0.1931  0.0657  0.2648
18042W        W37576  12.887  13.354   2.871 -0.0814  0.2847  0.1645
18043W        W37577   5.957  10.561   0.440 -0.0605  0.0637 -0.1225
18044W        W37578  13.023   4.216  10.500 -0.0665 -0.2828 -0.0171
18045W        W37579  11.087  15.777  12.975  0.1421  0.0178  0.0502
18046W        W37580  17.481  16.954   2.209  0.1162  0.0869  0.0318
18047W        W37581   5.555   3.020  13.153 -0.0990 -0.0312  0.0583
18048W        W37582  14.074   7.846   0.032  0.1822 -0.0529  0.3064
18049W        W37583  17.521   7.908   0.061 -0.2318  0.0056 -0.1039
18050W        W37584   2.715   2.814   0.472  0.1191  0.1702 -0.0753
18051W        W37585   0.006  17.490  10.826 -0.0345  0.0286 -0.1625
18052W        W37586  17.666   6.129  13.225  0.4756  0.0538  0.0475
18053W        W37587  12.433   2.337  11.725 -0.0522  0.1498  0.0616
18054W        W37588  12.751   0.969  11.114 -0.2388 -0.0712 -0.2807
18055W        W37589   9.904  18.442   1.784 -0.1845  0.0756 -0.0625
18056W        W37590  12.985   7.567  11.660 -0.0621  0.1172 -0.0442
18057W        W37591  14.352   5.642  11.851 -0.3497 -0.0453 -0.3438
18058W        W37592  11.223   6.917  10.287 -0.0814 -0.0871 -0.5993
18059W        W37593  13.295   6.416   3.827 -0.0839  0.1124 -0.0501
18060W        W37594  13.743  19.064  12.635 -0.4654 -0.0135  0.1131
18061W        W37595   0.217   0.793   1.982 -0.1814  0.0779 -0.3842
18062W        W37596  13.607   7.652   4.186 -0.0391 -0.1906  0.1620
18063W        W37597  10.531  17.122  10.406  0.2433 -0.2728  0.0755
18064W        W37598   1.415   0.477   3.680 -0.1545 -0.1530 -0.1638
18065W        W37599  14.509   7.866   4.200 -0.0680 -0.0257  0.1371
18066W        W37600   8.267  10.924  10.859  0.0573  0.0419 -0.1600
18067W        W37601  19.020  17.792   2.450  0.0361 -0.0155 -0.0825
18068W        W37602  11.571  12.320   1.292 -0.1013 -0.1468 -0.1740
18069W        W37603  11.497   6.493   3.443 -0.1421  0.0031 -0.1429
18070W        W37604   1.264   9.738  12.840 -0.1741  0.0986 -0.0816
18071W        W37605  10.988   8.403  13.366 -0.0837 -0.2863  0.3897
18072W        W37606   4.709   4.595  11.546 -0.2042  0.0475 -0.0062
18073W        W37607   2.270  15.885  11.114 -0.0216  0.1407  0.4004
18074W        W37608   5.930   3.664   2.382  0.2164  0.0434  0.2012
18075W        W37609   9.127  12.079   3.319 -0.0426 -0.2580 -0.2097
18076W        W37610   5.129  14.002   1.042  0.0250 -0.0808  0.1826
18077W        W37611  18.820  15.442   3.011  0.3111  0.3870  0.1547
18078W        W37612  12.956   8.460   1.957 -0.1723 -0.0539  0.0234
18079W        W37613  15.236   0.561   2.508  0.0154 -0.1038  0.3381
18080W        W37614  17.450   6.874  12.597 -0.0145 -0.1441 -0.0421
18081W        W37615   1.821  17.172  14.052  0.1263  0.0338  0.0089
18082W        W37616   7.130  12.850   0.910  0.1384  0.1722 -0.3719
18083W        W37617   2.548  10.726   1.837 -0.0564  0.0566 -0.0275
18084W        W37618  10.925  15.720  11.489 -0.0220  0.0474 -0.2026
18085W        W37619  18.166   0.730  13.910 -0.0309  0.1695  0.1340
18086W        W37620  16.697   3.890   1.565 -0.1592 -0.0870 -0.0188
18087W        W37621   9.559   0.366  13.659  0.1713 -0.3402  0.1317
18088W        W37622  18.260   1.894  12.938 -0.0548  0.1107  0.1899
18089W        W37623  16.726  10.151  12.586 -0.1225  0.2006 -0.2016
18090W        W37624   9.743   8.748   3.056 -0.0778 -0.0025  0.0508
18091W        W37625  12.015  16.230  11.137  0.1646  0.0679  0.1342
18092W        W37626   1.911  15.806   1.919 -0.6946 -0.1986 -0.0876
18093W        W37627   4.267   2.091   0.475  0.1576 -0.1240  0.0168
18094W        W37628   3.878   0.948   3.273  0.1876 -0.0682  0.0636
18095W        W37629   4.694   2.003  13.101 -0.1216  0.0107 -0.0248
18096W        W37630   3.086   3.552   0.549  0.1768  0.3969 -0.1139
18097W        W37631   0.330   3.312   1.722  0.3306 -0.2222  0.0460
18098W        W37632   0.931  18.161  14.211 -0.0745 -0.1247 -0.0346
18099W        W37633  19.152  16.917  12.532 -0.1743  0.0577 -0.0252
18100W        W37634  13.074   4.119   3.935 -0.0619 -0.3170  0.0414
18101W        W37635   4.237   3.690   4.086 -0.2778 -0.0087 -0.0990
18102W        W37636   2.087   1.663   1.868  0.0920 -0.2422 -0.3514
18103W        W37637  19.518   4.927  11.856  0.0255  0.0562 -0.2903
18104W        W37638  15.457   9.470   2.830 -0.1667 -0.1963 -0.1252
18105W        W37639  14.518   4.299   9.239  0.1826  0.1177 -0.0658
18106W        W37640   4.019   0.276   2.528 -0.5972  0.1446  0.1670
18107W        W37641   5.283   1.931   5.070  0.0054  0.0200  0.3027
18108W        W37642   0.700   8.215  13.087  0.2448 -0.1612 -0.1527
18109W        W37643   8.980  15.773   0.065  0.0204 -0.0303 -0.0843
18110W        W37644  13.577  12.753  10.203 -0.4943  0.4240  0.1262
18111W        W37645   0.579  12.364   2.507 -0.2080 -0.0544  0.1200
18112W        W37646  14.987   5.288  10.765 -0.0792 -0.2429  0.1528
18113W        W37647   3.420   0.981   9.522  0.2657 -0.2352  0.0104
18114W        W37648   9.744   8.944  11.956 -0.0339 -0.4520 -0.1635
18115W        W37649   0.681  18.002   2.096 -0.3148  0.0782  0.0944
18116W        W37650  10.339  12.290  10.245  0.1521  0.1076  0.0084
18117W        W37651   0.530   2.315  13.853  0.2808  0.0523 -0.1716
18118W        W37652  13.442   0.496   0.683 -0.2142 -0.1621 -0.1009
18119W        W37653  13.951   5.769   1.551  0.1430  0.1964 -0.3151
18120W        W37654  18.100  12.717  11.226  0.3677  0.0821  0.0037
18121W        W37655   6.202   5.010  10.992  0.1656 -0.1342  0.1634
18122W        W37656  17.364   2.648   3.551 -0.1568  0.0988  0.0661
18123W        W37657  14.626   0.500  10.932  0.0105  0.1845 -0.5339
18124W        W37658  13.418   2.389   2.444  0.2475 -0.0904  0.2554
18125W        W37659  18.959   5.005  11.817 -0.0297 -0.1749  0.0357
18126W        W37660   4.705  13.861  10.573 -0.0253  0.0440  0.0536
18127W        W37661  13.222  11.430   2.613 -0.0050 -0.1147  0.0190
18128W        W37662   5.184   4.320   1.583 -0.0641  0.5868 -0.2247
18129W        W37663  14.958  19.181  13.658 -0.1535  0.0146 -0.2454
18130W        W37664   5.505  10.682   9.622 -0.5007  0.2509 -0.2056
18131W        W37665   4.663  15.480  13.148  0.0469 -0.2933  0.0014
18132W        W37666  15.925   7.123  12.924  0.1804  0.1718 -0.1354
18133W        W37667  16.638   3.277   2.583  0.3765  0.2375 -0.1338
18134W        W37668   0.053   3.235  12.965 -0.0200  0.0752 -0.0028
18135W        W37669   2.114   5.827  13.524  0.1344  0.0800  0.0384
18136W        W37670  18.863  13.536  12.545  0.0416 -0.1417  0.0553
18137W        W37671   9.528   5.360  10.563  0.0505  0.1051  0.0505
18138W        W37672  10.887   8.562  10.277  0.0279 -0.1578  0.2834
18139W        W37673   8.018  17.708   0.013 -0.1919 -0.1673 -0.1978
18140W        W37674  18.336   9.281   0.367 -0.2132 -0.1322  0.1411
18141W        W37675   2.013   8.486  13.417  0.2505 -0.1397  0.3866
18142W        W37676   5.444  13.809  11.000  0.0775  0.2125 -0.0406
18143W        W37677   4.521   1.950  11.670 -0.2269  0.0522 -0.2188
18144W        W37678   4.515   4.635  13.278  0.0125  0.1170  0.0839
18145W        W37679  16.592  15.688  12.878  0.0055  0.0323 -0.2055
18146W        W37680   8.097   2.956  11.222  0.2038 -0.1940  0.2683
18147W        W37681  10.562   9.463  12.361  0.1171  0.0955 -0.1918
18148W        W37682  19.153  16.518   9.152  0.0103  0.1325  0.0962
18149W        W37683  10.749   5.977   2.150 -0.1286  0.1138  0.4148
18150W        W37684  11.030  14.985   3.511 -0.0815  0.1067 -0.1158
18151W        W37685   5.325   3.409   2.918 -0.2553 -0.0630 -0.0627
18152W        W37686  16.000   8.709   0.048  0.1291 -0.2898  0.1648
18153W        W37687  14.136   7.251   4.762  0.2197  0.0228 -0.2602
18154W        W37688   1.220  13.816  10.785  0.1186  0.0527  0.0634
18155W        W37689   1.055  13.375   2.816 -0.1877  0.0112  0.1361
18156W        W37690  16.171  18.916   4.237  0.1676 -0.2293  0.2249
18157W        W37691  19.364   7.982   5.198  0.0396  0.0754  0.0360
18158W        W37692   0.190  16.989   2.313  0.1471 -0.0810  0.0260
18159W        W37693  12.808  17.239   2.081  0.1383 -0.1396 -0.1873
18160W        W37694   0.845   2.882   1.349 -0.4652 -0.0829 -0.1415
18161W        W37695   4.323   1.390   2.395  0.0459 -0.0224 -0.1124
18162W        W37696   1.780   0.249  11.009 -0.0692 -0.3043  0.4049
18163W        W37697  18.070  11.146  12.847  0.1706 -0.1969  0.2246
18164W        W37698  16.749  15.651  11.817  0.0123  0.2317 -0.0619
18165W        W37699  19.328  14.698   0.741  0.1423  0.0363  0.1500
18166W        W37700   9.678  11.722   0.477 -0.0690 -0.1946 -0.1222
18167W        W37701   5.467   5.547  12.960 -0.0571  0.3389 -0.3489
18168W        W37702  19.474  16.572   2.467  0.0073 -0.1137 -0.0199
18169W        W37703  16.966  16.122  12.821  0.2416  0.0143  0.0610
18170W        W37704   5.517   0.286  13.457  0.3568 -0.0155  0.2966
18171W        W37705   4.537  10.794  10.850 -0.2246  0.0454  0.1309
18172W        W37706  17.278  18.786   0.844 -0.1817 -0.0311 -0.0104
18173W        W37707   6.809   8.805   3.886  0.3133  0.2409  0.1407
18174W        W37708   8.125  12.105   0.863 -0.0665  0.0210  0.2173
18175W        W37709  14.934   6.412   3.666  0.4765 -0.2260  0.0985
18176W        W37710  12.509   0.510  12.275 -0.0643  0.3599  0.0692
18177W        W37711   3.916   9.070   0.641  0.2663 -0.1763 -0.1855
18178W        W37712   5.288  15.962  10.550  0.4157 -0.2630 -0.1030
18179W        W37713  12.164  15.209  13.575  0.0055  0.0739 -0.4145
18180W        W37714  13.358  17.034   3.963 -0.0101  0.0879 -0.2384
18181W        W37715   1.332   8.762   5.072  0.1243  0.1123 -0.0770
18182W        W37716  10.581   8.429  12.444  0.1106 -0.0674  0.2806
18183W        W37717   1.235  18.665  13.379  0.0047 -0.2741  0.0189
18184W        W37718  11.403   5.767   0.221  0.0202  0.1903  0.0334
18185W        W37719   8.132  14.826   1.905  0.0062  0.2854 -0.2100
18186W        W37720  18.932  12.886   3.677  0.2381  0.4261 -0.2890
18187W        W37721   8.963  13.301   3.300 -0.0279  0.3736  0.0781
18188W        W37722  11.997  17.573   2.613 -0.3750  0.2235 -0.0137
18189W        W37723  13.330   3.272  11.130 -0.2039 -0.4932 -0.0012
18190W        W37724   1.091   7.884  10.828  0.4478  0.1711  0.0151
18191W        W37725  18.103   5.201  13.993 -0.1270  0.1984  0.2955
18192W        W37726   8.831  15.958  10.945 -0.0685 -0.3624  0.1219
18193W        W37727  14.619  18.165  12.452  0.0758 -0.0606  0.0003
18194W        W37728   5.735   5.002  14.009  0.0407 -0.0098  0.0901
18195W        W37729  17.729   6.166  11.786  0.1241  0.1432 -0.2412
18196W        W37730   8.521  19.083  12.281  0.4078  0.2467 -0.1830
18197W        W37731  10.445  12.555   1.994  0.1007 -0.1995  0.1089
18198W        W37732  11.660  12.916   1.052  0.5618  0.1017  0.0234
18199W        W37733  16.602  16.592   4.292 -0.0358  0.0521 -0.1362
18200W        W37734  19.256   4.573   1.543  0.1674 -0.0655  0.1831
18201W        W37735  18.856   8.593   0.882  0.1329  0.2565 -0.1481
18202W        W37736  13.344  14.757  13.223 -0.1879 -0.2704 -0.0457
18203W        W37737  11.149   0.358   0.992 -0.2049  0.0294 -0.0254
18204W        W37738   9.725  15.125  12.610 -0.2612 -0.0920 -0.2770
18205W        W37739  16.567  15.793   2.050 -0.0581 -0.3672 -0.0180
18206W        W37740  15.410   4.862  11.624 -0.3193  0.2352 -0.1655
18207W        W37741   6.606  15.905   2.994  0.2116  0.3220  0.1137
18208W        W37742   4.218   1.368   0.459  0.0093  0.1856 -0.0576
18209W        W37743   2.513   2.869   3.788 -0.0468  0.0177 -0.0266
18210W        W37744   9.740  16.644  14.179  0.0177  0.1012  0.1583
18211W        W37745  16.791  11.435   2.578  0.0499  0.2521  0.1390
18212W        W37746   3.603  14.505   2.341  0.3676 -0.0365  0.3206
18213W        W37747   1.887   9.508   1.866  0.2851  0.2064  0.2230
18214W        W37748  13.547   7.390   2.840  0.2194 -0.1172 -0.1861
18215W        W37749   8.335  18.739   3.460  0.3360  0.1306  0.0363
18216W        W37750  15.202  13.013   9.914  0.0494  0.2363  0.2014
18217W        W37751   7.483   7.460  14.041 -0.1038 -0.0067  0.0956
18218W        W37752  16.496  16.053  10.335  0.0054  0.0840  0.0968
18219W        W37753  16.574   7.701   1.025 -0.1702  0.2975 -0.0818
18220W        W37754   7.357   8.742  10.599  0.0883 -0.2755  0.0380
18221W        W37755   0.043   4.507   9.862  0.0426  0.0762 -0.0980
18222W        W37756  12.903  17.247  10.551  0.0423 -0.1005 -0.2654
18223W        W37757  14.765  18.658  13.729  0.1038 -0.2185 -0.1163
18224W        W37758   8.177  15.179  11.333 -0.3290 -0.0792  0.2108
18225W        W37759   2.059  16.194  11.514  0.2927  0.0715  0.0520
18226W        W37760   6.104   1.656   1.438  0.4871  0.0086 -0.1343
18227W        W37761   3.043  12.186   0.630  0.1675 -0.1139  0.0789
18228W        W37762  13.471   3.968   2.887  0.2446 -0.2724 -0.3149
18229W        W37763  13.382  14.378  11.548 -0.4399  0.2946 -0.5150
18230W        W37764   2.877   9.871   1.333 -0.0258 -0.1728  0.3251
18231W        W37765  14.210   8.987  10.348 -0.3553  0.0397 -0.2134
18232W        W37766   7.427   0.753   2.684 -0.2333  0.2358  0.1000
18233W        W37767  12.916  15.049  11.751  0.1825  0.0316  0.1111
18234W        W37768  18.407   1.296   2.457 -0.1266 -0.0375  0.0709
18235W        W37769  10.049   8.575  11.026 -0.0812  0.1927  0.0205
18236W        W37770   4.190  13.726  11.957  0.0368  0.0599  0.1990
18237W        W37771  12.178  10.277   1.964 -0.1781 -0.1455  0.2615
18238W        W37772   8.904  11.691  11.213 -0.1513  0.0582 -0.1858
18239W        W37773   2.380  18.349  12.902 -0.0947  0.0250  0.0343
18240W        W37774  19.017   4.222  12.857 -0.1929 -0.0183 -0.0110
18241W        W37775   5.654   5.773   3.657 -0.0169 -0.2230  0.0199
18242W        W37776   1.903   2.771  10.863  0.0302 -0.0049  0.1595
18243W        W37777   9.743  17.891  10.524  0.2465  0.1448  0.1699
18244W        W37778  16.864  11.789  12.542  0.0355  0.2203 -0.1390
18245W        W37779   1.090   7.025   1.212  0.3395 -0.0539  0.1029
18246W        W37780  14.029  14.464   3.386  0.1131  0.2072 -0.1918
18247W        W37781  18.582  10.993   0.714  0.0766  0.6035  0.0639
18248W        W37782   8.228  14.513   3.769 -0.0833 -0.0767  0.0785
18249W        W37783   6.639  13.654   0.955 -0.0319 -0.2171  0.3480
18250W        W37784  11.409  14.677   1.135 -0.1275  0.0458 -0.3364
18251W        W37785  19.127   5.543   3.349  0.0388  0.5034 -0.1284
18252W        W37786  10.534   1.761   3.010 -0.2447 -0.2510  0.1880
18253W        W37787   0.091   8.230   0.022 -0.5000  0.1562 -0.2481
18254W        W37788  12.935  10.882  10.759  0.0685 -0.3073 -0.0320
18255W        W37789   9.221  13.867   3.894  0.0576 -0.1344  0.3495
18256W        W37790  16.674  16.948  10.843  0.0432  0.1414  0.0998
18257W        W37791   8.716  12.649  12.127 -0.0131 -0.4014  0.1407
18258W        W37792   0.776  14.780  13.570  0.0901  0.0502 -0.1193
18259W        W37793   3.911   5.026  12.652 -0.0277  0.5645 -0.1033
18260W        W37794   4.635   2.956   0.858 -0.0184 -0.1128  0.1533
18261W        W37795  12.236  10.312   3.991 -0.1814  0.4267  0.0128
18262W        W37796   2.960   5.896  10.753  0.1835 -0.0652 -0.2366
18263W        W37797  18.804   6.343   0.604  0.1516 -0.2705  0.1049
18264W        W37798   8.923   3.853  13.358 -0.1762 -0.0972 -0.2160
18265W        W37799   5.059  11.803   1.991 -0.2444 -0.1378  0.0028
18266W        W37800   7.696  16.450   0.108  0.1750 -0.1942  0.1950
18267W        W37801  18.375  10.426   4.926  0.3574 -0.1837  0.1307
18268W        W37802   7.294  18.438   2.024 -0.0189 -0.3771 -0.2671
18269W        W37803   8.772  12.995  13.253  0.0868 -0.2105  0.3973
18270W        W37804  17.196   0.019  10.884 -0.0946  0.0031  0.2575
18271W        W37805  14.027  13.360  11.337 -0.0123  0.1072 -0.3379
18272W        W37806   4.232  13.668  10.603  0.1943  0.2012  0.3876
18273W        W37807  11.606   9.106  12.960 -0.0626 -0.0463 -0.2253
18274W        W37808  17.612   4.633  12.241  0.1096  0.1020  0.0549
18275W        W37809   5.222  18.824  14.026  0.0248 -0.0285 -0.0633
18276W        W37810  12.347  16.991   1.874 -0.2554  0.0183 -0.0640
18277W        W37811  13.331   9.678  13.969 -0.0895 -0.4035  0.1578
18278W        W37812  18.736   1.586   9.780  0.2410  0.2971  0.1429
18279W        W37813  16.762   3.881  10.915 -0.0560 -0.2505 -0.2916
18280W        W37814   8.118   8.342   1.208 -0.3272 -0.0920  0.0605
18281W        W37815  18.948   6.117   0.132  0.0921  0.1977 -0.1150
18282W        W37816  18.147   8.376   1.201  0.0338  0.1749  0.1967
18283W        W37817  10.713   8.165  11.724  0.0988 -0.0200 -0.0861
18284W        W37818  10.152  16.443  12.238 -0.0156 -0.4424 -0.0266
18285W        W37819  17.379  16.597  13.214 -0.1285 -0.0872  0.1137
18286W        W37820   7.444   5.561  13.015 -0.0659  0.0975 -0.0409
18287W        W37821  15.355  16.984   3.089 -0.2518  0.0580 -0.0462
18288W        W37822   6.731   1.151  11.433  0.1297  0.0904  0.3435
18289W        W37823   5.006   2.536   0.929 -0.2505  0.1448 -0.0699
18290W        W37824  18.046  13.604  11.858 -0.2607 -0.0821  0.2452
18291W        W37825  12.776   2.468  10.679 -0.0601 -0.0110  0.1232
18292W        W37826   5.549  11.571   0.824  0.0162  0.1858 -0.0058
18293W        W37827   7.894  13.179  14.008  0.1390 -0.2373  0.0049
18294W        W37828   8.581  14.987  10.876  0.2514  0.0846 -0.1785
18295W        W37829   0.861   2.617  13.999 -0.0081  0.1226 -0.1286
18296W        W37830  14.945  18.668   1.532  0.1351 -0.0008 -0.2181
18297W        W37831   5.428  18.637  13.624 -0.0270  0.2371 -0.2580
18298W        W37832  14.020   4.336   3.628 -0.1500  0.3988 -0.0494
18299W        W37833  11.396   7.821  14.310  0.1174  0.1148  0.0299
18300W        W37834  19.163  19.234  11.472  0.3228 -0.2408  0.0728
18301W        W37835  13.724   5.697   0.850  0.1964  0.1869  0.2409
18302W        W37836  13.096   8.776   3.860 -0.1959  0.1379  0.1661
18303W        W37837  17.894  12.229   0.763 -0.0778 -0.1953 -0.2085
18304W        W37838  16.328   6.775   0.980  0.0795 -0.1673  0.0096
18305W        W37839  13.450  16.953   2.552  0.2168  0.2397  0.3991
18306W        W37840  13.253  12.629  14.273 -0.1461  0.0369  0.2250
18307W        W37841   7.953  19.428  14.004 -0.2169  0.2213  0.0940
18308W        W37842  18.110   4.622  11.397  0.0542  0.3613 -0.1247
18309W        W37843  17.377  17.148   9.294 -0.2288 -0.1991  0.0580
18310W        W37844  10.161   0.712  13.037  0.0979  0.3691 -0.1227
18311W        W37845   7.181  14.397  12.773 -0.1045  0.1217  0.1244
18312W        W37846   6.486  12.646   0.915  0.1124  0.0421  0.1071
18313W        W37847  11.393  12.918   0.599  0.0165 -0.2661 -0.1195
18314W        W37848   5.003   1.811  10.945  0.0956 -0.0033  0.3074
18315W        W37849  10.644  10.102  12.652 -0.1492 -0.0307  0.0137
18316W        W37850   5.930  13.001   2.253  0.1517  0.1040  0.0173
18317W        W37851  10.421  16.747   1.255 -0.2162 -0.1773 -0.3184
18318W        W37852   5.682  16.280  11.427 -0.1971 -0.0841 -0.0373
18319W        W37853  14.035   9.569   3.005 -0.0771 -0.0002 -0.2971
18320W        W37854  12.765  10.462   3.986 -0.0910  0.0482 -0.1173
18321W        W37855   1.892   3.193   0.417  0.2194 -0.1399 -0.3781
18322W        W37856   4.287   0.611  12.041  0.0772 -0.0886 -0.0414
18323W        W37857  10.137   6.548  10.266  0.0716 -0.1956  0.1920
18324W        W37858   6.226   6.332  13.629 -0.1055  0.0752  0.2091
18325W        W37859   6.006  13.896   4.058 -0.2184 -0.2708 -0.2229
18326W        W37860   0.632  14.696   1.449 -0.3599  0.1099  0.2255
18327W        W37861  11.660   8.461   2.119  0.1939 -0.1994  0.1264
18328W        W37862  12.886  15.376   1.795  0.3167 -0.1994 -0.1134
18329W        W37863   9.039   6.886  12.780 -0.0719  0.0669 -0.0363
18330W        W37864  13.206   1.299  12.265  0.2500 -0.0865 -0.2938
18331W        W37865  14.331   4.848   3.902  0.2272 -0.1205 -0.0131
18332W        W37866   8.064  10.652  11.297  0.1235 -0.2757  0.1202
18333W        W37867   4.451   3.959   0.832 -0.3301 -0.0767  0.2266
18334W        W37868  11.930   8.207  12.487 -0.2315  0.1621 -0.0291
18335W        W37869   7.731  15.508  11.707 -0.0376 -0.1525 -0.1305
18336W        W37870  16.681  12.446   3.023  0.2547 -0.0801  0.2113
18337W        W37871  17.925  16.822   1.188 -0.0479 -0.2096 -0.1382
18338W        W37872  11.194  16.880   1.248  0.2790  0.1076  0.1590
18339W        W37873   8.953   1.452  11.466  0.0180  0.0700 -0.0645
18340W        W37874   7.952   9.090   4.948 -0.4132 -0.0798 -0.2046
18341W        W37875  12.027   8.705  11.372 -0.1754 -0.1414  0.3672
18342W        W37876   9.670   1.726  13.307 -0.0895  0.0796  0.0684
18343W        W37877  15.131  19.131   1.660  0.0344 -0.0454  0.1352
18344W        W37878   5.409  14.180   0.441  0.0440 -0.1344  0.0125
18345W        W37879  10.158   0.510   0.471  0.1341 -0.1827 -0.1718
18346W        W37880  12.504   0.078   2.054  0.1939 -0.0335  0.2824
18347W        W37881  14.635  19.326  11.561  0.3394  0.0667 -0.0108
18348W        W37882   7.676  17.316  11.173 -0.0204  0.0269 -0.1348
18349W        W37883  17.448  16.054  13.786  0.1020 -0.1502  0.0302
18350W        W37884  19.193   6.050   4.123  0.2372 -0.4413 -0.0196
18351W        W37885   8.184  16.502   1.040  0.1446  0.1394  0.0214
18352W        W37886   4.927   2.761  13.638  0.0905 -0.2323  0.1716
18353W        W37887  18.734   7.774   1.812 -0.0755  0.1202  0.0423
18354W        W37888   0.003  14.348   1.148  0.0656 -0.0678 -0.0027
18355W        W37889   6.499   5.051   2.316 -0.0341  0.2796 -0.6492
18356W        W37890  18.292   5.096   2.745 -0.2227  0.1436  0.2948
18357W        W37891  10.413   2.635  12.021 -0.2485  0.1316  0.1742
18358W        W37892  13.682   3.315  12.776 -0.2409  0.1017 -0.0855
18359W        W37893  15.632   4.906  11.195 -0.0977 -0.4824 -0.1039
18360W        W37894   5.196  12.296   0.040  0.0385 -0.0821 -0.1158
18361W        W37895  18.652  18.122  11.760 -0.0915  0.5986 -0.0101
18362W        W37896   8.798  12.176  12.209 -0.2581  0.0375  0.0901
18363W        W37897   3.605   5.216  14.197 -0.2208  0.0705 -0.1243
18364W        W37898  14.347  16.544   2.054 -0.3359 -0.0312 -0.1482
18365W        W37899  15.660  13.324  13.335 -0.0718  0.3732  0.0043
18366W        W37900  17.545  18.995  12.768 -0.4618  0.0682  0.1408
18367W        W37901  13.317   6.017  14.307 -0.0141  0.0365 -0.0331
18368W        W37902   1.116   5.091   0.872 -0.0731  0.0631  0.0125
18369W        W37903   0.367  12.475  14.121 -0.0188  0.1832 -0.2397
18370W        W37904  13.622  17.797  10.134 -0.1906 -0.5790 -0.0339
18371W        W37905   8.605   6.981  13.176 -0.1446  0.0900  0.0400
18372W        W37906   2.905  12.443  11.550 -0.2960 -0.1460  0.2107
18373W        W37907  17.286   4.842   1.321 -0.0438 -0.1369  0.0612
18374W        W37908   8.569  16.017   4.898  0.0859  0.0981  0.0889
18375W        W37909  14.983   6.918   3.889  0.1470  0.2384 -0.1598
18376W        W37910  19.030   1.286   3.878 -0.2085  0.1156 -0.1851
18377W        W37911   5.082   3.672  13.978 -0.2499  0.0356 -0.3427
18378W        W37912   6.058  14.205  12.612 -0.0029 -0.0099 -0.0574
18379W        W37913  12.573  15.650   3.187 -0.3443 -0.1923 -0.0193
18380W        W37914  13.395   6.973   3.046  0.1724 -0.1603 -0.0062
18381W        W37915   2.008  15.601  10.786  0.1832  0.2595  0.0641
18382W        W37916   6.257   9.325   3.434  0.0512 -0.0889 -0.0228
18383W        W37917   3.035   8.881   0.997 -0.0985 -0.2299  0.1347
18384W        W37918  14.989   8.003   3.002 -0.2515 -0.3721  0.0256
18385W        W37919   3.414   0.613  13.277  0.2800 -0.0760 -0.0904
18386W        W37920  16.585   6.959   9.337  0.1745  0.0474  0.0929
18387W        W37921  17.665   6.571  10.395 -0.3497  0.1886 -0.4107
18388W        W37922  15.675  17.126   2.266  0.3133 -0.2367 -0.0615
18389W        W37923   0.854   1.826   3.639  0.1355  0.1100 -0.0660
18390W        W37924   6.423   3.875  11.803 -0.1251 -0.0009 -0.0936
18391W        W37925  13.797  11.955   1.349 -0.1255  0.0950 -0.0504
18392W        W37926  17.965   9.956   2.645  0.2751 -0.3921 -0.0188
18393W        W37927   5.951   0.743  14.276 -0.1441  0.1735 -0.2928
18394W        W37928   4.406   4.174  11.649 -0.1770 -0.3095 -0.0820
18395W        W37929  16.096  16.890   0.439 -0.2357 -0.3151  0.0269
18396W        W37930   8.182  10.395   2.473  0.2540 -0.0610 -0.0878
18397W        W37931  12.932   0.519  10.912 -0.0637  0.1338  0.0878
18398W        W37932   2.461   3.321   4.237 -0.1780 -0.0956 -0.0813
18399W        W37933  15.478   4.143   9.327  0.0864  0.1386 -0.0629
18400W        W37934  15.994  18.987   1.143 -0.1809  0.3635 -0.0401
18401W        W37935   6.716  18.282   0.252 -0.0574  0.0228  0.2675
18402W        W37936  14.113   2.943  11.602 -0.3651 -0.0736 -0.2966
18403W        W37937  12.567  10.703   3.540 -0.1012  0.2725 -0.1843
18404W        W37938  11.573  14.791   0.687  0.1913  0.0994  0.4081
18405W        W37939   6.587   9.664   3.659 -0.6046  0.1297 -0.1300
18406W        W37940  17.356   6.317  12.459  0.0397  0.0450 -0.0587
18407W        W37941  17.337   8.757  12.107 -0.2162  0.1601  0.0993
18408W        W37942  18.724   5.094  12.306  0.1230 -0.0564  0.0666
18409W        W37943   9.324  12.905  13.463  0.0481  0.4324  0.0276
18410W        W37944   0.953   0.133   0.245 -0.0969  0.0566  0.1111
18411W        W37945   6.286   2.579   1.723 -0.1318 -0.0500 -0.0444
18412W        W37946  10.144  14.899  11.865 -0.0688  0.2217 -0.2260
18413W        W37947  11.501   9.730  13.371 -0.2195 -0.0194 -0.1199
18414W        W37948   5.752  14.972  11.420 -0.2224  0.0143  0.2494
18415W        W37949  16.358   8.755  10.105 -0.1057 -0.0790  0.0590
18416W        W37950  16.171   2.451  13.842 -0.0032 -0.3070  0.0370
18417W        W37951  11.937  10.664  13.093  0.1624 -0.0190  0.0495
18418W        W37952  19.090  14.659   1.991 -0.0021  0.2026  0.0319
18419W        W37953   5.819  11.401   2.229 -0.2305 -0.2146 -0.0003
18420W        W37954  13.036   4.330  12.201  0.1467  0.0707  0.2203
18421W        W37955   0.660   9.541   2.266  0.0705  0.1913  0.2383
18422W        W37956   4.383   8.581  12.585  0.1807  0.3097 -0.0371
18423W        W37957  13.507   6.047  12.412  0.0990  0.2600 -0.2585
18424W        W37958   4.096  17.741  10.837  0.2704 -0.0528 -0.3384
18425W        W37959   4.383  14.570   2.619  0.0886  0.0535 -0.0901
18426W        W37960   5.030   8.042   0.911 -0.2363  0.0605 -0.0991
18427W        W37961  10.837  16.827   3.968 -0.0388 -0.1301 -0.3186
18428W        W37962   6.310   5.404   3.631  0.1024  0.1089 -0.3074
18429W        W37963   6.783   4.843  10.198 -0.2006 -0.2415  0.0397
18430W        W37964   2.065   9.776   0.838  0.0854 -0.1640 -0.0659
18431W        W37965  15.998   0.918  12.123  0.3579 -0.1985  0.2666
18432W        W37966   0.068  15.185  13.014  0.1180 -0.0826 -0.2309
18433W        W37967   8.666   0.453   2.800  0.0515  0.1843 -0.0829
18434W        W37968  11.293   7.176  12.605 -0.0065  0.2896 -0.3148
18435W        W37969   1.555   4.001   1.880  0.4046  0.0597 -0.5264
18436W        W37970   8.383   0.409  12.720 -0.1465 -0.0435 -0.1060
18437W        W37971  17.340   9.954  13.947 -0.3039  0.3381  0.0216
18438W        W37972   6.962   7.727  10.797 -0.1633  0.2443 -0.1441
18439W        W37973   5.819   3.434  12.927  0.2572  0.2127 -0.1642
18440W        W37974  14.131   5.091  11.749 -0.0256 -0.1978 -0.2675
18441W        W37975   1.526  12.706  13.158 -0.1735  0.1430 -0.2755
18442W        W37976   2.009   4.593   3.810  0.3503  0.1193  0.1898
18443W        W37977  15.041  18.057  12.701 -0.1344  0.3229  0.2703
18444W        W37978   7.453   4.226   3.358 -0.3144  0.2744  0.2951
18445W        W37979  12.203   5.261   2.387  0.0863 -0.1739  0.2422
18446W        W37980  12.954  17.337  11.644 -0.0138 -0.1443  0.1104
18447W        W37981   4.257  17.107  12.400 -0.1181  0.0444  0.1099
18448W        W37982  16.947   0.983  11.900  0.3312 -0.4308 -0.3291
18449W        W37983   7.421  14.500   3.378  0.1121  0.1270  0.1415
18450W        W37984   3.090   1.182   2.018 -0.0632  0.3716  0.0159
18451W        W37985  18.426  12.702   3.811 -0.2909  0.1170  0.2693
18452W        W37986  19.303  18.899   0.219 -0.2152  0.1158  0.0333
18453W        W37987  12.648   2.791  11.568  0.2728 -0.0736 -0.0636
18454W        W37988  17.137   7.474   1.677  0.0343  0.1346 -0.1961
18455W        W37989   2.613  19.293   2.187 -0.1088  0.1936  0.0633
18456W        W37990  15.043  10.634   0.425 -0.0670  0.2245 -0.1781
18457W        W37991  16.599  13.180   0.777  0.1496 -0.0544 -0.0408
18458W        W37992  15.951   0.607  10.334  0.1761 -0.1019 -0.0603
18459W        W37993  17.465  11.252   4.549 -0.1604 -0.0245 -0.4871
18460W        W37994  10.411   2.996   5.068  0.0640 -0.2192 -0.0502
18461W        W37995  14.428  17.852   1.622  0.1529  0.1051 -0.3318
18462W        W37996   9.538   1.487   3.258  0.1878 -0.2593 -0.0758
18463W        W37997  16.568  13.289   3.561 -0.2021  0.1688  0.1261
18464W        W37998   3.398  10.619  11.204  0.0860 -0.2178  0.1969
18465W        W37999   1.238  14.181   4.408 -0.0995 -0.2157 -0.0241
18466W        W38000   8.053  17.319  10.158 -0.0990  0.1759 -0.0107
18467W        W38001   0.577   7.406  10.669 -0.1321  0.1897 -0.0541
18468W        W38002   9.865   1.396  11.833 -0.0392 -0.3229 -0.0517
18469W        W38003   1.362  18.900   1.388 -0.2281  0.1009 -0.1589
18470W        W38004   6.985  17.017   0.201 -0.2008  0.1550 -0.0029
18471W        W38005   5.748   0.991   4.013  0.0063 -0.0681  0.1816
18472W        W38006   1.926  12.040   1.031  0.0386  0.2330 -0.2084
18473W        W38007  16.842   1.025   1.257  0.0344 -0.0099 -0.1972
18474W        W38008  17.606   0.478   1.440 -0.0502  0.1354 -0.1158
18475W        W38009  15.479   2.916  14.039 -0.2433  0.1126  0.1117
18476W        W38010  10.518   1.043  10.658  0.2798  0.0435  0.1090
18477W        W38011   0.215   0.560   0.884 -0.1725  0.0717 -0.1506
18478W        W38012  12.396  18.654  13.629  0.0451  0.1627  0.0801
18479W        W38013  16.594   3.036  13.584  0.1226 -0.0874 -0.1536
18480W        W38014   0.438  14.043  10.754 -0.0089 -0.2922 -0.1198
18481W        W38015   2.163   0.512  13.652  0.0574 -0.1152  0.1021
18482W        W38016  12.831  18.746  10.590 -0.2265 -0.0135 -0.2336
18483W        W38017  12.941  16.005  11.497 -0.0812 -0.4002  0.1692
18484W        W38018   9.124   4.192   4.673  0.0887  0.1184 -0.2041
18485W        W38019  10.455  16.259   3.033  0.1572 -0.2224  0.1580
18486W        W38020  10.548   8.723  10.562 -0.0380 -0.0292  0.1843
18487W        W38021  16.339   5.691   2.901 -0.1716 -0.0277  0.0636
18488W        W38022   1.847   9.969  10.571  0.0979 -0.0386  0.0068
18489W        W38023  16.474   7.482  13.106  0.0134  0.1976 -0.1316
18490W        W38024   6.312   7.018  12.729 -0.3145  0.2147 -0.1006
18491W        W38025   9.404   6.186  13.317  0.0506 -0.0929  0.3011
18492W        W38026   9.281   8.417   2.497 -0.1336 -0.0725  0.0229
18493W        W38027  16.580   6.423   2.240  0.2489 -0.2764 -0.1969
18494W        W38028  14.785  13.411   1.884  0.0740  0.4962  0.0232
18495W        W38029  15.255   6.601   2.883  0.1059 -0.1696 -0.0827
18496W        W38030  16.783  18.176   0.040 -0.2076 -0.0531 -0.1403
18497W        W38031  17.291   6.435   0.793 -0.0168  0.1711 -0.3186
18498W        W38032  11.011   3.942   4.517 -0.0052  0.0777  0.2823
18499W        W38033   1.017   1.003   2.483 -0.0602  0.1044 -0.0140
18500W        W38034   4.872   6.121  12.365  0.0235  0.0158  0.0196
18501W        W38035  11.889   6.033   3.892 -0.3414  0.0240 -0.0637
18502W        W38036  16.593   2.768  14.057 -0.1481  0.0278 -0.1232
18503W        W38037  14.289  17.717  13.978  0.5273  0.0224  0.2533
18504W        W38038   3.344   5.009  12.099 -0.0692  0.2697 -0.0371
18505W        W38039  11.672   6.500  13.356 -0.2392  0.0300 -0.0341
18506W        W38040   7.762  11.166  14.032  0.1279  0.2497 -0.2495
18507W        W38041   3.633  15.535   2.612  0.0727  0.2520  0.1953
18508W        W38042   6.988  10.908  12.496 -0.0648  0.0667  0.1538
18509W        W38043   8.801   3.485  14.305 -0.1133 -0.0310 -0.0117
18510W        W38044   4.541  16.433  14.015  0.2883  0.2796 -0.0318
18511W        W38045   7.565  19.222  13.623 -0.0621 -0.0227  0.3597
18512W        W38046   8.014   0.451  13.471  0.0224 -0.0640  0.4977
18513W        W38047  10.583   6.489   3.044  0.2115  0.2946  0.2249
18514W        W38048  10.038   3.943  14.164  0.0143  0.0346  0.0172
18515W        W38049   9.499  13.495  13.792  0.1452 -0.1372 -0.0142
18516W        W38050  15.540   4.306  14.026 -0.2160  0.0666 -0.0395
18517W        W38051   8.124  12.635  13.330  0.0924 -0.4171  0.3629
18518W        W38052  12.495  17.322  11.785 -0.0059 -0.0750 -0.0927
18519W        W38053  12.235  15.280  13.029  0.2325  0.3431 -0.2065
18520W        W38054   9.606   2.308  14.252  0.0180  0.1676 -0.1084
18521W        W38055   9.299  15.491  11.814  0.1526 -0.1029 -0.2464
18522W        W38056  15.317   8.939  12.165 -0.1735  0.0583 -0.1030
18523W        W38057   0.398  14.903  13.310  0.1045  0.1236  0.0732
18524W        W38058   2.203  13.803  13.712  0.0624  0.2162  0.3913
18525W        W38059  13.869   6.119   0.579  0.0251  0.0869  0.0785
18526W        W38060  16.153   3.056  12.413  0.1275 -0.4204 -0.1076
18527W        W38061   6.883  11.546   0.312 -0.1018 -0.2264  0.1900
18528W        W38062  10.578   4.716   4.398 -0.1541 -0.0209 -0.0537
18529W        W38063  17.650   5.894  12.227 -0.1469 -0.2308  0.3270
18530W        W38064  18.264  14.551   4.337  0.2477  0.1176  0.3046
18531W        W38065   7.820   6.633   3.443  0.0338  0.0065  0.3117
18532W        W38066   3.331  17.346  13.729 -0.1485  0.2578 -0.0309
18533W        W38067   0.129  16.022   2.124 -0.0962 -0.2200  0.1675
18534W        W38068  11.354  15.454  11.684 -0.3277 -0.0271 -0.0639
18535W        W38069  19.428   1.231  14.067 -0.0908  0.0279 -0.0056
18536W        W38070   6.981   5.072   2.013  0.3197  0.1944 -0.3320
18537W        W38071  19.327   5.791  13.903 -0.1845  0.4990  0.1518
18538W        W38072   1.879  11.921  12.132  0.1273 -0.0077 -0.0485
18539W        W38073   3.703   1.529  10.658  0.1981 -0.3902 -0.0855
18540W        W38074  19.300   8.726   0.485  0.3964  0.0396 -0.2097
18541W        W38075   9.130   1.738  12.153  0.0664 -0.3629 -0.4326
18542W        W38076  16.489   2.717  12.120  0.0228 -0.1843 -0.1776
18543W        W38077  18.951   9.804  11.641  0.2127 -0.1184  0.3787
18544W        W38078  17.682  15.783  11.433 -0.1665 -0.0324 -0.0852
18545W        W38079  14.866  13.299   2.921  0.1627 -0.2608 -0.1897
18546W        W38080  10.430   3.796  12.711  0.0345 -0.1548  0.1537
18547W        W38081   4.354   3.785  12.890 -0.0050  0.2665  0.1182
18548W        W38082   1.393  16.974  13.362  0.0924  0.0048  0.0714
18549W        W38083  15.732  13.007  12.000 -0.3180  0.0332  0.2508
18550W        W38084   6.084  10.694   0.947  0.0390  0.1361  0.2010
18551W        W38085   3.602  17.935  10.916  0.1165  0.0175  0.0070
18552W        W38086  10.149   2.069  14.087  0.2197  0.2649 -0.3309
18553W        W38087   7.811   4.775  12.342  0.2143  0.0510 -0.0843
18554W        W38088  17.226  11.448  11.184 -0.0057 -0.1757  0.0212
18555W        W38089  17.401  13.435  13.100 -0.0915 -0.0327 -0.2371
18556W        W38090  16.998   5.700   2.546 -0.1202  0.1820  0.1679
18557W        W38091   3.203  12.965  14.307 -0.1004 -0.3009  0.0681
18558W        W38092   3.212   4.925   4.183  0.3047  0.1173 -0.1276
18559W        W38093  13.796   6.227  13.376  0.2229  0.0569 -0.2864
18560W        W38094   1.242  16.132   2.382  0.2276 -0.1444 -0.2710
18561W        W38095   5.095   9.133  11.594  0.1474 -0.2063 -0.0591
18562W        W38096   4.143  15.288   1.348 -0.0342 -0.0990  0.0535
18563W        W38097   5.078   5.283   1.106 -0.1799 -0.2389  0.0935
18564W        W38098  13.487  18.610  10.951  0.1324  0.2102  0.0090
18565W        W38099   5.389   1.979   3.704 -0.2079 -0.0101 -0.0179
18566W        W38100  15.983   2.307   3.533  0.0291 -0.0839  0.1131
18567W        W38101  10.248   1.797   4.167 -0.3160  0.1178 -0.2645
18568W        W38102   4.403   5.944   0.396  0.1519  0.0887 -0.2162
18569W        W38103  15.790  10.535   2.107 -0.3287 -0.0192  0.1238
18570W        W38104   9.832  15.160  13.186  0.2143  0.0817  0.0451
18571W        W38105  18.588   8.401  12.008 -0.0310 -0.1579  0.1139
18572W        W38106   7.198   1.952   0.514 -0.0507  0.3489  0.0624
18573W        W38107  11.749  17.334   1.298 -0.3527 -0.1239 -0.0970
18574W        W38108   2.321   0.426  11.150  0.1854 -0.0902  0.2601
18575W        W38109   0.133  12.064  13.904 -0.0646 -0.4115 -0.0924
18576W        W38110   1.388   1.795  13.977  0.1933  0.1455 -0.0316
18577W        W38111  10.231  10.940  11.839  0.2736 -0.1989 -0.2690
18578W        W38112  16.946  18.057   9.312 -0.1660  0.0063 -0.0953
18579W        W38113   4.437  17.549   2.503  0.0232 -0.1247  0.0128
18580W        W38114   9.219  12.851  12.198 -0.0988  0.0554 -0.4293
18581W        W38115  15.723   2.697  13.672 -0.0331 -0.2162  0.1699
18582W        W38116  14.205  10.894   1.285  0.2666  0.1246  0.1715
18583W        W38117   2.127  12.994  14.152  0.0706  0.1419  0.0524
18584W        W38118  15.819  15.272  11.552 -0.1216 -0.1368 -0.1266
18585W        W38119   1.292  13.531   1.851 -0.1835  0.4915  0.0736
18586W        W38120  13.421   7.444   3.325 -0.1873  0.1465  0.0370
18587W        W38121   6.815  11.115   3.472 -0.3760 -0.1687 -0.2519
18588W        W38122  14.397  14.427  10.628 -0.2369  0.3550 -0.1291
18589W        W38123   5.577   5.432   2.034  0.3856  0.1498  0.3371
18590W        W38124  15.818   6.922   0.216 -0.1523 -0.0716  0.3768
18591W        W38125  16.078  11.950   3.950 -0.2453 -0.0582 -0.2110
18592W        W38126  19.061  14.508  12.778 -0.1621  0.1105 -0.2517
18593W        W38127   5.235   2.504  13.227 -0.0182 -0.0857  0.0938
18594W        W38128  11.885   9.499   0.157  0.0378 -0.0050 -0.0195
18595W        W38129  18.953   6.659   0.258  0.0542  0.0268 -0.0267
18596W        W38130   4.746   5.439   4.185 -0.2569 -0.2433  0.0764
18597W        W38131   1.319   1.638  13.219  0.0009 -0.1272  0.1093
18598W        W38132  17.558   0.645   0.629 -0.0112 -0.1056  0.1702
18599W        W38133   6.842  11.866  12.931 -0.0876 -0.0988 -0.1516
18600W        W38134  15.489   8.652   4.972  0.1147  0.0884  0.1747
18601W        W38135  12.531  16.362  14.311 -0.1049  0.2115  0.0725
18602W        W38136   2.645   8.468  12.858 -0.3370 -0.1139  0.1780
18603W        W38137   7.090   6.424  13.479 -0.1794 -0.0137 -0.2083
18604W        W38138  18.707   0.643   1.113  0.2890 -0.0213 -0.3298
18605W        W38139   9.860  10.075   0.061  0.3080 -0.2696 -0.2432
18606W        W38140  15.581   6.856   2.594 -0.1974 -0.0579 -0.1858
18607W        W38141  14.138   5.365  12.790 -0.2743 -0.1959  0.3188
18608W        W38142  17.958  15.402   2.667 -0.0665 -0.0414 -0.0460
18609W        W38143  15.941  10.970  11.421 -0.1130  0.2138 -0.1295
18610W        W38144   0.142   5.219  12.874 -0.1384  0.1940  0.3809
18611W        W38145   6.650  17.676   0.394 -0.1604  0.0150 -0.0972
18612W        W38146  12.196  11.592   0.430 -0.1489  0.1355 -0.0472
18613W        W38147   0.369  12.735   3.107 -0.0471 -0.1863  0.1445
18614W        W38148   2.092   0.521  11.852 -0.0265  0.2137  0.1280
18615W        W38149   8.454  16.875  10.972  0.1347  0.1986  0.1868
18616W        W38150   2.597  17.805  14.194  0.3575 -0.1650 -0.0349
18617W        W38151  17.806  15.782  10.963  0.0076 -0.0772  0.0039
18618W        W38152  13.322   8.686   2.845 -0.0375  0.0099  0.0875
18619W        W38153   7.737  15.750  10.253 -0.2402  0.0132 -0.0057
18620W        W38154  10.308   9.518   3.969 -0.1857 -0.0078  0.1579
18621W        W38155  11.832   8.515   1.118  0.2975 -0.1561  0.2692
18622W        W38156  17.963  18.329  11.460  0.0505 -0.0489 -0.0365
18623W        W38157   9.194   5.715   1.297  0.3924  0.1374  0.2125
18624W        W38158   3.169  15.884  13.595 -0.0012  0.1482  0.0814
18625W        W38159   6.075   9.908   1.224  0.1345  0.2455  0.1028
18626W        W38160  17.740  14.035  10.569  0.0999  0.2849  0.2698
18627W        W38161  12.181  18.607   3.095  0.1343  0.2761  0.1831
18628W        W38162   7.185   7.226   0.070 -0.1045  0.0668  0.0658
18629W        W38163  13.409  16.006  11.696  0.0512  0.3163  0.0441
18630W        W38164   8.816   8.409   0.064  0.2089  0.0058 -0.4716
18631W        W38165   6.506   7.298  14.191 -0.1481 -0.0421  0.1654
18632W        W38166  16.761  19.472   1.276  0.1140  0.1145 -0.1397
18633W        W38167  15.229  14.337   1.767  0.0206 -0.0056  0.0589
18634W        W38168   3.131  13.378  13.529  0.0056  0.0428 -0.0107
18635W        W38169   8.993  11.000   4.372  0.2069  0.2109  0.1449
18636W        W38170  18.176   9.510   4.083  0.3329  0.2397  0.1762
18637W        W38171   5.878  13.561  11.057 -0.4442  0.4206 -0.0085
18638W        W38172   5.080   1.247  14.136  0.0170 -0.0881  0.3284
18639W        W38173   0.902  17.912   0.753 -0.1980 -0.2762  0.1818
18640W        W38174   2.243   5.606   3.802 -0.5048  0.1930  0.0986
18641W        W38175   8.534   4.606   3.978 -0.1167 -0.1030 -0.1426
18642W        W38176  16.311   7.510   1.401  0.5185  0.1437 -0.2869
18643W        W38177   3.047   6.713  11.164 -0.4087  0.1092  0.0687
18644W        W38178  12.879   8.390  11.491  0.2632  0.2313 -0.0637
18645W        W38179  15.794   1.322   2.248  0.0427 -0.0839 -0.2845
18646W        W38180   3.155  11.901   1.433  0.1227  0.1428 -0.1490
18647W        W38181  10.855   0.726  11.395 -0.1461 -0.0758  0.2637
18648W        W38182   4.271  18.200  10.283 -0.0625 -0.1659 -0.2735
18649W        W38183  13.224  13.629  10.796  0.0938 -0.2224 -0.0651
18650W        W38184  18.191   2.198   1.419  0.1605 -0.1796 -0.0644
18651W        W38185   5.368   8.043  13.168 -0.0577  0.0473  0.0860
18652W        W38186   2.593  18.966   4.067  0.1056 -0.1169 -0.4156
18653W        W38187  11.507  12.688  10.576 -0.0270  0.1480 -0.1244
18654W        W38188   1.785  18.496  12.381  0.1892  0.2205 -0.0772
18655W        W38189  11.761  10.283   3.676 -0.1764 -0.2505 -0.0927
18656W        W38190  16.874  17.386  11.111 -0.0869  0.1561  0.0271
18657W        W38191  11.596  14.144  11.652  0.1622  0.1113 -0.1103
18658W        W38192   0.572  15.816   2.282  0.1816  0.1665 -0.2699
18659W        W38193   5.757   4.008   0.997 -0.0426  0.1257  0.0167
18660W        W38194  11.813  13.621   2.994 -0.1170  0.0390  0.4649
18661W        W38195   0.717   4.724   0.751 -0.4571 -0.2125  0.2191
18662W        W38196  17.731   6.314   2.735  0.1475 -0.2214  0.1818
18663W        W38197   2.666  12.472  13.402 -0.1261 -0.4211  0.3665
18664W        W38198   8.468  18.924   0.829 -0.0368  0.1326  0.0715
18665W        W38199   7.469   2.917  13.311 -0.2057 -0.1098 -0.2374
18666W        W38200  17.725  12.748   2.095  0.1189  0.1339 -0.0018
18667W        W38201   3.982  14.701  13.079  0.0278 -0.2305 -0.0853
18668W        W38202  12.709   6.023   1.626 -0.3087 -0.1419  0.2463
18669W        W38203   1.107   6.341   3.724 -0.0054  0.1935  0.1320
18670W        W38204   6.635   1.289  11.942 -0.1090  0.2087  0.0442
18671W        W38205   5.130   7.604   3.286 -0.1519 -0.0574 -0.0816
18672W        W38206   7.777   1.991  10.891  0.3078 -0.0657 -0.1241
18673W        W38207  17.172   0.675   1.147 -0.2255 -0.0471  0.2688
18674W        W38208  16.961  12.079   3.152  0.2927  0.1287 -0.1185
18675W        W38209   7.412  12.080   2.045 -0.1101  0.1430 -0.0101
18676W        W38210   2.865   7.168   2.894 -0.3196  0.3220  0.0110
18677W        W38211   4.863   2.065   1.957  0.0385 -0.0069 -0.0927
18678W        W38212  13.068  11.781  12.210 -0.0605  0.0854  0.1583
18679W        W38213   4.554  10.518   2.916  0.0327  0.1223  0.2759
18680W        W38214   8.250  15.148   0.550 -0.4176 -0.0058 -0.3891
18681W        W38215   6.332  12.725   3.505 -0.0198 -0.0883 -0.1747
18682W        W38216   3.584   3.536   2.431 -0.1279 -0.0558  0.3414
18683W        W38217   0.302  17.233  13.388 -0.0605 -0.2513 -0.3391
18684W        W38218   9.856  15.269   2.189  0.1942  0.0290  0.1016
18685W        W38219  10.217   8.109  13.927 -0.0656 -0.3539  0.0225
18686W        W38220  16.434   9.502   3.082 -0.0355 -0.0257  0.1893
18687W        W38221  18.778  17.876  12.823  0.1764  0.1249 -0.0863
18688W        W38222   2.167  10.939  12.570  0.0518  0.1255  0.2247
18689W        W38223   1.396   2.916  13.058 -0.1903 -0.2492 -0.2222
18690W        W38224  19.059   7.160  13.047 -0.1112  0.2262  0.2056
18691W        W38225   4.567   6.665   2.799  0.0707  0.2769 -0.0893
18692W        W38226   5.045  17.100  14.237  0.0737  0.2434 -0.1333
18693W        W38227  13.861   4.015   2.344  0.1013 -0.0585  0.0866
18694W        W38228   4.904   5.180   4.877 -0.0079  0.0550  0.0235
18695W        W38229   9.252   6.841   0.154 -0.0877 -0.0488 -0.2213
18696W        W38230   6.578   9.882  12.836 -0.0779 -0.2569 -0.2042
18697W        W38231  16.389  14.392   3.199  0.2199  0.2177 -0.0436
18698W        W38232   0.347   8.513   2.688 -0.2514  0.1141  0.2242
18699W        W38233  14.370  14.267   2.873 -0.1217 -0.1785 -0.1261
18700W        W38234   0.878   0.374  13.023 -0.1437  0.2127  0.2513
18701W        W38235  10.578  18.691   1.221 -0.1152 -0.1367 -0.1971
18702W        W38236  16.667   7.218   1.808  0.2135 -0.1709 -0.3223
18703W        W38237   2.466   9.629   3.844 -0.1705  0.3037 -0.0862
18704W        W38238   0.578   9.280   0.880  0.1142 -0.1561  0.2177
18705W        W38239   1.771  19.504   3.763  0.3297 -0.0463 -0.1969
18706W        W38240   6.989  18.445  11.561  0.0117 -0.0215 -0.0570
18707W        W38241   2.670   9.913  11.292  0.0620  0.2873 -0.4376
18708W        W38242   0.242   6.476  13.176  0.1202 -0.2779 -0.1595
18709W        W38243   4.808   9.794   3.930 -0.1578 -0.1612  0.0709
18710W        W38244   3.996  17.750  13.390 -0.0895  0.3892  0.1591
18711W        W38245   6.802  16.716   3.125  0.1108 -0.0083 -0.1811
18712W        W38246   3.227  14.387   3.414  0.1651 -0.0558  0.0507
18713W        W38247  11.549   1.992  13.003 -0.1512  0.0612  0.2382
18714W        W38248  14.336   6.232   0.766  0.1528 -0.1720  0.0349
18715W        W38249   9.654  11.323  10.659  0.0544  0.0966 -0.2564
18716W        W38250  17.002   4.237   2.107  0.3196 -0.2695  0.1878
18717W        W38251   5.646  17.600  13.563  0.4768  0.0229  0.3212
18718W        W38252  10.405  11.361   0.179 -0.0011  0.1210  0.4189
18719W        W38253  13.098  15.578   2.881  0.2781 -0.2628 -0.0859
18720W        W38254   3.805  10.798   2.539  0.0211  0.0812 -0.2702
18721W        W38255   9.881  14.401   3.846 -0.4637 -0.4183 -0.1788
18722W        W38256   7.659   8.833  11.039  0.1196 -0.2203 -0.3676
18723W        W38257  10.949   8.057   3.549 -0.2342 -0.3773  0.0333
18724W        W38258  17.831  16.487  14.340  0.1183 -0.0082 -0.0471
18725W        W38259  19.112   1.361   1.376  0.2950  0.3684  0.0239
18726W        W38260   9.091  18.746  13.980 -0.2681 -0.1862  0.0360
18727W        W38261  10.771  17.145  12.323 -0.0034  0.1056 -0.1383
18728W        W38262  16.088   3.897   2.391 -0.0409  0.0098 -0.0842
18729W        W38263  19.035   0.794   1.493 -0.2088 -0.0532 -0.1876
18730W        W38264   7.371   6.073  10.626  0.0427  0.0501 -0.0695
18731W        W38265  10.013   9.157   3.768  0.1602  0.0541 -0.0342
18732W        W38266   7.154  13.849  11.786 -0.1902  0.3838 -0.1695
18733W        W38267  18.437   5.745   4.008  0.0345 -0.0595  0.1371
18734W        W38268  11.280  10.199  10.616  0.2739 -0.1244 -0.2984
18735W        W38269   6.147  18.144  10.441  0.1252 -0.2801  0.0736
18736W        W38270  13.614  10.973   3.439 -0.1574 -0.0707 -0.1733
18737W        W38271   4.183  11.284  11.441  0.1884  0.2099  0.1176
18738W        W38272  14.957   6.830   1.878  0.0087 -0.1531 -0.2094
18739W        W38273   2.730   8.663   1.758  0.2224 -0.1151 -0.2289
18740W        W38274  18.410   0.593   9.927 -0.2922 -0.4000  0.0945
18741W        W38275   5.877   9.585  10.970  0.1230  0.0936  0.1021
18742W        W38276   5.420   1.995  11.834 -0.0691  0.3901  0.0300
18743W        W38277  12.434  14.047  14.216 -0.1836 -0.0237  0.1404
18744W        W38278  17.895   2.654  13.960 -0.0480  0.1754 -0.1161
18745W        W38279  14.142  14.423  14.249  0.0288  0.0315 -0.2743
18746W        W38280   9.352   7.117  13.136 -0.2322 -0.0527  0.2212
18747W        W38281  10.459  11.006  12.889  0.0827  0.1197 -0.1119
18748W        W38282  13.262  17.652   1.324  0.4770  0.2598  0.1880
18749W        W38283  14.946   6.347   1.961  0.0621  0.1537  0.2286
18750W        W38284  16.729   3.202   9.843 -0.0964  0.2441  0.0840
18751W        W38285   1.463  13.466  13.022  0.1409 -0.0304  0.0462
18752W        W38286   0.132  19.528  13.978 -0.1508 -0.0786  0.1317
18753W        W38287   8.743   1.353  14.322 -0.1030 -0.0916 -0.1646
18754W        W38288   6.789  16.748  12.147 -0.1350 -0.0285  0.1298
18755W        W38289   2.779   1.340  13.428 -0.0662  0.2930 -0.2499
18756W        W38290  12.757  10.946   4.575  0.0528 -0.0791  0.0793
18757W        W38291   2.309   6.725   3.959  0.1544 -0.2694 -0.2700
18758W        W38292   0.976  14.728  12.601 -0.3021 -0.0793 -0.0331
18759W        W38293  11.407  10.126   2.356  0.0828 -0.3155 -0.1061
18760W        W38294   6.675  17.584   9.932  0.0613  0.2630  0.0484
18761W        W38295  13.767  15.065   4.083  0.1650  0.0332 -0.2457
18762W        W38296   0.902   8.111  12.496 -0.0827 -0.0279  0.2918
18763W        W38297   7.499   2.267   3.652 -0.0646  0.0519 -0.0184
18764W        W38298   8.962   3.961   2.539 -0.0526  0.2264  0.1086
18765W        W38299   0.696  16.477   1.650  0.0078  0.2943  0.0392
18766W        W38300   3.844   3.345   0.953 -0.1341  0.0655  0.1322
18767W        W38301   7.106  19.516   0.815 -0.0587 -0.2652 -0.1098
18768W        W38302  14.229   2.939  12.057 -0.3589  0.2136  0.0200
18769W        W38303  12.390   9.880   4.323  0.0237 -0.1213 -0.2470
18770W        W38304   0.334  15.136   1.466 -0.2391  0.0603  0.1395
18771W        W38305   2.444  18.759  11.530 -0.0291  0.0273 -0.3518
18772W        W38306   0.138   6.513   2.697  0.0484  0.0881 -0.4111
18773W        W38307   7.833   0.590   2.913  0.1889 -0.0070  0.2060
18774W        W38308  10.002   5.858   0.506  0.2800 -0.1981  0.2232
18775W        W38309  10.951   7.431  12.893  0.2825  0.0883 -0.0247
18776W        W38310  12.364  14.554   1.274  0.2362  0.0031 -0.0218
18777W        W38311  15.476  13.617  10.610 -0.2033  0.1650 -0.0916
18778W        W38312   9.877  12.341  10.511 -0.1373  0.1972 -0.1027
18779W        W38313   7.246  15.436  10.954  0.1330 -0.0150 -0.0376
18780W        W38314  18.980  17.050   9.077  0.0977 -0.1190 -0.3165
18781W        W38315   9.868   8.176   1.021  0.1548 -0.2926  0.3530
18782W        W38316  16.222  10.037   3.771 -0.1924 -0.3003 -0.0966
18783W        W38317  12.148   2.777  13.354  0.1169 -0.2570 -0.3026
18784W        W38318  12.232  18.410   0.820 -0.2340  0.0909  0.2265
18785W        W38319  12.078   9.894  10.269  0.2631  0.0144  0.2667
18786W        W38320  10.037   2.747  12.774  0.0681 -0.1267  0.2573
18787W        W38321   6.118   5.392   2.125  0.1957  0.2014 -0.0522
18788W        W38322   3.805  11.238   2.837  0.2879  0.2942 -0.0161
18789W        W38323   8.498   4.977   3.604 -0.2890 -0.0797 -0.0062
18790W        W38324  17.666   1.337   4.627 -0.1278  0.0940  0.2405
18791W        W38325  13.905   8.963  13.045 -0.2164 -0.0749 -0.1900
18792W        W38326   2.325   4.026  10.906  0.1094 -0.1003  0.0971
18793W        W38327  13.954  10.555  11.585 -0.1946  0.1833  0.0748
18794W        W38328  10.864  15.701  11.985  0.2112  0.1806  0.2547
18795W        W38329  16.248   7.296   0.920 -0.0753 -0.1161  0.1032
18796W        W38330   2.206   3.624   0.425 -0.0930 -0.1468  0.1587
18797W        W38331   4.727  19.417   3.679 -0.0868  0.1882  0.2852
18798W        W38332  13.292   5.993   1.838 -0.0859 -0.3248 -0.1507
18799W        W38333   7.286   8.755  13.004  0.0719 -0.2337  0.3114
18800W        W38334  16.442   6.632   1.770 -0.1024  0.1411 -0.0130
18801W        W38335   1.179   9.010  12.053 -0.0939  0.1560 -0.0792
18802W        W38336  10.088  18.791   1.323 -0.0120  0.1872  0.2389
18803W        W38337  14.085   3.310   0.898 -0.2765  0.1516 -0.0498
18804W        W38338   0.706  16.584  12.700  0.1855 -0.3397 -0.0453
18805W        W38339  14.833  10.561  10.521 -0.1470  0.2235 -0.3206
18806W        W38340  18.833   2.850  13.021  0.0689 -0.2118 -0.0133
18807W        W38341   8.873  16.647  11.518  0.2783  0.0665 -0.2220
18808W        W38342   8.596  12.473  13.526  0.1098  0.0418  0.2185
18809W        W38343  16.986   5.862   3.498  0.4615  0.2228  0.0221
18810W        W38344   7.091  12.267   3.751 -0.0976 -0.0200 -0.0585
18811W        W38345   9.462   3.291  11.528 -0.1160  0.0012 -0.0128
18812W        W38346   8.707   7.440   3.135  0.0253  0.0170  0.0292
18813W        W38347   4.021  18.819  13.415 -0.0522 -0.0094  0.1591
18814W        W38348  16.265  12.983   0.345  0.1233  0.1047  0.0544
18815W        W38349  18.545   8.768   3.076 -0.2725  0.0907 -0.1711
18816W        W38350   3.853  13.277  12.300  0.0268 -0.3300 -0.0140
18817W        W38351  17.611  12.271   2.066  0.0901 -0.3083 -0.3586
18818W        W38352  17.917  19.075  14.068 -0.3560  0.2241  0.2780
18819W        W38353  17.027  17.382   4.485 -0.2365  0.1244 -0.0104
18820W        W38354   7.606   5.727   4.358 -0.2052 -0.4080  0.2313
18821W        W38355  13.492  15.251   9.826 -0.0777  0.1241  0.2376
18822W        W38356  15.252   2.557  13.755 -0.4289 -0.2630 -0.1117
18823W        W38357  16.938   4.914   2.818 -0.1945  0.0773  0.1732
18824W        W38358  11.475  15.160   1.608  0.1644 -0.1038 -0.3757
18825W        W38359   5.510  14.899   2.034  0.2706  0.0666  0.1031
18826W        W38360   6.528   8.004  10.692  0.3268  0.2574  0.0319
18827W        W38361  15.733   3.825  13.820  0.1391  0.2755  0.1622
18828W        W38362   7.667   2.950   9.560 -0.2786  0.0207 -0.1101
18829W        W38363   3.418  18.924  12.172  0.3550  0.2786  0.3852
18830W        W38364   7.021   5.682  12.789 -0.1223 -0.0561  0.2233
18831W        W38365  11.176   9.195  12.190  0.1203 -0.1956 -0.1185
18832W        W38366   1.934  14.683  14.125  0.3569  0.3128  0.0633
18833W        W38367   9.328  15.741   3.323 -0.1369 -0.2746  0.3565
18834W        W38368   2.866  18.969  13.441  0.2031  0.0203  0.4966
18835W        W38369  14.064   3.307   3.601  0.0961  0.0496 -0.1100
18836W        W38370  16.748   8.111   3.106 -0.1629 -0.1219 -0.4054
18837W        W38371  14.846  14.145  10.744 -0.1197  0.0325  0.1309
18838W        W38372   6.569  19.329  12.520 -0.0452 -0.0711 -0.3148
18839W        W38373  16.005   5.656   3.549 -0.0051 -0.0481  0.4539
18840W        W38374   7.214  16.416  12.126 -0.0729 -0.0069 -0.1083
18841W        W38375  12.122   1.148  13.872  0.0863 -0.1254  0.4700
18842W        W38376   8.393   2.704   0.561 -0.1325  0.0783 -0.0642
18843W        W38377   5.237   8.794   3.240 -0.1606 -0.2600  0.0976
18844W        W38378  15.037  13.036  10.384 -0.1228  0.3085  0.1446
18845W        W38379   7.307  10.015   2.055  0.1151 -0.1226 -0.1570
18846W        W38380   6.137  19.406  10.385  0.2453 -0.1945  0.4012
18847W        W38381  10.650  14.132  12.401 -0.0141 -0.1377  0.0717
18848W        W38382   5.143   5.429  14.269  0.0099 -0.1387  0.0269
18849W        W38383   5.528  19.458  12.624 -0.1824 -0.0301  0.1226
18850W        W38384  18.233  12.249  11.494  0.1135 -0.1413  0.2934
18851W        W38385  10.654  17.576   9.532  0.2923  0.2285 -0.1504
18852W        W38386  15.110   0.734  11.859 -0.0285  0.2849 -0.1397
18853W        W38387  12.657  11.929  11.517  0.0023  0.2669 -0.0529
18854W        W38388   7.447   2.071  13.815  0.0148  0.1397  0.3589
18855W        W38389  13.549  19.016  10.073  0.0487 -0.2095 -0.0394
18856W        W38390  16.793  17.812  11.755 -0.3425  0.0763 -0.0949
18857W        W38391   2.932  12.588   1.246 -0.1677  0.0118 -0.1556
18858W        W38392  13.951  18.691   2.420  0.1811 -0.0119  0.0303
18859W        W38393  17.673  10.686   1.960  0.2722 -0.1554  0.0950
18860W        W38394   0.646  19.358   1.252 -0.0236  0.0303  0.1702
18861W        W38395  11.936   1.312   0.387 -0.2078  0.0306 -0.0547
18862W        W38396  19.519   0.431   4.016 -0.0823  0.3016  0.3271
18863W        W38397  12.547  17.692  10.207 -0.0966 -0.0406  0.1976
18864W        W38398  16.684   6.487  12.672 -0.2469  0.1155 -0.1100
18865W        W38399  11.349   7.446  13.170 -0.3311  0.3312 -0.0754
18866W        W38400   0.955  19.287   3.532 -0.3199 -0.0618  0.1227
18867W        W38401  13.726   6.779   1.609 -0.3683 -0.0615 -0.2392
18868W        W38402  18.363   3.659   0.485  0.0749 -0.2618 -0.0376
18869W        W38403  17.421   8.446   2.229  0.0281  0.0886 -0.1376
18870W        W38404   1.661   9.519  12.950  0.1814 -0.2007 -0.1924
18871W        W38405  18.559  19.334   0.731  0.3034 -0.0919  0.2039
18872W        W38406  11.698  13.167   2.838 -0.0027  0.0975  0.2780
18873W        W38407   4.525   2.432   0.167 -0.0541 -0.1771  0.0005
18874W        W38408   4.593   2.654   5.115  0.2808 -0.0118  0.1688
18875W        W38409  15.890   1.206  11.523 -0.0305  0.0699  0.0396
18876W        W38410   4.843   3.380  14.345 -0.0079  0.0656 -0.0173
18877W        W38411   1.585  14.324   3.447  0.0979 -0.0180  0.2084
18878W        W38412  13.866   4.928   1.267 -0.0977 -0.1276 -0.0386
18879W        W38413   2.093  15.373  12.083 -0.0279  0.0248 -0.0193
18880W        W38414   9.702   0.324   0.344  0.0214 -0.2446  0.0894
18881W        W38415   0.835   9.334  13.706 -0.2588 -0.2924  0.1271
18882W        W38416   6.524   4.747   2.976 -0.3362 -0.3791 -0.0900
18883W        W38417  17.368   7.988   2.023  0.0555  0.4438  0.1916
18884W        W38418   1.756  10.268   1.577  0.0447  0.0408 -0.1253
18885W        W38419  13.416   8.780   0.626 -0.2002 -0.0014  0.1856
18886W        W38420   1.929  11.764  12.801 -0.2386  0.1622 -0.3425
18887W        W38421   0.284  18.004  12.028 -0.2508  0.0935  0.1135
18888W        W38422  17.409   2.655   2.400  0.1775 -0.1735 -0.0484
18889W        W38423   4.746  17.776  12.957  0.0971  0.0860  0.0492
18890W        W38424   9.262  17.544  11.773  0.1365 -0.5111 -0.2147
18891W        W38425   4.125   7.063   1.161  0.2691 -0.2573 -0.1574
18892W        W38426  15.970  19.237   9.816 -0.3526 -0.1225 -0.0857
18893W        W38427  10.340  15.688  10.818  0.0727  0.0214 -0.0900
18894W        W38428   8.652   5.662   1.337 -0.2167  0.2279  0.0285
18895W        W38429   0.059  13.393   1.203 -0.1071  0.2112  0.0881
18896W        W38430  14.536   9.530   2.505 -0.0545 -0.3362 -0.2079
18897W        W38431  13.800   2.616  11.834  0.0194 -0.0282 -0.0541
18898W        W38432   7.683  15.554  14.203  0.0215 -0.1876 -0.1693
18899W        W38433  18.385  14.837  10.812 -0.0391 -0.0629 -0.0597
18900W        W38434  18.464  17.206   2.172  0.2738 -0.0436 -0.0472
18901W        W38435  12.537   4.670  10.420  0.1862 -0.1279 -0.2372
18902W        W38436   2.860  15.216  12.662  0.1215 -0.2104  0.0685
18903W        W38437  17.177   6.396  13.938  0.0248 -0.1327  0.1134
18904W        W38438  10.937  16.094   2.265 -0.2547 -0.1025 -0.0584
18905W        W38439   8.568   5.427  11.447 -0.1930  0.0565  0.1280
18906W        W38440  15.967  15.360   0.919 -0.1642 -0.0076  0.0897
18907W        W38441   9.600  13.930  10.895  0.3386  0.1500  0.0483
18908W        W38442  14.389  15.572  12.786 -0.2015  0.0279  0.1512
18909W        W38443   7.285  12.625  12.035  0.0492  0.0569  0.0320
18910W        W38444  10.497   7.758   9.540 -0.1647 -0.0867 -0.1269
18911W        W38445   9.734   7.539   0.916  0.1927 -0.2529  0.1921
18912W        W38446  12.581   7.047  12.496  0.3409 -0.2220 -0.1329
18913W        W38447  12.913   1.902   3.675 -0.0521 -0.0656  0.0385
18914W        W38448  11.729   7.401   3.698 -0.0345 -0.0108  0.1358
18915W        W38449   8.916  10.412   1.032 -0.1674 -0.1593 -0.1755
18916W        W38450   2.422   9.740  13.283  0.2217 -0.3129  0.0089
18917W        W38451   9.311   4.911   2.367  0.0745  0.0200  0.0906
18918W        W38452  13.883  17.345  11.133  0.0653 -0.3014  0.1903
18919W        W38453   2.331   5.450   0.789  0.0129 -0.5326 -0.0157
18920W        W38454   8.212  11.125  11.303 -0.0629 -0.0037 -0.2250
18921W        W38455   7.208  12.643  13.191 -0.3481 -0.1888  0.2101
18922W        W38456  17.367   6.502   0.329 -0.1971 -0.0525 -0.1474
18923W        W38457   3.329  17.172  12.101  0.0533 -0.0887  0.0934
18924W        W38458  13.150  17.597   2.030  0.0666  0.0467  0.0503
18925W        W38459   9.296   3.512  13.380  0.0470  0.1459 -0.1601
18926W        W38460  14.466  15.668   0.187  0.2192  0.2849  0.0010
18927W        W38461  12.412  18.743  11.166 -0.2318  0.4367  0.0915
18928W        W38462  17.450  15.875   1.323  0.2050  0.2042  0.2388
18929W        W38463  18.648  11.957  11.782  0.0790  0.0791 -0.1514
18930W        W38464  12.230  17.276   0.421  0.1935 -0.0478 -0.1966
18931W        W38465   0.230  10.710   3.590  0.0169  0.1358  0.1033
18932W        W38466   3.038  12.776  12.917 -0.3224 -0.1277  0.0139
18933W        W38467  13.349   6.324  10.675  0.0734 -0.1309 -0.3676
18934W        W38468  14.111   0.407  12.909 -0.2676  0.1691 -0.1409
18935W        W38469   0.389   4.436  11.180 -0.1192 -0.5559  0.0984
18936W        W38470   8.779  19.482   0.062 -0.1011  0.1322 -0.0478
18937W        W38471   0.953  15.928  12.757  0.0772  0.4569 -0.1499
18938W        W38472  16.048  11.764   1.941 -0.0560 -0.0888  0.1521
18939W        W38473  11.516   7.399  11.657  0.3009 -0.0463 -0.2616
18940W        W38474  16.065   6.407   2.302 -0.0869  0.0632  0.3129
18941W        W38475  11.079  15.258   1.973 -0.3045  0.0685 -0.1068
18942W        W38476  11.576   0.138   1.237  0.5141  0.0404  0.0638
18943W        W38477   1.150   8.401  11.087 -0.2190 -0.0383 -0.1263
18944W        W38478   7.850  15.107  10.908  0.2475 -0.2237 -0.1749
18945W        W38479   7.256  14.900  13.422  0.2862  0.0473 -0.2265
18946W        W38480   7.905   4.200  10.875  0.2144 -0.3903  0.0450
18947W        W38481   4.935   7.657  10.812 -0.2243 -0.3222 -0.1140
18948W        W38482   2.772   2.931   3.366  0.3348 -0.3220 -0.1639
18949W        W38483  17.171  11.134   0.166  0.4130  0.2404  0.1383
18950W        W38484   4.862   6.073   4.193  0.0860 -0.0811 -0.0955
18951W        W38485   3.583   9.909  10.560  0.0540 -0.0879  0.2479
18952W        W38486  13.171  10.751  13.691  0.0260 -0.3005  0.2512
18953W        W38487   8.270  10.006  11.253 -0.0773 -0.3205 -0.0802
18954W        W38488  10.091   5.339  11.502 -0.1638  0.2273 -0.0347
18955W        W38489   8.273   4.026  12.956 -0.3476 -0.0855  0.0987
18956W        W38490   9.861  13.853   0.692 -0.1110 -0.1147  0.2339
18957W        W38491  18.798  15.691  13.479  0.1727 -0.1803 -0.1068
18958W        W38492   7.537  16.533   1.916  0.2464 -0.0477 -0.2270
18959W        W38493  18.700  16.248  14.329 -0.1724 -0.2747 -0.4578
18960W        W38494   6.248  17.021   3.900 -0.1121 -0.0669  0.1641
18961W        W38495   8.954  17.752   3.622 -0.0625 -0.0083 -0.0291
18962W        W38496   7.785   9.025  10.476  0.0177  0.0976  0.0857
18963W        W38497   6.513   9.841  11.767 -0.2470  0.1954  0.1127
18964W        W38498   8.842   3.499   9.227 -0.2843  0.0774 -0.5273
18965W        W38499   3.156  15.494   1.115  0.1703  0.3734  0.1423
18966W        W38500   5.402  11.925  10.552 -0.0179 -0.2247  0.0483
18967W        W38501   7.198   1.238   1.176  0.0194  0.2590 -0.3159
18968W        W38502  14.121   8.241   0.321  0.1479  0.0115  0.0415
18969W        W38503  11.017   7.246   3.992 -0.0869  0.4982 -0.1733
18970W        W38504   6.158   6.369  12.283 -0.0827 -0.1607  0.0261
18971W        W38505   9.178  19.163  12.629 -0.0108  0.4356 -0.0878
18972W        W38506  14.023   7.927   4.055  0.1039  0.1525  0.1026
18973W        W38507   1.400   3.818   1.351 -0.1468 -0.0958  0.1639
18974W        W38508  10.447  18.770  11.949 -0.0949 -0.1729  0.1645
18975W        W38509   9.327   6.517  12.887  0.1663 -0.3485  0.1560
18976W        W38510   6.774  12.751  13.437  0.0852 -0.1601  0.3081
18977W        W38511   9.529   8.529  11.239 -0.0014  0.0631 -0.1328
18978W        W38512   6.984   7.775   1.949  0.0441 -0.0938  0.1842
18979W        W38513  10.111  18.388  11.781 -0.1113 -0.0777  0.1007
18980W        W38514   3.275   8.875   3.898 -0.3008 -0.0086  0.0209
18981W        W38515   9.810  12.252   1.826 -0.4893  0.3082 -0.1061
18982W        W38516  12.612   7.538   0.660  0.0336 -0.1931  0.1621
18983W        W38517   1.645  16.072  10.580 -0.0186  0.1544  0.0268
18984W        W38518  15.712   7.912  13.647  0.0450  0.2116 -0.0117
18985W        W38519  19.074   7.135   0.353 -0.2403  0.0553 -0.2027
18986W        W38520   0.407  14.584   3.268 -0.0678  0.0430  0.0609
18987W        W38521  11.846   9.953  12.005  0.1240  0.0609  0.2159
18988W        W38522   2.626   0.242  11.969  0.0320  0.0122  0.1021
18989W        W38523   7.445  12.385   4.058 -0.2481  0.3778 -0.1489
18990W        W38524   1.772   3.246   3.253  0.0578  0.0884  0.0336
18991W        W38525   2.231   5.371   1.844 -0.1034  0.1516  0.1180
18992W        W38526   6.543  19.247   5.183  0.2688 -0.4067 -0.0666
18993W        W38527  10.810   4.250   3.189  0.0070 -0.3624 -0.2710
18994W        W38528   5.799   6.102  11.202  0.1774  0.0381 -0.0355
18995W        W38529   5.414   3.534  10.380  0.1559 -0.0571  0.3315
18996W        W38530   3.034  11.963  13.369 -0.2012 -0.1394  0.0534
18997W        W38531   6.110   1.940   0.314  0.0430 -0.0082 -0.1116
18998W        W38532   5.234   7.203  12.544 -0.0647 -0.0078  0.1609
18999W        W38533   6.487  18.580  13.647 -0.2088  0.3766 -0.0770
19000W        W38534  17.071  15.014  11.239 -0.0617 -0.1770 -0.1104
19001W        W38535   6.449  12.313   2.624  0.0136  0.0110  0.3793
19002W        W38536  16.401  15.100   1.071  0.2287 -0.2729 -0.0963
19003W        W38537  13.444   3.294   3.773  0.1871  0.1683  0.0468
19004W        W38538  18.365   8.918  13.975  0.0242  0.1189 -0.4661
19005W        W38539  15.462   6.742  13.054 -0.2559  0.1335  0.0592
19006W        W38540   1.013  12.148   2.654  0.1222  0.0902 -0.2541
19007W        W38541  16.382  13.625  10.304 -0.0678  0.4191  0.1709
19008W        W38542  11.333   4.694  11.651 -0.1924  0.1321  0.0134
19009W        W38543   5.841  10.202   0.808  0.0711 -0.0251 -0.1474
19010W        W38544   4.012  12.728  13.178 -0.3324 -0.2077 -0.1811
19011W        W38545   8.984   1.227   1.096 -0.2068  0.0318  0.0977
19012W        W38546  19.275   2.077   5.048  0.1239  0.1770  0.2377
19013W        W38547  15.588  12.475  11.739  0.1493  0.0195 -0.1363
19014W        W38548  17.396   8.558   0.607  0.0421  0.3495  0.1061
19015W        W38549  17.823   5.091  12.989  0.0394  0.2890 -0.0165
19016W        W38550  12.534   4.127  10.428 -0.0832  0.1240  0.0629
19017W        W38551   8.479   6.973  12.685 -0.0967 -0.0465  0.0627
19018W        W38552   5.131   8.986   3.667 -0.1474  0.0549  0.1121
19019W        W38553  18.673   4.632   3.422  0.2086 -0.3829 -0.0061
19020W        W38554   6.584  16.570  13.197 -0.2089  0.0759  0.0651
19021W        W38555   5.108  17.006   3.195 -0.0229  0.0603  0.1939
19022W        W38556   2.958   9.786   0.853 -0.1287  0.3344 -0.0880
19023W        W38557  18.577   7.433  13.878  0.1057  0.0802 -0.0149
19024W        W38558   8.007   7.183   2.775 -0.2245  0.3236  0.3767
19025W        W38559  11.606   9.094  13.495 -0.1337  0.2679  0.0092
19026W        W38560  10.233  18.263   1.358  0.1905  0.0957 -0.0705
19027W        W38561  12.408  17.929   2.630  0.1570  0.0482 -0.0167
19028W        W38562  14.443   6.730   3.892  0.0640  0.0134  0.4502
19029W        W38563  13.354   9.778   3.805 -0.1889 -0.2597  0.1428
19030W        W38564   4.118   9.882   1.837 -0.1561 -0.2792  0.1455
19031W        W38565   9.791  17.894  14.213  0.0812  0.1491  0.2905
19032W        W38566   6.708  14.806  10.946  0.1229  0.3052  0.2204
19033W        W38567  14.496  16.333   4.600  0.2542 -0.0476  0.1266
19034W        W38568   3.158  12.258  12.470  0.0660  0.4931  0.3449
19035W        W38569   9.573   3.718   0.138  0.2568 -0.0802  0.0604
19036W        W38570   2.660  14.132  10.441  0.1079  0.0878 -0.0596
19037W        W38571   5.472   7.746  13.889 -0.1479  0.1583 -0.2816
19038W        W38572   0.711  13.621  12.069  0.3790  0.1258 -0.0222
19039W        W38573   3.197  17.537   4.458  0.2241 -0.1628 -0.1491
19040W        W38574  13.409  15.093   0.310 -0.1278 -0.1006  0.4403
19041W        W38575  14.443  15.640  10.895  0.0266  0.3188  0.1883
19042W        W38576  16.812  11.490  12.997  0.5009 -0.0997  0.1101
19043W        W38577  14.871   7.487   3.123  0.1175 -0.1176 -0.1989
19044W        W38578  14.599   1.842  13.686  0.0079  0.2260  0.0864
19045W        W38579   2.817  14.457   0.719  0.1653 -0.1549 -0.2281
19046W        W38580  14.036   4.500  14.150 -0.0729 -0.0210  0.1423
19047W        W38581   0.622  14.961  11.623 -0.0946 -0.1099 -0.4083
19048W        W38582   6.566   4.171   4.862 -0.1217  0.2764  0.2689
19049W        W38583   1.041  15.709   3.233 -0.0324  0.4605 -0.3326
19050W        W38584  18.383  15.405   3.757 -0.3476  0.1795  0.0671
19051W        W38585  19.103   6.106  13.096  0.2808  0.0779  0.0459
19052W        W38586  11.105  15.726   1.860  0.1556 -0.1165 -0.0564
19053W        W38587  14.810   8.068  12.503 -0.2089 -0.3903 -0.3383
19054W        W38588   2.052  13.800  12.775 -0.1911  0.0265  0.2184
19055W        W38589  13.286  14.212   0.099 -0.0152  0.0955 -0.1961
19056W        W38590  11.331   4.205   1.871 -0.0995  0.1558  0.3681
19057W        W38591   4.228  10.587   0.768  0.1278 -0.4765  0.0206
19058W        W38592   4.075   4.279   0.785 -0.4473 -0.0264 -0.2158
19059W        W38593   5.219   3.300   0.357 -0.0614 -0.0871 -0.1668
19060W        W38594  14.302   5.212   0.456  0.1009  0.3921 -0.2718
19061W        W38595   0.452  16.678  11.706  0.1039 -0.0355 -0.0841
19062W        W38596   1.040   7.453  13.567 -0.0180 -0.2235 -0.1173
19063W        W38597   1.279  17.744  10.201  0.1367  0.5672 -0.2188
19064W        W38598  11.634   1.089  13.658  0.0808 -0.2439 -0.1560
19065W        W38599   1.945   1.029   3.853  0.0276 -0.0368  0.0867
19066W        W38600  17.128  18.420   0.358 -0.0342 -0.0056  0.1565
19067W        W38601   1.487  13.448  10.668 -0.2532  0.1021  0.0801
19068W        W38602  14.776   2.144  10.795 -0.0878  0.3328 -0.0098
19069W        W38603  10.974  18.001   0.065 -0.0440  0.0466  0.1246
19070W        W38604  10.316   3.874   4.046  0.3169  0.1499 -0.2099
19071W        W38605   2.208  16.362   0.659 -0.1881 -0.1955 -0.0208
19072W        W38606  17.317   8.930   3.094  0.2616 -0.3505 -0.0439
19073W        W38607   7.735   1.054   1.952 -0.1991  0.0949 -0.2662
19074W        W38608  16.663  16.019   2.538 -0.1902  0.0178  0.0942
19075W        W38609  13.258  15.801   1.708  0.1926  0.2817 -0.1928
19076W        W38610  18.313  19.375   9.443 -0.0356  0.0824  0.0588
19077W        W38611   3.890  14.439   1.035  0.1650 -0.0013 -0.4585
19078W        W38612  13.945   1.141   2.206  0.1587  0.2661  0.1405
19079W        W38613  15.812   4.246  10.901  0.0377  0.1237 -0.0677
19080W        W38614   9.514   8.781  10.667  0.1122 -0.3695 -0.0632
19081W        W38615  16.241  18.889  13.188  0.0718 -0.1949  0.1642
19082W        W38616  18.264   7.226  11.240 -0.1108 -0.1958  0.0442
19083W        W38617  11.420   6.511   1.976  0.0733 -0.3467  0.3411
19084W        W38618   2.200   2.958   1.484 -0.1412  0.0003 -0.0351
19085W        W38619   5.327   2.852   0.170  0.0918 -0.0873 -0.1502
19086W        W38620  17.717  11.386  13.086  0.0280  0.0556  0.1964
19087W        W38621  14.884   3.808  12.528 -0.2263 -0.2761 -0.2503
19088W        W38622   9.357  15.663   2.028 -0.1599 -0.0134  0.1736
19089W        W38623  16.686  12.144   0.609 -0.1451 -0.2616 -0.0904
19090W        W38624  18.945   7.213   1.913  0.0499 -0.1314  0.0110
19091W        W38625  17.495  15.122   2.923  0.2346 -0.1043 -0.2110
19092W        W38626  13.329  16.974  11.575  0.0797  0.1785 -0.1302
19093W        W38627   1.059  13.587  14.140 -0.1077 -0.1021  0.0305
19094W        W38628   4.358   3.973  11.124  0.1509  0.2470 -0.0616
19095W        W38629   8.671   9.626   0.116 -0.0131 -0.1460 -0.0540
19096W        W38630  19.484  13.829   3.141  0.0457 -0.0314 -0.3297
19097W        W38631   9.560  10.482  14.301  0.0241 -0.2583  0.0573
19098W        W38632  18.215   6.635  12.762 -0.0443 -0.4116 -0.1674
19099W        W38633  15.632   3.098   1.710  0.3317  0.1739  0.0788
19100W        W38634   7.472   2.766   2.911  0.1374 -0.2214 -0.4344
19101W        W38635  13.195  15.239  14.237 -0.0035  0.0698 -0.1873
19102W        W38636  12.319  15.363   0.285  0.0836 -0.0187  0.2728
19103W        W38637  12.327   6.568   0.315 -0.4144  0.1175  0.4634
19104W        W38638   6.680  10.095   3.371  0.0220  0.1259  0.0458
19105W        W38639  16.726   0.165   1.773 -0.2697 -0.1642  0.1961
19106W        W38640   1.179  13.990   1.979  0.0014  0.0491  0.1008
19107W        W38641   2.334  16.630  13.463 -0.0865 -0.0629  0.1404
19108W        W38642  17.085   4.616   4.072  0.4345  0.2543  0.0684
19109W        W38643   8.813  12.965   2.343 -0.2736  0.3641 -0.0417
19110W        W38644  18.866  14.425  11.962  0.1740 -0.3369 -0.2990
19111W        W38645   3.523  12.644   3.659 -0.1539  0.1662 -0.0056
19112W        W38646  16.038  14.864   1.990  0.0417 -0.1814  0.3572
19113W        W38647   8.119  12.056   0.082 -0.3847  0.1076 -0.0819
19114W        W38648  13.667  10.490  10.791  0.0469  0.2263 -0.2492
19115W        W38649  13.943   2.554   3.201  0.1478 -0.1816  0.4207
19116W        W38650   2.546   9.588  12.052  0.0038  0.0749  0.2231
19117W        W38651   3.070  17.083   2.321  0.0992  0.0775  0.1069
19118W        W38652  12.689  10.928   1.383 -0.4117  0.3125 -0.1508
19119W        W38653   1.993   2.503  13.765  0.0023 -0.1681 -0.0415
19120W        W38654  17.945   7.866   3.736 -0.1796 -0.2218  0.2246
19121W        W38655   6.091   4.661   3.160 -0.2823 -0.0132  0.1593
19122W        W38656   6.730  17.467  10.967  0.0020  0.0463  0.0878
19123W        W38657   4.365  13.545  12.471 -0.1072  0.0657  0.2672
19124W        W38658  15.990   4.800  12.814  0.1339  0.1192 -0.1696
19125W        W38659   8.359  14.240   2.938  0.2183  0.0082  0.0477
19126W        W38660   3.083   1.442  10.426  0.2742 -0.1960  0.1754
19127W        W38661   2.649   6.085   1.457 -0.0543  0.1204 -0.2355
19128W        W38662   5.039  12.474  13.258 -0.1139  0.2214 -0.2068
19129W        W38663   3.795   5.873  14.073  0.0656  0.1754 -0.3039
19130W        W38664   9.861  13.029  11.234 -0.1157  0.0207  0.4526
19131W        W38665  16.283   8.538   3.066 -0.0215 -0.1759  0.3270
19132W        W38666   0.342   5.219  13.464 -0.4166  0.1413  0.1665
19133W        W38667   3.402   9.665   0.745  0.0746 -0.1210 -0.0879
19134W        W38668  16.864  18.917   0.486  0.0759  0.0789 -0.0651
19135W        W38669  12.261   2.690  11.173  0.2588  0.1230 -0.1929
19136W        W38670  14.904   6.342  11.164 -0.0996  0.0753  0.2230
19137W        W38671  13.214   8.886   1.948 -0.0183  0.2356 -0.1047
19138W        W38672  14.256   9.812  11.452 -0.0170 -0.0488 -0.0309
19139W        W38673  18.480   6.848   0.361 -0.0193 -0.0906  0.0963
19140W        W38674  14.749   7.351   2.583  0.1263 -0.2323  0.0083
19141W        W38675   1.137  16.042   0.473  0.0066  0.0195 -0.1268
19142W        W38676   6.329  13.818   0.501  0.1384 -0.3321  0.0787
19143W        W38677  12.350   3.107  10.172  0.4719  0.1144 -0.2361
19144W        W38678   6.889  13.857  10.365 -0.2909  0.0492 -0.0011
19145W        W38679  10.439   6.005   3.861  0.2374  0.0851  0.4261
19146W        W38680  19.508  13.211  12.718  0.0492 -0.1561 -0.0243
19147W        W38681  11.719   9.442  10.483  0.2800  0.0867 -0.0629
19148W        W38682   6.062  17.648  13.834 -0.2722  0.1348 -0.0340
19149W        W38683   3.370  16.879  13.478 -0.0124  0.0099  0.0377
19150W        W38684   2.172  19.492   1.787 -0.2253  0.4486  0.1116
19151W        W38685  16.591   0.235  13.155  0.1634  0.0306  0.1049
19152W        W38686  14.736   6.602  13.564  0.2395  0.0211 -0.1604
19153W        W38687   6.987  15.103  10.688  0.3832 -0.0320  0.0222
19154W        W38688  16.373   1.945   2.308 -0.0852  0.0177 -0.1614
19155W        W38689  15.656  17.671  13.427  0.1937 -0.3165 -0.1773
19156W        W38690  15.891   0.298   1.864 -0.0307 -0.0314 -0.0385
19157W        W38691  13.748  11.490   3.572 -0.1276  0.0003  0.0420
19158W        W38692   7.412   7.711  12.228  0.1330  0.1279  0.2235
19159W        W38693   1.523   5.017   2.816 -0.0288  0.2043 -0.0973
19160W        W38694   7.382   5.675   0.672 -0.0582  0.0243 -0.0102
19161W        W38695   1.121   4.490   3.556  0.0520  0.2927  0.0855
19162W        W38696  12.274  14.480  11.343 -0.0760  0.2506  0.2527
19163W        W38697   2.772  12.946  11.367  0.3620  0.2728  0.1164
19164W        W38698  10.227   7.207   3.377  0.1360  0.0822 -0.2113
19165W        W38699   7.731  15.976   0.265 -0.0164  0.0770 -0.2041
19166W        W38700  10.850  16.243  11.553  0.2184  0.3878  0.0762
19167W        W38701   0.651  10.371   3.615  0.0351  0.1241  0.2256
19168W        W38702  14.446  15.322  11.950 -0.4327 -0.2726 -0.1933
19169W        W38703  10.139  16.943  13.039  0.1515  0.0618  0.2768
19170W        W38704   0.167  13.170   2.047 -0.2545 -0.0093  0.4434
19171W        W38705  10.363   5.351   0.697 -0.1531 -0.0286 -0.0860
19172W        W38706   2.598   0.586  11.608  0.0584 -0.0610 -0.0441
19173W        W38707  19.218   5.289   2.182 -0.1013  0.0600  0.1067
19174W        W38708   5.527   9.403  11.374 -0.2559 -0.2467 -0.2700
19175W        W38709  10.050   3.828   3.079  0.0192 -0.6259  0.0235
19176W        W38710   5.719   3.246   2.075 -0.0314 -0.2885  0.0318
19177W        W38711   7.303  18.246  11.142  0.1476  0.0468 -0.1649
19178W        W38712  17.421  11.925  13.819  0.0781 -0.2058  0.1653
19179W        W38713   6.002   9.645   4.528  0.0301 -0.2060  0.0986
19180W        W38714   1.741  12.493   0.945 -0.0462  0.1179 -0.0471
19181W        W38715   4.914   2.296  11.125  0.0552  0.0281  0.2263
19182W        W38716  17.550  16.791  10.677  0.2173  0.1076  0.1631
19183W        W38717   5.371  18.878   2.802  0.2566  0.0374 -0.1180
19184W        W38718  16.331  11.369  13.306  0.5194 -0.0196 -0.1440
19185W        W38719  13.479   8.132   1.204 -0.3036  0.4209 -0.1533
19186W        W38720  11.889   6.491   1.876 -0.2127  0.0475  0.0029
19187W        W38721   7.576  16.998   0.167  0.0709  0.4109  0.0225
19188W        W38722  18.686  10.084  10.002  0.0505 -0.1004  0.0970
19189W        W38723   4.800  10.527  13.526 -0.0418  0.0097  0.0044
19190W        W38724  13.724  18.880  13.668  0.1353  0.3848  0.0948
19191W        W38725   3.154  16.836   9.881 -0.0722  0.0389 -0.2419
19192W        W38726   5.135   0.195   0.859  0.2945 -0.1201 -0.0148
19193W        W38727  18.093  17.467   1.960  0.1261  0.1921  0.1277
19194W        W38728   3.360  19.357  11.787 -0.0061 -0.2515 -0.1627
19195W        W38729  15.703   9.866   2.600  0.0451  0.1978 -0.3481
19196W        W38730   3.575  11.921  12.590  0.2069  0.0577 -0.1861
19197W        W38731  10.410   9.120  12.703 -0.3409 -0.0277  0.4025
19198W        W38732   3.669  10.782   3.038 -0.0888  0.0523  0.0490
19199W        W38733  13.098   0.193  10.051  0.2459  0.2146  0.3271
19200W        W38734   5.121  12.882  13.514 -0.1600 -0.5041 -0.0130
19201W        W38735   8.525  17.064   0.524 -0.2466 -0.2049  0.0141
19202W        W38736  13.743  10.617   9.160  0.3490 -0.1269 -0.0563
19203W        W38737   3.895   5.492   1.326  0.2062 -0.0508  0.2887
19204W        W38738  10.379  11.429  13.261 -0.0551 -0.4862  0.2135
19205W        W38739  18.624   5.677  10.649 -0.0934 -0.1997 -0.2038
19206W        W38740   6.900  15.086  14.037 -0.0626 -0.0802  0.1417
19207W        W38741  11.522  14.227   0.862  0.1566 -0.0388 -0.3034
19208W        W38742  19.095  11.752  12.445 -0.2270  0.0606  0.1193
19209W        W38743   8.951  15.888   1.079 -0.1152  0.1256 -0.4956
19210W        W38744   8.013   3.366  12.437 -0.0723 -0.0194  0.0922
19211W        W38745   1.862   6.286   2.661  0.0741  0.0489  0.0452
19212W        W38746  13.101   4.423  11.642  0.1630  0.1497 -0.1708
19213W        W38747  12.491  12.167  12.431 -0.1060 -0.0561  0.3384
19214W        W38748  11.352  15.845   0.222 -0.0058  0.1806 -0.0789
19215W        W38749   8.904   2.140   0.537 -0.4978 -0.1005 -0.1768
19216W        W38750  11.554  10.143  14.160 -0.1716  0.0276 -0.3431
19217W        W38751  16.252   9.007   4.087 -0.0258 -0.1392 -0.1086
19218W        W38752  14.484   1.133  12.850 -0.4694 -0.3224  0.2636
19219W        W38753  12.525  11.279  13.337 -0.1265  0.1476 -0.0505
19220W        W38754   2.681   4.995   4.297  0.0189  0.1160 -0.0038
19221W        W38755  10.753  14.387   0.348 -0.2056  0.2572 -0.3233
19222W        W38756   8.657   1.469  12.443 -0.0882 -0.0964  0.0908
19223W        W38757  14.067  10.709  13.376  0.1104 -0.2540 -0.2599
19224W        W38758  15.886   5.174  12.437  0.2021 -0.2387 -0.0619
19225W        W38759  19.068   3.632   0.667 -0.1546  0.0805  0.0122
19226W        W38760   2.119  17.351  13.380 -0.4003 -0.1378  0.1501
19227W        W38761   1.029  17.993  12.374 -0.1376 -0.3387  0.0528
19228W        W38762  11.699   1.885  11.375  0.4631  0.3539 -0.3161
19229W        W38763  12.623  16.159   2.983  0.0759 -0.1475 -0.0846
19230W        W38764   2.020   1.335   9.395  0.1226  0.0347  0.1889
19231W        W38765  11.803   1.025  11.241  0.0734  0.0271  0.1317
19232W        W38766  11.312   1.294  11.857  0.0267 -0.1815 -0.2418
19233W        W38767   2.639   9.390  12.925 -0.0195 -0.0979 -0.3419
19234W        W38768  16.165  12.325  14.320 -0.2839  0.0246 -0.0265
19235W        W38769   0.273  18.641  11.468 -0.2576  0.0380 -0.0744
19236W        W38770  17.846  13.950  11.153  0.2681  0.2287  0.2852
19237W        W38771   6.172   3.883   3.443  0.2092  0.0519  0.3019
19238W        W38772   0.582   4.030  13.480  0.1213  0.1251  0.0554
19239W        W38773  16.205  18.197  11.171  0.2469 -0.1188 -0.2218
19240W        W38774  13.933   9.980  12.999 -0.2440 -0.1040  0.0600
19241W        W38775   4.287   7.207  11.239  0.2207  0.0883  0.2759
19242W        W38776   3.135   3.501   2.586  0.0661 -0.1603 -0.1706
19243W        W38777  13.535   6.426  12.132  0.3291  0.0059 -0.2022
19244W        W38778   7.402  12.491   0.698 -0.0747 -0.1217 -0.0302
19245W        W38779  19.518  14.193  13.507 -0.1166 -0.1688 -0.3063
19246W        W38780  18.086  10.513   2.130 -0.3483 -0.0617  0.1194
19247W        W38781   8.961   4.543   0.585  0.2464  0.5321  0.1366
19248W        W38782  17.482  11.448  13.968 -0.6083  0.0599 -0.0637
19249W        W38783  16.773  14.981  13.936 -0.1534 -0.0925  0.3286
19250W        W38784   1.417  19.222   2.120  0.1252  0.0448  0.0158
19251W        W38785   9.171   5.600  13.866 -0.0344  0.1524  0.3117
19252W        W38786   7.876  14.916   3.760 -0.1838 -0.1542 -0.0833
19253W        W38787   8.809  13.166  10.817 -0.1381 -0.0096  0.2552
19254W        W38788  19.077  14.694   4.700  0.3784  0.0263 -0.0418
19255W        W38789  15.407   6.026   1.685  0.3602 -0.0572 -0.0792
19256W        W38790  14.277  13.972  11.460  0.1624 -0.0470  0.1533
19257W        W38791   8.929  14.142   1.169  0.1799  0.1913  0.2014
19258W        W38792   6.169   9.300   0.268 -0.0835 -0.2050 -0.2099
19259W        W38793  15.216   2.867   1.033  0.0787 -0.2070  0.1906
19260W        W38794  18.969  18.285  11.339  0.0348  0.0168 -0.2761
19261W        W38795   9.438  14.548  11.907 -0.1396 -0.3786 -0.2571
19262W        W38796   6.600   0.343  13.087  0.1262 -0.0471 -0.2452
19263W        W38797   4.903  13.167   0.113 -0.3542 -0.2151 -0.0964
19264W        W38798  11.515   7.919  12.376 -0.3273  0.3729 -0.2438
19265W        W38799  17.665  10.353   3.547 -0.1261 -0.1772 -0.0338
19266W        W38800   0.363   4.150   9.826  0.1774 -0.2143  0.0187
19267W        W38801  12.285   0.908  11.192 -0.0250 -0.0613 -0.4905
19268W        W38802  13.048  11.217  12.257  0.4038  0.2804  0.0369
19269W        W38803  10.554  17.549  13.244  0.2224  0.0024  0.4210
19270W        W38804  10.565   2.173  11.849 -0.3303 -0.1138  0.3478
19271W        W38805   9.748   7.408   1.391  0.0390  0.3267 -0.3268
19272W        W38806   2.179   4.461  10.633 -0.2503  0.1894 -0.0455
19273W        W38807  16.368  10.541  13.840 -0.0605  0.1363 -0.2061
19274W        W38808  10.921  13.905  10.382  0.0412 -0.1005  0.2724
19275W        W38809  10.363  18.594   1.708  0.1478  0.2577  0.1809
19276W        W38810   2.595  15.070  14.289 -0.1421  0.2993  0.1013
19277W        W38811  13.661  12.023  10.530 -0.2346  0.4927  0.5221
19278W        W38812  19.158   1.126  12.519  0.1219  0.2996 -0.2130
19279W        W38813   1.876  14.207   2.172 -0.0961  0.1332  0.0680
19280W        W38814  12.259  10.419  13.402  0.1892  0.0308  0.0546
19281W        W38815   0.809  17.692   4.204 -0.2550  0.2122 -0.3060
19282W        W38816   9.327  16.870  11.790  0.1364  0.1149 -0.0227
19283W        W38817  14.867  19.278  11.985  0.2089  0.1065 -0.1068
19284W        W38818   6.665  18.377  11.137  0.2129 -0.0304 -0.0921
19285W        W38819   6.431   6.347   4.984  0.1962  0.2062 -0.1389
19286W        W38820  16.736   1.356  12.129 -0.1558  0.1885 -0.0185
19287W        W38821   2.216   8.886   4.172 -0.1922  0.1024  0.1119
19288W        W38822  12.505  16.991   4.792 -0.0029 -0.0956  0.1086
19289W        W38823   5.971  17.525   1.626  0.1684 -0.2259  0.0737
19290W        W38824   2.052  14.611  12.399  0.2934  0.0460 -0.0899
19291W        W38825  16.285  18.255   5.257 -0.1565 -0.6266  0.2275
19292W        W38826  15.545  16.539   3.434 -0.1628  0.2029  0.1989
19293W        W38827   1.748   1.392  13.044  0.0051 -0.0206  0.1811
19294W        W38828   0.411  14.027   0.359  0.0401  0.1078  0.2314
19295W        W38829   5.147   2.778  12.807  0.2250  0.0581  0.0339
19296W        W38830   7.582   4.246  13.066 -0.0567  0.0982 -0.3185
19297W        W38831   7.569  17.289  14.081 -0.1669 -0.3476  0.1798
19298W        W38832   2.082   2.483  11.721 -0.3434  0.0236  0.0374
19299W        W38833   6.700   3.258   2.960  0.0761 -0.0543  0.1887
19300W        W38834  14.492   7.080  12.664 -0.1590  0.1051  0.1908
19301W        W38835   2.430   4.320  13.066  0.3814  0.0022  0.0776
19302W        W38836   3.390   7.829  12.835  0.5420  0.1069  0.2826
19303W        W38837   6.439  14.640  13.320  0.3364  0.0841  0.0475
19304W        W38838   2.056   7.808   2.985  0.1096  0.0832 -0.2279
19305W        W38839  16.444  11.293  12.593 -0.1291 -0.2287 -0.1966
19306W        W38840  11.203  17.651   9.111 -0.1786  0.1960 -0.0590
19307W        W38841  11.523   4.147  13.319 -0.0126  0.1281  0.1449
19308W        W38842   7.076   1.088  12.667 -0.0376  0.0160  0.1927
19309W        W38843  10.000  11.189  13.618 -0.1037  0.1424  0.1316
19310W        W38844   8.002  10.460  12.600  0.1636 -0.2709  0.0702
19311W        W38845   6.902   4.224  10.747 -0.1654 -0.1996  0.0543
19312W        W38846  12.332   1.162   2.558 -0.2556 -0.0238  0.0320
19313W        W38847   5.449  13.972   4.096  0.0056  0.1435  0.1499
19314W        W38848   0.274   4.341   2.552 -0.1163  0.0507  0.0385
19315W        W38849  14.084  19.480   0.096  0.1168  0.1139  0.2886
19316W        W38850  17.470   3.396  13.593  0.1851 -0.1397 -0.0401
19317W        W38851  18.573  18.601  10.493 -0.0808  0.2809 -0.1417
19318W        W38852   6.393   7.072   2.841 -0.1496 -0.2518  0.4000
19319W        W38853  12.448   7.750  14.076 -0.3766 -0.0380 -0.0892
19320W        W38854  19.053  17.783   1.925  0.0558 -0.0947  0.3671
19321W        W38855   7.159   8.607  14.127  0.0676 -0.1791  0.1005
19322W        W38856   7.276   7.341  10.776 -0.0233 -0.1350 -0.1312
19323W        W38857   6.745   9.919  12.195 -0.2031 -0.0743 -0.3498
19324W        W38858   7.709   8.682   1.891 -0.1984 -0.1789 -0.2088
19325W        W38859   3.250  17.105  10.341 -0.1607 -0.1596 -0.1534
19326W        W38860  19.156  13.174  14.298  0.0418  0.0690  0.1667
19327W        W38861   2.619   4.763  11.520  0.1135  0.0548  0.2011
19328W        W38862  11.995  13.859  14.032 -0.1344 -0.4103  0.1108
19329W        W38863  17.905  16.463   2.132  0.2420  0.2864 -0.0540
19330W        W38864  17.599  12.431   0.450 -0.3145  0.0983 -0.3529
19331W        W38865   1.269  17.562   1.670  0.2972 -0.2147 -0.0923
19332W        W38866   4.478  11.777   3.748  0.0337 -0.2076 -0.0909
19333W        W38867   5.808  11.122   1.085  0.0485  0.0503 -0.1781
19334W        W38868   4.414   4.677   2.876  0.0281  0.0160 -0.2342
19335W        W38869   2.908  15.890   9.309  0.1429 -0.1396 -0.2357
19336W        W38870  17.806   5.014   3.324  0.0746 -0.0367 -0.0195
19337W        W38871   2.512   2.951  13.468  0.0476 -0.1959  0.3097
19338W        W38872   8.536   5.768   1.942  0.1396 -0.1508 -0.0981
19339W        W38873   9.603   0.337   2.621 -0.1423 -0.0345 -0.1127
19340W        W38874  16.727  18.564  12.269  0.1293 -0.1330  0.1921
19341W        W38875  14.684  19.077  11.007 -0.0474  0.1054 -0.1687
19342W        W38876  15.506  18.242  13.534  0.0352 -0.0043 -0.2977
19343W        W38877  18.214  10.278  11.729  0.1255  0.0468 -0.0533
19344W        W38878  11.811  13.421  13.318 -0.0621 -0.2260 -0.0931
19345W        W38879  14.582   5.852  13.955 -0.1455 -0.2105  0.0367
19346W        W38880  17.378  12.748  10.449  0.2550 -0.4300  0.0606
19347W        W38881   5.580   6.484  10.519  0.2276  0.2049  0.1396
19348W        W38882  17.116   6.878   3.704 -0.1501 -0.3837 -0.4394
19349W        W38883  17.239  11.556  12.363 -0.1907 -0.0029 -0.0492
19350W        W38884   2.640  15.283  11.479  0.3415 -0.0610 -0.0434
19351W        W38885  11.226   7.121  12.057 -0.1185 -0.0589 -0.1964
19352W        W38886  12.536   1.072  14.201  0.0709 -0.0023  0.1930
19353W        W38887  16.198   8.019   1.995 -0.1091  0.1024 -0.0091
19354W        W38888   2.844   5.601   0.785 -0.4468  0.4397 -0.0592
19355W        W38889   5.824   9.638   1.565  0.1452 -0.1910  0.0849
19356W        W38890  12.485  14.870   0.224 -0.0129 -0.1832  0.1298
19357W        W38891  19.031  18.694  10.816  0.1152  0.1771  0.0768
19358W        W38892   1.105  16.126   1.516 -0.0684 -0.2327  0.1394
19359W        W38893   6.299  13.286  13.617  0.1655  0.1150  0.5429
19360W        W38894   8.154   0.242   2.634  0.1438  0.0813  0.1939
19361W        W38895   7.727   8.254   0.902 -0.0357 -0.0195  0.0196
19362W        W38896   3.384   3.255  10.710  0.3095 -0.0857  0.0459
19363W        W38897  19.156  13.526   1.407 -0.1347 -0.2593 -0.0642
19364W        W38898  12.423  18.908  12.766  0.3112  0.1708  0.0829
19365W        W38899   7.947  18.259  11.946 -0.0352 -0.2830 -0.2696
19366W        W38900  12.371  12.589  12.987  0.3504 -0.0218  0.1164
19367W        W38901  13.307  12.389  13.496 -0.1632  0.0979 -0.2342
19368W        W38902  13.659  14.908  10.217 -0.2439  0.0890 -0.5024
19369W        W38903   0.614   5.898   2.410 -0.0497  0.1089  0.1411
19370W        W38904   5.492   4.222  11.543  0.2902 -0.1947  0.0636
19371W        W38905  19.202  15.041   9.957 -0.0180  0.0927  0.2031
19372W        W38906  16.237  13.475   0.410  0.0431  0.1052  0.2122
19373W        W38907   4.816  18.597  14.295  0.1061  0.2220  0.2066
19374W        W38908   1.701   0.825  13.886 -0.0065  0.1258  0.1171
19375W        W38909  13.547   5.812  13.192 -0.1719 -0.0694 -0.1569
19376W        W38910   2.970   2.444  11.677  0.1700 -0.2071 -0.2422
19377W        W38911   2.733   7.446   1.130 -0.0064  0.0155 -0.0408
19378W        W38912   1.943  19.283  12.963  0.2026 -0.1035  0.0076
19379W        W38913   5.888  11.801  12.990 -0.1995 -0.0589  0.2102
19380W        W38914   2.458   2.288  13.042 -0.1183  0.0960  0.3074
19381W        W38915   0.773  10.099  11.560  0.0893 -0.1023  0.1255
19382W        W38916   1.028  17.477  12.180 -0.3555  0.1920 -0.0588
19383W        W38917  15.241   2.604   0.599  0.0557 -0.1885 -0.2220
19384W        W38918  15.677   6.122  14.263  0.0920 -0.1390  0.1613
19385W        W38919   9.796   7.169   3.916  0.3917 -0.2203  0.0404
19386W        W38920   7.593   2.831  11.090 -0.0498 -0.1523  0.0670
19387W        W38921   7.831  10.752   1.751 -0.3159 -0.1940 -0.0505
19388W        W38922  15.818  18.617  12.704 -0.3053 -0.3636  0.1597
19389W        W38923   7.204  11.014  10.857  0.0248  0.1630 -0.0662
19390W        W38924  12.094  17.327   4.205  0.2930 -0.0878  0.2921
19391W        W38925   7.725   6.751   2.490  0.2571  0.0522 -0.1546
19392W        W38926  12.595  14.326  12.114 -0.0024  0.0595 -0.0879
19393W        W38927  12.197  18.491   3.967 -0.0078  0.1020 -0.0716
19394W        W38928   5.087   3.909  10.606  0.3697 -0.1172 -0.2000
19395W        W38929   6.892   5.564   3.661  0.0004 -0.0681 -0.1777
19396W        W38930   0.305   7.574   4.187 -0.2825 -0.2410  0.0629
19397W        W38931  15.727   3.583  13.110  0.1475 -0.0473 -0.1053
19398W        W38932  11.807   0.769   3.660 -0.0434 -0.2401  0.2650
19399W        W38933   2.873  11.294  12.956  0.2000 -0.4733 -0.2543
19400W        W38934  15.080   6.933   0.896 -0.0634 -0.0103  0.0180
19401W        W38935  19.209   2.075  14.161  0.2203 -0.0841 -0.3268
19402W        W38936   3.237  15.121  10.708 -0.0068  0.3800  0.1311
19403W        W38937  11.323  11.081   0.763  0.2266 -0.0466 -0.0096
19404W        W38938  16.222   5.431  14.136  0.0101 -0.1303 -0.0712
19405W        W38939  14.869  11.928   0.061  0.1407 -0.4358 -0.0180
19406W        W38940  18.594   9.314   4.405 -0.1458  0.1024  0.2995
19407W        W38941  15.156   4.753   2.753 -0.1964  0.2249  0.1382
19408W        W38942   9.789   8.660   1.060 -0.0494  0.0460  0.0918
19409W        W38943   5.270   5.355   0.457 -0.2931  0.1382  0.1087
19410W        W38944  14.407   9.930   2.912 -0.0046  0.2123  0.0880
19411W        W38945   6.488  12.556   4.037 -0.0291  0.0976  0.2196
19412W        W38946  13.551  18.598  14.053 -0.0002  0.2082  0.3041
19413W        W38947   4.782   2.542   3.179 -0.1273 -0.1000 -0.0420
19414W        W38948  16.617   5.611  13.831 -0.1324  0.1649  0.1549
19415W        W38949   2.451  10.867  11.498  0.1939  0.0924 -0.0587
19416W        W38950   0.273   5.412  14.013  0.0087 -0.1612 -0.0062
19417W        W38951   5.163   4.387   2.070 -0.1768 -0.3226 -0.0223
19418W        W38952  16.116   8.225   0.098  0.2646  0.0781 -0.1521
19419W        W38953  16.970  18.546  13.646 -0.2898 -0.3020 -0.2232
19420W        W38954   8.342  18.184  11.171 -0.0950  0.1188  0.1853
19421W        W38955  16.284   1.008   0.431 -0.1073  0.1049 -0.2853
19422W        W38956  17.869   0.875   4.668  0.1439  0.0394  0.1059
19423W        W38957  14.591   7.502  12.322  0.3095 -0.1176  0.1371
19424W        W38958  14.423  16.087   2.384  0.2950 -0.0229  0.1490
19425W        W38959  15.500  18.445   2.245 -0.1154  0.2181  0.1091
19426W        W38960  17.532   7.253   1.850 -0.0242  0.1168 -0.0833
19427W        W38961   0.617   5.030   1.930 -0.0078  0.0952  0.0959
19428W        W38962   2.314   3.346   3.724 -0.3615  0.0442  0.0681
19429W        W38963  17.389   9.998   1.603 -0.2446 -0.0839  0.2268
19430W        W38964  19.304  10.266  13.316  0.2805  0.0653 -0.0900
19431W        W38965  11.600  14.096  13.816 -0.0550  0.0267 -0.0227
19432W        W38966   0.002  11.122  12.103 -0.2110  0.2169  0.0257
19433W        W38967   3.849   6.911   0.060 -0.4141  0.0772 -0.2178
19434W        W38968   7.194  18.200   2.798 -0.0491  0.0742  0.1318
19435W        W38969   3.518  13.015   1.805  0.1243 -0.1177 -0.0218
19436W        W38970   5.928   2.893   2.454 -0.0976 -0.0501  0.1445
19437W        W38971  14.568  10.491  11.033  0.1591  0.4162  0.1321
19438W        W38972   8.244   1.989  11.832 -0.0285  0.1829 -0.1915
19439W        W38973   2.286   8.969  12.706  0.1537 -0.2905  0.0961
19440W        W38974   5.116  14.042   2.265  0.0638  0.1444  0.2361
19441W        W38975  16.899   2.415  10.516  0.0028 -0.0791 -0.0142
19442W        W38976   1.910   2.069   0.327 -0.1458 -0.1606 -0.0780
19443W        W38977   0.824   5.069   4.459 -0.2314  0.0603 -0.0969
19444W        W38978  13.377  19.535   0.732  0.0387  0.0506 -0.0724
19445W        W38979   9.742  19.222   2.564  0.1547 -0.0239  0.0981
19446W        W38980  13.088  11.400  11.339  0.0296 -0.0959  0.3643
19447W        W38981   3.488   0.481   1.911  0.0777 -0.3337 -0.0174
19448W        W38982   0.016   3.978  13.497 -0.2391  0.2589  0.2068
19449W        W38983   6.869   6.757   2.920 -0.1804  0.0999  0.3981
19450W        W38984  12.938  14.017   0.837 -0.1222 -0.1109  0.1749
19451W        W38985   9.616   1.854  11.801  0.1304 -0.1181 -0.1754
19452W        W38986  15.945   1.651   3.113 -0.1638  0.1940  0.0244
19453W        W38987  14.148   6.425   2.232  0.2293  0.1273  0.1040
19454W        W38988   2.973  19.524   1.210  0.1367 -0.0580  0.2349
19455W        W38989  11.039   8.217  11.193 -0.0202 -0.4936  0.1338
19456W        W38990   4.687   0.489   1.492  0.0425  0.1197  0.0922
19457W        W38991   6.943  16.209  11.747  0.4560 -0.2046 -0.1444
19458W        W38992  15.385  19.490  11.220  0.2317 -0.2378  0.0388
19459W        W38993   5.959   4.523  11.572  0.0701  0.0569 -0.0362
19460W        W38994  14.476  17.440  10.327  0.1301 -0.0060 -0.0652
19461W        W38995  17.998   8.276   0.719  0.2049  0.0348  0.2070
19462W        W38996  16.648   0.287   4.577 -0.3393  0.0620 -0.0212
19463W        W38997   3.641   0.654   0.428  0.0921 -0.3975  0.1102
19464W        W38998   4.434  12.514  13.049  0.0638  0.1831 -0.0923
19465W        W38999   2.970  13.080  10.951 -0.1591  0.0317  0.0267
19466W        W39000  18.465   1.157   1.091 -0.0135  0.1380 -0.1460
19467W        W39001  16.444  17.275   3.000  0.1593  0.0764 -0.3088
19468W        W39002  11.054   1.385   3.921 -0.0650  0.0647 -0.0364
19469W        W39003   5.698   9.549  13.728  0.1543 -0.0452 -0.1721
19470W        W39004   9.874  10.919  14.214 -0.0071  0.0907  0.0284
19471W        W39005   4.482  13.857   2.907  0.1428 -0.0657  0.1882
19472W        W39006  16.412  19.229  10.566  0.3133  0.2924  0.0136
19473W        W39007   3.024  11.791  12.380  0.0578  0.0477 -0.0948
19474W        W39008  14.119   4.377   0.258 -0.2183  0.0787 -0.3858
19475W        W39009   2.125   8.475   2.429 -0.1120  0.1780 -0.0551
19476W        W39010   2.975   1.623   2.260  0.3594 -0.2216 -0.1453
19477W        W39011  10.765   0.159  11.393  0.1285 -0.2191 -0.2948
19478W        W39012  12.015   7.502  10.217  0.1285 -0.1155 -0.0644
19479W        W39013  13.238   1.746  11.953 -0.0304  0.1515  0.0084
19480W        W39014  12.724   2.742  13.635 -0.0646 -0.0860  0.3919
19481W        W39015   4.418  13.234   0.207  0.1492 -0.0977  0.1097
19482W        W39016  18.689   6.585  13.541 -0.0628  0.1330  0.0656
19483W        W39017  16.079  10.605  11.052  0.0467 -0.1321  0.0625
19484W        W39018  15.521  19.195  10.490  0.1761 -0.0087  0.1731
19485W        W39019   1.311  12.751  11.100 -0.0025 -0.1272 -0.1077
19486W        W39020   2.044  18.442  11.724 -0.7902  0.0511 -0.0684
19487W        W39021   4.296  18.324   1.657  0.1779 -0.0097  0.0435
19488W        W39022   4.273  17.796  13.875 -0.1415  0.0860  0.1000
19489W        W39023   9.789  16.727  12.584 -0.0293  0.1089 -0.1159
19490W        W39024  13.936   3.318   0.336 -0.3068  0.0582 -0.2448
19491W        W39025   4.366  10.615   5.574  0.2160 -0.0403 -0.0781
19492W        W39026  10.839  10.773   3.100 -0.0533  0.2498  0.3270
19493W        W39027   7.419   9.675  12.731  0.0777 -0.0543  0.0392
19494W        W39028   4.244   8.789  10.568  0.0028  0.2324  0.2076
19495W        W39029  19.462  13.778   0.364 -0.1386 -0.0538  0.0129
19496W        W39030   6.185  19.001  13.769  0.0396  0.0977  0.1847
19497W        W39031  13.417  14.748   1.947  0.2716  0.0029 -0.0809
19498W        W39032   2.323   9.279   1.968 -0.0652  0.6077  0.2153
19499W        W39033  12.111   2.553  12.656  0.2954 -0.1275 -0.2033
19500W        W39034  18.552  18.704  10.025 -0.1887  0.2769  0.0098
19501W        W39035   8.349   1.416  10.587 -0.1321  0.2369 -0.3537
19502W        W39036   1.515  11.194  11.088  0.0957 -0.0087  0.3638
19503W        W39037   7.058   6.924  10.627 -0.1254 -0.1708 -0.2883
19504W        W39038  18.858  19.390   1.395 -0.0024 -0.2695 -0.2711
19505W        W39039   3.983  19.183  12.602  0.2936 -0.0293 -0.0504
19506W        W39040  12.344   0.418   3.731  0.0163  0.0662 -0.3163
19507W        W39041   2.463  11.050   0.617  0.2082 -0.1356  0.1463
19508W        W39042  15.962  18.900   4.680  0.2354 -0.1404 -0.1352
19509W        W39043   5.255  15.839  13.879 -0.1939  0.1530  0.2014
19510W        W39044  16.332   6.390   4.157  0.1603  0.0554  0.2375
19511W        W39045   5.576  16.281  14.012  0.1557  0.1294 -0.0657
19512W        W39046  10.337  17.734   2.537  0.0039  0.0625 -0.0270
19513W        W39047   0.055  17.093   2.811 -0.1182 -0.0548  0.4290
19514W        W39048  18.522  16.549  11.199 -0.0475 -0.0798  0.0755
19515W        W39049   6.387  15.114   2.687 -0.1130  0.1692 -0.2480
19516W        W39050   7.539  18.628  12.238 -0.2072  0.1300  0.0379
19517W        W39051   0.651   3.843   3.241 -0.0917 -0.1797 -0.2987
19518W        W39052  13.447  19.458  10.323 -0.2021 -0.1296  0.0522
19519W        W39053   1.134  15.169   2.639  0.0334 -0.0770  0.2003
19520W        W39054  18.229   9.928   1.702 -0.1650 -0.0427  0.4012
19521W        W39055   8.187   3.921   1.897 -0.1554  0.1007  0.1229
19522W        W39056  10.966   7.113   4.462 -0.3850 -0.1052  0.1871
19523W        W39057   0.859  15.382  11.653  0.0533  0.1756  0.0278
19524W        W39058   6.406   4.545  13.210  0.1197  0.0253 -0.0762
19525W        W39059   0.569  14.749   0.373 -0.0104  0.2108  0.0149
19526W        W39060   9.920   5.006  13.023  0.0513 -0.0309  0.2326
19527W        W39061   6.010   5.097  12.335 -0.1912 -0.0173 -0.0996
19528W        W39062  18.846   5.968  13.919  0.0294 -0.0301  0.2751
19529W        W39063  19.441   2.662  14.327 -0.2084  0.2601 -0.4006
19530W        W39064   2.293   2.990  11.121 -0.3359 -0.2769  0.2638
19531W        W39065  19.350  17.860  11.648 -0.1822 -0.0264 -0.2777
19532W        W39066  11.496   3.129   0.230  0.2703 -0.1478  0.1302
19533W        W39067   6.563   1.261  12.580  0.0996 -0.1744  0.1686
19534W        W39068   8.540  10.077   2.745 -0.4019  0.0727  0.1511
19535W        W39069   4.221   6.580   3.395  0.3907  0.1898  0.0063
19536W        W39070  18.300  10.809  11.570 -0.0477  0.0773  0.1066
19537W        W39071   3.125  10.780  14.183 -0.0161 -0.2567 -0.0250
19538W        W39072   1.328  18.958  12.147  0.0711 -0.0154  0.0087
19539W        W39073   1.158  13.713   3.935  0.1147  0.2412  0.0546
19540W        W39074   7.705   0.630  10.069 -0.1136 -0.2076 -0.0288
19541W        W39075  18.005  14.943  12.550  0.0726  0.0473  0.0020
19542W        W39076  13.128  17.685  10.596 -0.1286  0.1192  0.1442
19543W        W39077   4.288   5.712  13.852 -0.1531 -0.2640  0.0426
19544W        W39078   9.223   2.945  10.750 -0.0841 -0.0970 -0.0003
19545W        W39079   2.751  14.115   2.120  0.4559 -0.0294  0.2311
19546W        W39080  17.937   6.700   0.594 -0.1687 -0.0759 -0.0266
19547W        W39081   5.778   2.126   3.981 -0.1566 -0.0307 -0.1697
19548W        W39082   0.175  15.637   2.501  0.1930 -0.2426 -0.0549
19549W        W39083   0.040   6.461   1.854 -0.1815 -0.3963  0.0232
19550W        W39084  19.349   7.541   3.836  0.2979 -0.0488  0.3475
19551W        W39085  11.201   0.740  11.004 -0.1631  0.0318  0.1413
19552W        W39086  13.763   2.013  12.233  0.1820  0.0976 -0.0634
19553W        W39087   9.855   6.992   2.991 -0.4511  0.1630 -0.4207
19554W        W39088   8.630   9.448  13.972  0.5773 -0.0298 -0.2802
19555W        W39089   7.124  16.560  12.603  0.0035 -0.0112  0.1697
19556W        W39090  11.772  11.404   0.068 -0.3133  0.2674 -0.1165
19557W        W39091   0.963   4.624  13.566  0.0008  0.1231 -0.1113
19558W        W39092  12.762   6.145  13.467  0.4927  0.3728 -0.1773
19559W        W39093  17.383  11.666  10.716 -0.0438  0.0697  0.0137
19560W        W39094   8.201   7.394  10.020  0.3598 -0.3530 -0.2648
19561W        W39095   5.647   8.604   2.765  0.2726 -0.0194  0.3115
19562W        W39096   1.226   2.010   1.129 -0.0574  0.2240 -0.1283
19563W        W39097   1.448  10.771  11.381 -0.0315 -0.1122  0.1764
19564W        W39098  18.407  18.511  11.569  0.1151 -0.0879  0.2373
19565W        W39099  15.274  19.513   3.092 -0.2511 -0.1210  0.0076
19566W        W39100  11.144   8.394  12.784  0.1299 -0.0734 -0.1778
19567W        W39101  10.149   6.817   3.812 -0.1732 -0.4062 -0.0666
19568W        W39102  14.713  12.450   1.107 -0.1486 -0.0140 -0.3873
19569W        W39103   1.773  12.530  10.267  0.1728  0.3360  0.0291
19570W        W39104  18.218   7.846  12.518 -0.1929 -0.2462 -0.0303
19571W        W39105   1.010  15.703   4.488  0.1553 -0.2278  0.1669
19572W        W39106  11.106   1.430   2.528  0.0145  0.4952  0.2088
19573W        W39107   8.888   4.036  10.958  0.0890 -0.0954 -0.2582
19574W        W39108  10.787   3.903  12.012 -0.1543 -0.0182  0.0259
19575W        W39109  19.316   7.449   0.015 -0.0656 -0.1875  0.0489
19576W        W39110  17.682   8.700   3.353  0.0925  0.0889 -0.4470
19577W        W39111   2.760  16.532   0.262 -0.0972 -0.0613 -0.2337
19578W        W39112  10.811  17.435   0.868 -0.4828  0.4053  0.2287
19579W        W39113   5.976   2.909  12.833  0.2185  0.0854  0.0451
19580W        W39114   9.067  15.557  13.131 -0.1839  0.0532 -0.0445
19581W        W39115   4.130   1.914  11.237  0.1524  0.1390 -0.0998
19582W        W39116   6.732   7.770   3.979 -0.0878  0.2099  0.1171
19583W        W39117  10.448   2.455  11.049  0.1222 -0.2628 -0.0974
19584W        W39118   8.411   8.106  14.307  0.0946 -0.0212  0.1540
19585W        W39119  18.760   7.069  14.339 -0.4077 -0.0437 -0.0601
19586W        W39120   1.093  13.803  12.926 -0.1043 -0.0874 -0.2398
19587W        W39121  13.774   7.896  11.324 -0.0973  0.1191  0.2198
19588W        W39122   9.285  14.078   2.389 -0.4496  0.0060  0.1249
19589W        W39123   1.625   2.722   4.058 -0.0431 -0.0069  0.1600
19590W        W39124   0.472   7.909  12.486  0.0942  0.0052  0.0674
19591W        W39125   1.390   2.191   1.549 -0.2192 -0.1055 -0.2039
19592W        W39126  18.859   3.739  12.602  0.0076  0.4577  0.2365
19593W        W39127   9.026   0.325   2.297  0.0588 -0.0262 -0.0398
19594W        W39128  18.717   8.507   0.326 -0.1279 -0.0070 -0.2489
19595W        W39129  16.020  16.699  12.343  0.2803  0.3328  0.1229
19596W        W39130  15.666   4.468  11.419 -0.1883  0.1718  0.1124
19597W        W39131   2.761  15.347   0.763  0.0209  0.2967 -0.1794
19598W        W39132   5.652   8.552  10.209 -0.2811  0.2814 -0.2666
19599W        W39133  17.811   5.343   2.911 -0.0146 -0.0973  0.0156
19600W        W39134  18.482  18.080  10.591  0.0296 -0.0923 -0.1660
19601W        W39135   0.537  15.746  11.105 -0.2074 -0.0978  0.1215
19602W        W39136   5.393   6.149  10.196  0.0736  0.0186  0.0740
19603W        W39137  15.815  11.607   1.508 -0.0485  0.3447  0.0415
19604W        W39138   5.189   8.141  11.516  0.2995 -0.0879 -0.2761
19605W        W39139   9.091   8.617   4.779 -0.2525  0.2607  0.2661
19606W        W39140   1.145   6.042   4.139 -0.1085  0.1501  0.0556
19607W        W39141  10.259  19.514   0.465 -0.1282  0.2610  0.0510
19608W        W39142   6.963  15.885   3.686 -0.1684  0.4313 -0.1635
19609W        W39143   4.019   7.325   1.552 -0.1314 -0.0128 -0.0999
19610W        W39144  12.532   7.670   4.251  0.2661  0.0380 -0.2378
19611W        W39145  11.994  13.143   2.340  0.0352 -0.4516  0.1096
19612W        W39146  19.480   8.989  11.720 -0.0336  0.0810 -0.0514
19613W        W39147  11.136   5.865  11.007 -0.1700 -0.2396 -0.1337
19614W        W39148  17.103  13.087   0.736 -0.1087  0.2684  0.0004
19615W        W39149  18.932  13.027  10.988  0.1289  0.0483 -0.0778
19616W        W39150  18.007   8.984  10.920  0.1850  0.0530 -0.2697
19617W        W39151   9.931  19.502   2.922  0.2177  0.0580  0.0539
19618W        W39152   9.937  16.311  13.860  0.3437 -0.2040  0.0098
19619W        W39153   4.740  15.474   3.440 -0.1271 -0.2455 -0.0496
19620W        W39154  19.422   7.743   2.814  0.2101  0.0024  0.1263
19621W        W39155   1.792  11.220  11.489 -0.1384 -0.2563  0.4803
19622W        W39156   5.057  12.245   2.410 -0.2003 -0.1727  0.0312
19623W        W39157  10.156  15.415   3.585  0.1020  0.1949 -0.0099
19624W        W39158   9.970  10.643   2.660 -0.0439 -0.1252 -0.0300
19625W        W39159  16.585  17.524  12.106  0.0209  0.1928 -0.3644
19626W        W39160  10.299   3.424   3.250 -0.1822  0.0484 -0.0672
19627W        W39161   3.968  11.674  11.696  0.1562 -0.0354  0.2111
19628W        W39162  19.504  18.285  11.778  0.1153 -0.2010  0.0296
19629W        W39163   0.219   2.686  12.807  0.0499 -0.3826 -0.1448
19630W        W39164   5.050   0.582   2.267  0.1848 -0.0386  0.0029
19631W        W39165   9.432  12.878  11.763  0.2118  0.1162  0.1801
19632W        W39166   6.132  18.293   3.546  0.0449 -0.1445  0.5162
19633W        W39167  18.910  11.889   9.424  0.1632 -0.0497 -0.1053
19634W        W39168   1.552   5.207   1.853  0.0842 -0.1130 -0.1828
19635W        W39169  14.582   5.852  10.429  0.0423 -0.0594  0.0414
19636W        W39170   2.242   8.913   1.600  0.0802  0.3856 -0.3399
19637W        W39171   6.828  19.123   0.490 -0.2538  0.0735  0.0038
19638W        W39172  12.320   1.626   0.418  0.2823 -0.1835  0.3678
19639W        W39173   9.419  11.604  11.023 -0.0963  0.0293 -0.1209
19640W        W39174   9.101  13.363  13.456  0.1110 -0.0107 -0.0916
19641W        W39175  14.875   6.965   0.431 -0.1536 -0.1156 -0.0225
19642W        W39176   1.004  10.644  11.567  0.1829  0.0363  0.0763
19643W        W39177   5.925  14.531   0.979  0.0823 -0.0738  0.0671
19644W        W39178  18.199   8.224  12.922  0.1279 -0.2054  0.0090
19645W        W39179  10.655   2.118   3.636  0.1208  0.0576 -0.1916
19646W        W39180  19.467  14.762   3.504 -0.0004  0.2007  0.0957
19647W        W39181  10.290  19.111   0.118  0.1959  0.0998 -0.0390
19648W        W39182  18.209  10.164   0.390  0.2127 -0.1462  0.0191
19649W        W39183  18.187  12.251   2.226  0.0827  0.2623 -0.1173
19650W        W39184   8.496  14.686   3.343  0.0485  0.0051  0.4407
19651W        W39185   8.363   3.072  13.422  0.0966 -0.3181 -0.1068
19652W        W39186  16.756   3.077   3.908  0.1860  0.1734 -0.0402
19653W        W39187  11.609   6.746   1.520  0.3963  0.1057  0.2038
19654W        W39188   1.498   5.524  12.686 -0.1628 -0.1670  0.1769
19655W        W39189  17.520  14.097   2.407  0.0399 -0.1167  0.1413
19656W        W39190   8.498   1.239   2.807 -0.2341 -0.0717 -0.1058
19657W        W39191   9.298  12.667  12.750 -0.1630 -0.1197 -0.5012
19658W        W39192  16.271   2.757  11.169 -0.2939  0.0139  0.1460
19659W        W39193  19.463   7.870   0.745  0.2217 -0.1000 -0.0708
19660W        W39194  12.936  16.970  13.676  0.1247 -0.0253 -0.3192
19661W        W39195   5.230   5.962  14.172  0.1200 -0.1251  0.1895
19662W        W39196   1.726  18.703   3.332  0.0954  0.0936  0.0110
19663W        W39197   9.075  14.237   2.815  0.1007 -0.1204 -0.0743
19664W        W39198  17.774   9.642   1.659 -0.0443 -0.1881 -0.1053
19665W        W39199   4.661   2.056   3.070  0.2784 -0.2079 -0.1883
19666W        W39200   0.690   4.212   3.579  0.1329 -0.1535 -0.1757
19667W        W39201  10.659   0.587   0.683  0.1114  0.0837  0.1440
19668W        W39202  10.700  17.968   2.739  0.1919 -0.4344  0.1668
19669W        W39203   7.840  13.465   0.446  0.0396  0.2226  0.1662
19670W        W39204  17.240   8.623  11.626  0.0618 -0.0259 -0.1364
19671W        W39205  12.876  12.031  13.706 -0.1235  0.4641 -0.0070
19672W        W39206   8.825   6.525   0.106 -0.0307 -0.1032 -0.0870
19673W        W39207   1.180  11.352  12.268 -0.0627  0.0155  0.0926
19674W        W39208  18.019  13.157   0.926  0.1685 -0.1559  0.1325
19675W        W39209  16.176  19.013   3.713  0.0623  0.2378  0.2579
19676W        W39210  18.791   5.450   0.786 -0.0884 -0.3125 -0.1659
19677W        W39211   2.647  11.542  12.549 -0.0499  0.1028  0.5123
19678W        W39212  16.829  10.613   2.536  0.3329  0.0464 -0.0262
19679W        W39213   2.575  11.005  13.250 -0.0259 -0.2287 -0.2001
19680W        W39214  14.582  16.705   3.570  0.1450  0.0086  0.2036
19681W        W39215  10.565  12.796   1.587 -0.3269 -0.1203  0.2118
19682W        W39216   8.705  17.324  10.796 -0.2790  0.4274  0.2767
19683W        W39217  10.663   0.010  12.503  0.0584  0.0071  0.2803
19684W        W39218   2.513   1.067   4.079  0.0104 -0.1909  0.4842
19685W        W39219   9.140   3.015   3.177  0.0085 -0.1831  0.1751
19686W        W39220  12.467  15.431  13.965  0.0716  0.0853 -0.1091
19687W        W39221  17.225   0.280  11.346  0.4158 -0.0816 -0.1118
19688W        W39222   8.314   7.024  10.485  0.3079 -0.0315 -0.5959
19689W        W39223   5.059   6.955  12.155  0.0233 -0.0506 -0.0170
19690W        W39224   1.914   0.694  11.309 -0.0361 -0.1467 -0.2050
19691W        W39225   6.529  18.607   4.368  0.0909 -0.3416 -0.0042
19692W        W39226   3.892  18.539   0.809 -0.0760 -0.0442  0.0068
19693W        W39227   8.024   3.897  12.399 -0.1616  0.1186  0.0269
19694W        W39228  13.854  12.060   0.842  0.0375 -0.3356 -0.2219
19695W        W39229   3.008   2.876   1.203  0.0410  0.0039 -0.0438
19696W        W39230   1.181  11.818   2.275 -0.3231  0.0656  0.1776
19697W        W39231   1.398   6.719   3.657 -0.2038  0.0773  0.0876
19698W        W39232  12.515   6.211  12.084  0.2575  0.0555 -0.2038
19699W        W39233  18.737   1.753   2.354 -0.2449 -0.0882  0.0407
19700W        W39234  12.297  19.227  11.069 -0.2683 -0.2590  0.0512
19701W        W39235   0.823   9.890  13.081  0.2069  0.0187 -0.3956
19702W        W39236   8.181  18.676   1.215  0.1000  0.2536  0.0284
19703W        W39237  15.372  13.526   3.206  0.0751  0.0956  0.1309
19704W        W39238  17.314   7.402  10.831  0.2938  0.0785 -0.1292
19705W        W39239  18.560  14.853  11.693 -0.3332  0.0200  0.0019
19706W        W39240   6.905   4.427  13.587  0.0378 -0.1896 -0.1091
19707W        W39241  16.247  16.354  10.869 -0.3260  0.0292  0.2623
19708W        W39242  17.907  16.720   3.626  0.2137  0.0302 -0.1449
19709W        W39243  16.410   8.473  12.594  0.4445 -0.2122 -0.1396
19710W        W39244   4.776  15.707   0.222  0.0678  0.0141 -0.2952
19711W        W39245  13.887   3.107   4.588 -0.0204  0.1586  0.0463
19712W        W39246   3.844   3.163  14.285 -0.0800 -0.0932 -0.0064
19713W        W39247  17.375   7.636  13.383  0.0235  0.0410  0.2248
19714W        W39248   3.372   5.506   3.935  0.0116 -0.2777 -0.4629
19715W        W39249   4.753  12.145  11.208 -0.2240 -0.0240 -0.1984
19716W        W39250   4.478  14.888  11.039 -0.2495 -0.2673 -0.0153
19717W        W39251  10.687   6.327  10.429  0.2203  0.0567 -0.0063
19718W        W39252  13.119   0.886   1.994 -0.0952  0.0265 -0.1318
19719W        W39253  12.076  10.252  12.330  0.2014 -0.2610  0.3771
19720W        W39254  12.869  11.279  12.843  0.1390  0.0226  0.3152
19721W        W39255  17.243   4.829  14.328 -0.0883 -0.3197 -0.1404
19722W        W39256  11.222  11.255  11.065  0.0351 -0.0271  0.1685
19723W        W39257   1.339   8.343   0.182 -0.0800 -0.1064  0.1422
19724W        W39258  18.538   0.861   2.141  0.2333 -0.1938 -0.0734
19725W        W39259  19.122   2.599   1.625  0.0078  0.1846 -0.0094
19726W        W39260   4.757   6.249   2.588  0.2746 -0.0383  0.1066
19727W        W39261   2.677  12.593   3.755 -0.0903 -0.1006 -0.1055
19728W        W39262   5.720   3.939  13.015 -0.0274 -0.0393  0.0490
19729W        W39263   2.807   7.616  11.145  0.2054 -0.0626 -0.4524
19730W        W39264  19.225  11.442   4.046  0.1253 -0.0121 -0.2627
19731W        W39265   6.510   3.662   0.216  0.1033  0.0584 -0.1243
19732W        W39266   3.844  18.259   2.540  0.5220  0.1069 -0.1439
19733W        W39267   2.346   0.376   1.312  0.3729  0.0958 -0.1366
19734W        W39268  10.825   6.300  13.688 -0.1985 -0.2190 -0.2303
19735W        W39269   8.935  10.184   3.661 -0.0825 -0.1135 -0.1627
19736W        W39270   7.146   5.014   5.208  0.0571 -0.0270 -0.0773
19737W        W39271   6.056  11.265   4.167  0.2722  0.2479  0.1661
19738W        W39272  12.853  13.577   0.498 -0.1850 -0.0461 -0.0012
19739W        W39273   9.334  15.109   1.034  0.0581 -0.2258  0.0566
19740W        W39274   5.515  18.278   0.646  0.1139  0.2434 -0.1172
19741W        W39275   2.466   7.276  10.880  0.4129 -0.1049  0.1430
19742W        W39276  15.243   2.603   2.980  0.4557 -0.2031  0.1699
19743W        W39277   0.463  13.097   1.037 -0.0322  0.2637  0.0202
19744W        W39278   6.377   8.476  13.336 -0.0212 -0.1509  0.1322
19745W        W39279   1.987  14.820   1.368  0.3284 -0.0478  0.0522
19746W        W39280  17.913   1.879   1.271  0.0078  0.1628  0.3335
19747W        W39281  18.535  10.922   2.463  0.3875  0.1580 -0.0665
19748W        W39282   3.397   3.331   0.033  0.0816 -0.3837  0.0195
19749W        W39283  13.763  18.303  11.759 -0.0846 -0.0860  0.0496
19750W        W39284   4.693   0.943  11.896 -0.0995  0.0016  0.1069
19751W        W39285  10.558   1.719  12.204 -0.1309  0.0246  0.3672
19752W        W39286  13.621  10.228   1.865  0.0694  0.3021  0.3256
19753W        W39287   0.474   2.788   3.344  0.0905 -0.0355  0.0298
19754W        W39288  13.387   5.333  13.462  0.1914 -0.1177  0.1169
19755W        W39289  16.516   1.910  11.634 -0.4253  0.0678 -0.2791
19756W        W39290  19.296  17.989  12.123 -0.0469  0.1383 -0.0402
19757W        W39291   1.603  11.989  11.576  0.2166  0.2270  0.1209
19758W        W39292  16.873   1.883  14.062 -0.3139 -0.0225  0.0097
19759W        W39293  11.850  15.722   3.679  0.1696 -0.1572  0.1974
19760W        W39294   1.391   0.953   3.829 -0.1827  0.1089  0.0208
19761W        W39295  10.768   2.561   3.196  0.2123  0.0274 -0.0942
19762W        W39296   5.398  13.273  11.796  0.1018  0.0392  0.0718
19763W        W39297  10.047   9.338   2.296  0.0629  0.1516 -0.1553
19764W        W39298  17.937  18.076  10.590 -0.4921  0.1432 -0.1516
19765W        W39299   0.475   3.589   2.406 -0.1482 -0.1881  0.2501
19766W        W39300   5.756  16.791   2.565  0.0131 -0.2167 -0.0078
19767W        W39301  11.451  18.789   3.830  0.4007  0.2255  0.1740
19768W        W39302  10.110  10.017  11.450 -0.0604 -0.2187  0.0830
19769W        W39303   1.603   3.804   2.398  0.2365 -0.1810  0.6910
19770W        W39304   0.355   2.007   0.600 -0.0541  0.1353  0.1468
19771W        W39305   2.065  10.848  11.819  0.0372  0.4193 -0.0113
19772W        W39306  14.630   0.610   3.202 -0.0206 -0.1736  0.0025
19773W        W39307  13.702  19.309   2.654 -0.2680  0.1223 -0.1003
19774W        W39308   3.983  10.156   0.546  0.0206 -0.0952 -0.2922
19775W        W39309  15.480   0.947  10.166  0.0851 -0.0121 -0.0754
19776W        W39310  18.989   4.145   3.198  0.2731 -0.1722 -0.0347
19777W        W39311  16.107  15.555  13.780 -0.1411 -0.0238  0.2871
19778W        W39312   7.766   4.708   1.693  0.0785  0.1193  0.1118
19779W        W39313  13.047   2.996   2.135  0.0835 -0.0778 -0.4031
19780W        W39314  18.453   9.287   3.002 -0.0052 -0.1781  0.0649
19781W        W39315  10.756  16.651  12.193  0.0657  0.0441 -0.1145
19782W        W39316  11.549  14.681   4.835  0.0480  0.1051  0.0403
19783W        W39317   7.029   3.474  12.395  0.0533 -0.3323 -0.3404
19784W        W39318  12.620  16.918   1.087  0.0589 -0.2297  0.1097
19785W        W39319  16.793   5.333   3.604  0.0113 -0.3999  0.0685
19786W        W39320  19.439  14.476  10.435  0.1056  0.1294 -0.6048
19787W        W39321  17.691  13.709   2.023 -0.1137 -0.2566 -0.1185
19788W        W39322  17.151  18.734  12.623 -0.1327  0.0804  0.2639
19789W        W39323  12.224   9.747   9.722  0.2025  0.0636  0.1446
19790W        W39324   8.555  19.110   2.233  0.1434  0.0007  0.3195
19791W        W39325   5.049  17.548  13.476 -0.0567 -0.1007  0.2631
19792W        W39326   4.249   8.968  12.964 -0.0911  0.0669  0.4915
19793W        W39327   9.677   0.720  12.814  0.2170  0.2274  0.1515
19794W        W39328  12.041   1.787   1.878  0.2994  0.1095 -0.0522
19795W        W39329   5.334   7.420   2.842  0.0957 -0.0552  0.1356
19796W        W39330   5.565  13.011   1.920  0.0978 -0.0306 -0.0671
19797W        W39331  14.342   2.125   2.923  0.0678  0.0203 -0.2448
19798W        W39332   3.885  17.997   1.634 -0.1156 -0.2166  0.0879
19799W        W39333  13.629   8.919   2.324  0.0548 -0.2274  0.1834
19800W        W39334  12.356   2.199   2.991  0.0569  0.1956  0.3802
19801W        W39335  13.297  16.319   3.466  0.0739 -0.0948 -0.0499
19802W        W39336  13.354  16.840   1.624  0.3208 -0.0424 -0.2065
19803W        W39337  18.338  13.257  13.124 -0.3535  0.1413  0.0866
19804W        W39338   3.329   0.689  12.773  0.0535  0.0279  0.0348
19805W        W39339   4.882   2.700   0.425 -0.1276 -0.1084 -0.1509
19806W        W39340   1.636   7.341  12.455  0.0547 -0.4695 -0.0460
19807W        W39341  10.622   4.946  14.056 -0.3003  0.0473  0.1309
19808W        W39342  17.044  14.309   2.137  0.2847 -0.1042 -0.2681
19809W        W39343   0.867  12.863   0.749  0.2756  0.1843  0.3385
19810W        W39344  10.431   7.819   0.338  0.2609  0.0906  0.1544
19811W        W39345   1.888   7.995  11.351 -0.2218 -0.0294 -0.1845
19812W        W39346   1.042  15.831   3.741  0.1077 -0.0360  0.1939
19813W        W39347  15.565  18.016   3.067 -0.3736 -0.0246 -0.1665
19814W        W39348   9.941  19.177   3.531 -0.2057  0.0586  0.1406
19815W        W39349   2.235   7.316   2.195  0.2316  0.0928  0.1666
19816W        W39350   6.625  10.967  10.389  0.1932  0.0958 -0.1133
19817W        W39351   5.968  14.381   2.607  0.0514  0.1617  0.0390
19818W        W39352   1.988  15.271  13.110 -0.1491  0.0399  0.0021
19819W        W39353  11.557  16.348  13.105 -0.1037 -0.2680  0.2100
19820W        W39354  17.757  11.708  13.537  0.1400  0.1169 -0.3394
19821W        W39355   8.990   2.537   2.538  0.2146 -0.0978 -0.0810
19822W        W39356  18.504  18.661   3.765  0.3133  0.1604  0.0045
19823W        W39357   1.224  11.131   0.143 -0.1282  0.0479  0.0632
19824W        W39358  15.228  17.860   0.551  0.1016 -0.0307  0.2111
19825W        W39359  16.058   0.633  13.849  0.1782 -0.1443  0.0589
19826W        W39360   0.107  11.621   0.643 -0.2821 -0.0941 -0.1226
19827W        W39361  17.810  11.162  13.757 -0.3360  0.0460  0.3540
19828W        W39362  15.847  13.014  10.965 -0.1087 -0.1556 -0.2718
19829W        W39363   6.533  14.731   0.108  0.3464 -0.4610 -0.0172
19830W        W39364   1.466   4.602  11.626 -0.0380  0.0754 -0.1800
19831W        W39365   3.009  13.724   1.549 -0.0555 -0.0141 -0.3365
19832W        W39366  16.061  13.559  13.092  0.1454 -0.3516 -0.1247
19833W        W39367   2.894   0.631   2.680 -0.4419  0.1660 -0.1838
19834W        W39368  18.930   7.509  12.443  0.2439 -0.0009 -0.2611
19835W        W39369  10.393  11.574  12.282 -0.1796 -0.0495  0.0141
19836W        W39370   6.055   0.263  13.245  0.2711  0.1989 -0.1014
19837W        W39371   1.972  13.777  14.138  0.4204  0.0370 -0.0907
19838W        W39372  18.205   8.893   2.661 -0.3472  0.1587  0.1112
19839W        W39373  15.676   8.140  14.107 -0.2478 -0.1541  0.1135
19840W        W39374  19.137  17.981   0.450  0.0146  0.2260  0.1181
19841W        W39375  14.900   9.123  11.618 -0.2307 -0.1110 -0.0957
19842W        W39376   9.145   4.067   1.575  0.3152 -0.0490 -0.0922
19843W        W39377   3.171  13.842  11.949 -0.0905 -0.0465 -0.1354
19844W        W39378  17.040   5.880  13.796  0.0261 -0.0827  0.0140
19845W        W39379   3.080  10.715  10.777 -0.0222 -0.0743 -0.0602
19846W        W39380   5.575   5.994  11.820  0.0060 -0.0088  0.1294
19847W        W39381   6.610   8.269  10.138 -0.1835  0.1567  0.0649
19848W        W39382   6.742   1.948   3.656 -0.0674  0.0036  0.1220
19849W        W39383   9.606   2.936   1.847  0.2014 -0.2430 -0.2415
19850W        W39384  13.707  13.139   9.942  0.1310 -0.3163 -0.0061
19851W        W39385  17.534   1.789   1.612  0.2418  0.0026 -0.3682
19852W        W39386  18.213  13.725   9.071  0.0269  0.1950  0.0764
19853W        W39387   8.226  13.110  13.146  0.2480 -0.0247  0.1223
19854W        W39388   6.559  14.277   0.681 -0.1041 -0.1500  0.0683
19855W        W39389   8.614  11.175   4.101  0.0125 -0.1847 -0.2394
19856W        W39390   1.310  12.701  13.827 -0.3506  0.0028 -0.2321
19857W        W39391  10.023   3.823   2.012  0.0939  0.2581  0.0583
19858W        W39392   4.593  16.340   2.245 -0.0563  0.1327  0.1655
19859W        W39393  13.149  12.883   2.856  0.2124  0.0708 -0.1819
19860W        W39394  12.276  17.437  11.104 -0.1561 -0.0835 -0.1500
19861W        W39395  10.676  10.164   4.517 -0.1025  0.0334 -0.0451
19862W        W39396   2.555  13.498  13.634 -0.2309  0.0802  0.3349
19863W        W39397   9.127   4.117   3.454 -0.3568 -0.0391 -0.0446
19864W        W39398   7.071   8.603  11.565  0.3791 -0.2465  0.2002
19865W        W39399   0.659  13.170  10.426 -0.1603 -0.2332  0.2134
19866W        W39400   3.621   1.039  10.919 -0.1139 -0.0769 -0.0662
19867W        W39401  11.058  17.960   4.775 -0.2788 -0.1355  0.1394
19868W        W39402  16.479  17.622  13.660 -0.3567  0.0653 -0.0100
19869W        W39403   7.003   0.858  14.297  0.0106 -0.1507  0.1033
19870W        W39404  16.084  14.829  12.921  0.1248  0.1344  0.1768
19871W        W39405  13.109  13.959   1.867 -0.2296 -0.3668 -0.3483
19872W        W39406  17.669   5.252   3.816 -0.1055 -0.0357 -0.2566
19873W        W39407  13.592  13.934  14.120  0.0685  0.3882  0.4245
19874W        W39408   0.920   4.810  11.015 -0.1548  0.3740  0.1332
19875W        W39409   2.109   7.659  13.219 -0.0746  0.2994  0.0278
19876W        W39410   2.538  19.192   3.202  0.3273 -0.5317  0.1427
19877W        W39411   8.542  13.442  10.082  0.0168  0.3072 -0.2049
19878W        W39412  16.456   3.949  12.688  0.0259 -0.1076 -0.0625
19879W        W39413  15.606  10.445  11.205 -0.1604 -0.1877 -0.1804
19880W        W39414  18.704   3.622   3.037 -0.1601  0.2216  0.0048
19881W        W39415  10.138  14.208   0.907 -0.0735 -0.0206  0.4031
19882W        W39416   4.760   9.885   1.722 -0.0275 -0.1461  0.1745
19883W        W39417   3.450  14.505  13.022  0.1510  0.4304 -0.3805
19884W        W39418   1.150   3.230   2.102  0.4310 -0.2287  0.3465
19885W        W39419  13.161   1.394   3.147  0.3463  0.1289  0.2972
19886W        W39420  13.549  13.504   9.660 -0.3296  0.5006 -0.2060
19887W        W39421   7.835  10.094   2.002 -0.1159 -0.2396 -0.1967
19888W        W39422   6.661  11.425  12.334  0.2173  0.2432 -0.0312
19889W        W39423  12.445   3.603  10.325 -0.3090 -0.1977  0.2005
19890W        W39424  12.621  10.970  12.441 -0.0497 -0.0258 -0.1176
19891W        W39425   5.215  18.515   0.255  0.0940 -0.1084  0.0175
19892W        W39426  13.937  12.383   1.696 -0.0290 -0.0277  0.0731
19893W        W39427   4.984  15.479  14.143  0.0065  0.2887 -0.2735
19894W        W39428   3.990   9.372   1.811  0.1198 -0.0835  0.0038
19895W        W39429   8.579   9.551  12.291  0.0196 -0.3748  0.0524
19896W        W39430   6.376   2.477  11.098  0.1521  0.2635  0.1836
19897W        W39431  19.130   3.554  14.212 -0.0570 -0.2414 -0.0364
19898W        W39432   2.470   7.533  14.151  0.2614  0.0944  0.0485
19899W        W39433  18.453   7.913  13.843  0.1181 -0.2162 -0.3793
19900W        W39434   2.335   6.141  12.447 -0.0429  0.1960 -0.0470
19901W        W39435  12.151  11.655   2.869 -0.1626 -0.0931 -0.0628
19902W        W39436  17.280  15.045   2.492 -0.1666 -0.0434 -0.1382
19903W        W39437   8.763  12.126   1.910  0.2013  0.4591  0.0363
19904W        W39438  11.778   4.623  10.874 -0.0129  0.0047  0.1440
19905W        W39439   6.297   3.251  11.042  0.1399  0.1432  0.1200
19906W        W39440   8.916   5.645   0.274 -0.7366 -0.1921 -0.3300
19907W        W39441  11.153   9.254   3.046 -0.0742  0.1650  0.2219
19908W        W39442   7.904  11.837  10.563 -0.1340 -0.0236 -0.0324
19909W        W39443   9.261  19.513  13.542  0.1948  0.0934  0.1326
19910W        W39444   0.034   6.021  11.707 -0.1158 -0.1146 -0.1754
19911W        W39445   6.885  12.411  12.755 -0.5083  0.2267 -0.0370
19912W        W39446   6.461  12.494  13.065 -0.1013 -0.1803 -0.0914
19913W        W39447  17.941   4.835   2.510 -0.1013  0.0057  0.2373
19914W        W39448   9.158   7.574  13.987  0.0732  0.0067  0.0798
19915W        W39449  18.494   0.820   1.624  0.0135  0.0793  0.0288
19916W        W39450  14.145   2.017  14.345  0.1578  0.0252  0.0400
19917W        W39451   7.582   4.770  11.921 -0.0978 -0.1556 -0.1686
19918W        W39452  10.290  14.066   0.322 -0.2282  0.2399 -0.3394
19919W        W39453  10.136   7.691   1.198  0.3269 -0.2041 -0.0535
19920W        W39454  17.769  18.072  10.145  0.3177  0.1486  0.0775
19921W        W39455  15.812   7.425  13.740  0.1914  0.0012 -0.0413
19922W        W39456  16.397   4.319   9.469 -0.0112  0.0333 -0.2317
19923W        W39457  19.484   5.613   2.905  0.0785 -0.1499 -0.1023
19924W        W39458   0.437   6.702  13.585 -0.1167 -0.0233  0.1294
19925W        W39459   4.194   6.290   2.728 -0.0836 -0.0955 -0.1757
19926W        W39460  10.749  15.739   8.972 -0.3875  0.0859  0.4811
19927W        W39461  14.457   3.972  10.232 -0.1526 -0.2173  0.0816
19928W        W39462  18.534  18.937   1.248  0.1376 -0.0303  0.1931
19929W        W39463  16.358  10.548   2.379  0.0397  0.0662 -0.3301
19930W        W39464  16.975   6.603  13.392 -0.1595 -0.1733  0.1075
19931W        W39465   9.216  16.370  13.823 -0.0670 -0.1023 -0.2217
19932W        W39466   8.238   6.547   2.338 -0.0927 -0.0917  0.1393
19933W        W39467   3.132   7.073   9.714 -0.1921  0.2164 -0.0291
19934W        W39468  16.848   8.192   1.300 -0.0307 -0.6770  0.0993
19935W        W39469  11.439  18.538  13.108  0.0069  0.1139 -0.0562
19936W        W39470  16.251   6.168   1.851 -0.2605  0.3850  0.0871
19937W        W39471  10.363  18.149  11.405 -0.2263 -0.0991 -0.1195
19938W        W39472  19.281  15.614  12.248  0.3274  0.0057  0.0932
19939W        W39473   7.014  14.816   3.195  0.2848  0.2492 -0.1837
19940W        W39474  11.978   5.502  13.190  0.1550  0.1309 -0.2120
19941W        W39475   7.641   6.307  10.271  0.2707 -0.1247  0.0715
19942W        W39476   1.979  18.751  11.320 -0.1227  0.1955 -0.0112
19943W        W39477   8.650   0.819   3.187 -0.1769 -0.0460 -0.2263
19944W        W39478  11.559  17.740  11.602 -0.3391  0.1654  0.0132
19945W        W39479   2.119   5.384  12.816 -0.1240  0.0951 -0.1947
19946W        W39480   2.491   6.382   4.332  0.0631 -0.0019 -0.0113
19947W        W39481   1.771  16.119  10.070  0.2203  0.1905  0.0120
19948W        W39482   3.944   5.598   4.044 -0.1651  0.0475  0.1013
19949W        W39483   5.483   4.988  12.291 -0.2099  0.4530  0.2212
19950W        W39484   3.068   2.777   2.105  0.1356  0.4447 -0.1942
19951W        W39485   8.544   2.017   2.015  0.2089 -0.0349 -0.2805
19952W        W39486  14.845   4.560   3.812  0.3187  0.0593  0.1484
19953W        W39487  15.044  10.371  14.278  0.0550  0.1168 -0.1933
19954W        W39488   1.793   4.537   5.205  0.1461 -0.6342  0.0274
19955W        W39489   7.568   1.205   4.454  0.1292 -0.0476  0.0486
19956W        W39490  11.536  14.522  12.985  0.1116  0.1241 -0.1257
19957W        W39491  14.053   7.577   2.829  0.0745  0.0523  0.2463
19958W        W39492  16.270   6.834  13.763  0.0440  0.1030  0.1859
19959W        W39493  16.676   0.114   3.195 -0.1495 -0.0206  0.4469
19960W        W39494   3.280   3.504   3.140  0.1441  0.3413 -0.0899
19961W        W39495   8.018   2.214  12.424 -0.1790  0.3164 -0.0107
19962W        W39496  13.113   3.486  11.545 -0.2108  0.1310  0.1447
19963W        W39497  11.999  13.780   0.795  0.0599 -0.2545 -0.0408
19964W        W39498  19.196  13.470   2.919  0.1969  0.2799 -0.1932
19965W        W39499   7.988  15.779  12.063  0.0966 -0.1090  0.1806
19966W        W39500   8.154   1.098   0.715 -0.0560  0.1693  0.0663
19967W        W39501   2.677   8.795  13.497  0.1285  0.0356  0.2076
19968W        W39502   8.393   6.856   2.733  0.1026  0.0817 -0.0478
19969W        W39503  11.080   5.047  12.194 -0.2118 -0.0857 -0.1668
19970W        W39504  16.743   1.785   0.558 -0.2521  0.1238 -0.2390
19971W        W39505   0.733  15.374   3.502  0.1463  0.3054 -0.4175
19972W        W39506   5.322  19.355   1.540  0.1532  0.2260 -0.4021
19973W        W39507   2.759   4.130   0.869  0.1056  0.0288 -0.2030
19974W        W39508  10.766  16.723   3.423  0.4410  0.1952  0.0096
19975W        W39509  16.441   5.619   3.851  0.0978  0.0620 -0.0402
19976W        W39510  19.448   4.026  14.071 -0.2476  0.0516  0.3150
19977W        W39511  19.009  18.717   3.695 -0.3027 -0.0027 -0.0805
19978W        W39512  15.763  12.640   2.865  0.1531  0.2205 -0.0541
19979W        W39513  16.436   0.753   3.886  0.0160  0.2883  0.0567
19980W        W39514  18.232  13.307  10.416 -0.1160 -0.0212 -0.0906
19981W        W39515  18.720   8.619  14.215  0.1153 -0.0021  0.0215
19982W        W39516   2.330  13.802  13.228 -0.0343 -0.3184  0.2326
19983W        W39517  11.750  17.446  12.446  0.4478  0.0189  0.0691
19984W        W39518   7.858   0.389  12.950  0.2600 -0.1699  0.0151
19985W        W39519   6.052   8.731   4.059 -0.0395 -0.0837 -0.2299
19986W        W39520   4.900  15.709   3.848 -0.2484 -0.2103 -0.1201
19987W        W39521   3.138  16.527   1.593 -0.0920  0.0052 -0.3143
19988W        W39522   5.789  15.443  12.288  0.0921  0.1669 -0.2182
19989W        W39523   1.841  15.546  14.278  0.2520  0.0578  0.1555
19990W        W39524  18.898   6.343   2.703  0.0446 -0.0684 -0.0572
19991W        W39525   0.952   3.740  12.126  0.0643  0.1068 -0.3316
19992W        W39526  14.711   1.285  13.842 -0.1036  0.0406 -0.1646
19993W        W39527  12.999   1.395   1.778 -0.4389  0.1479  0.3223
19994W        W39528   4.345  10.373  12.723  0.0630  0.0289 -0.0653
19995W        W39529  10.593  11.927  13.329 -0.0666 -0.1880  0.0889
19996W        W39530   7.601  18.672  13.202 -0.0329  0.0603 -0.0186
19997W        W39531   0.620   3.846   0.332  0.2742  0.0720  0.1569
19998W        W39532   0.683   4.429  12.194 -0.3093 -0.0425  0.4830
19999W        W39533   0.257   7.464  11.147  0.2617 -0.2495  0.1411
20000W        W39534  17.152  16.996  10.888 -0.2172 -0.0934  0.5148
20001W        W39535  19.222   4.233   2.434 -0.1730  0.0301  0.4840
20002W        W39536   7.667   2.540  14.070 -0.2581  0.2090 -0.0757
20003W        W39537  19.203  17.078  11.990  0.0671  0.0727  0.0714
20004W        W39538   9.133   7.631   2.119 -0.0553 -0.1046 -0.0582
20005W        W39539   0.441   1.960  13.473  0.1044 -0.2617  0.1524
20006W        W39540  15.296  14.413   2.326  0.0498 -0.0590 -0.0517
20007W        W39541   8.133   1.691  12.589  0.0640  0.2620 -0.0690
20008W        W39542   0.795  16.474   1.127  0.1687 -0.1753 -0.0919
20009W        W39543   5.421  10.463  12.314 -0.2290 -0.1590 -0.3305
20010W        W39544  16.818   2.242   9.494 -0.0913  0.0437  0.1245
20011W        W39545   3.994   1.859  12.050 -0.0134 -0.0719 -0.1216
20012W        W39546  16.454  12.588  10.415  0.1249  0.0708 -0.2065
20013W        W39547   6.971  14.151   9.926  0.4029 -0.0527  0.1718
20014W        W39548  16.681  10.404   0.974  0.0923 -0.0154 -0.0736
20015W        W39549  14.787  19.209   0.309  0.1940  0.0522 -0.3281
20016W        W39550  16.041  18.267   0.974 -0.2895  0.0447  0.2197
20017W        W39551   7.071  18.627  13.918 -0.3248  0.3332 -0.0568
20018W        W39552  16.951   9.921   1.766  0.3301 -0.4051  0.1018
20019W        W39553  10.014   4.516   0.562  0.0227 -0.2277  0.2178
20020W        W39554   7.559  13.747   1.243 -0.2140 -0.1159  0.0463
20021W        W39555   3.153   5.005   3.293  0.0650 -0.2930 -0.0023
20022W        W39556  16.391   7.462  11.258 -0.0829 -0.0589  0.1382
20023W        W39557  10.317  17.251   3.298  0.1041 -0.1773  0.2070
20024W        W39558  13.460   6.669  13.135 -0.1012 -0.0119 -0.4714
20025W        W39559   1.191  16.358  12.958 -0.0282  0.3487  0.2374
20026W        W39560  10.593  11.313  13.917  0.0431  0.3449 -0.0027
20027W        W39561  10.627  15.265  13.655 -0.0266  0.7078  0.3204
20028W        W39562   1.460  15.901  12.070  0.0584 -0.0109 -0.1693
20029W        W39563   2.828   2.623  14.327 -0.2306  0.1276  0.0769
20030W        W39564  12.095   6.995   3.697  0.0843  0.4710  0.5044
20031W        W39565   7.411  19.020   3.231 -0.2175  0.1944 -0.1764
20032W        W39566   2.507   2.547   1.340 -0.0957  0.2976  0.2806
20033W        W39567  12.743   9.441   4.508 -0.3731 -0.1149 -0.0729
20034W        W39568  10.298  10.754   4.076  0.1820 -0.0928 -0.2210
20035W        W39569  14.786  17.100  10.133  0.2177 -0.5036  0.0483
20036W        W39570  15.091  15.104  11.124  0.6011 -0.1697 -0.2859
20037W        W39571   9.756  12.505  14.189  0.2762 -0.1248  0.0426
20038W        W39572  10.640  19.093  12.314 -0.2280  0.0685 -0.3656
20039W        W39573  12.708   9.495   3.661  0.0374 -0.0153  0.0258
20040W        W39574  14.058   1.277   0.844 -0.2549  0.0990  0.1380
20041W        W39575   1.082   6.491  10.557 -0.0409 -0.1492 -0.3583
20042W        W39576   5.706  13.722  14.168 -0.2366  0.2776  0.1874
20043W        W39577   4.297  12.121   2.761 -0.0708 -0.4782  0.1577
20044W        W39578   2.163   4.941   4.150 -0.2918  0.2233 -0.0303
20045W        W39579   0.859   8.754   2.476  0.0667  0.0716 -0.1637
20046W        W39580  13.929  18.097   3.218  0.0911 -0.0423  0.3156
20047W        W39581   2.070  11.097   3.875 -0.0051  0.0169 -0.0113
20048W        W39582   3.529  17.219   0.445  0.0198  0.1872 -0.0135
20049W        W39583   0.908   9.181  11.560 -0.2112 -0.1921 -0.4541
20050W        W39584   7.932   8.509   3.040  0.1021  0.1374  0.2408
20051W        W39585   4.174  10.940   1.513 -0.0258  0.0047  0.1659
20052W        W39586   9.273  15.449  13.836  0.1762  0.4191  0.1204
20053W        W39587  18.450   4.166  10.644 -0.1105 -0.2301 -0.0646
20054W        W39588  12.107   8.708   3.517 -0.0995 -0.0472 -0.2700
20055W        W39589  14.371   0.913   4.530 -0.2829 -0.2946  0.0334
20056W        W39590   4.496   6.174   1.016  0.2376  0.0608  0.2366
20057W        W39591  15.538  13.059  12.559 -0.1395 -0.1540 -0.2909
20058W        W39592   6.906   9.338   1.549 -0.1320  0.0362 -0.2789
20059W        W39593   3.442  13.446   1.502  0.0845  0.1139  0.2535
20060W        W39594   6.635  16.701  11.354  0.0799  0.1623 -0.1179
20061W        W39595   1.431  17.338   3.392  0.0134  0.1546 -0.1363
20062W        W39596   5.909   2.060   2.690 -0.0461 -0.2371 -0.3621
20063W        W39597   4.904   6.725   0.793 -0.0194 -0.1977  0.1161
20064W        W39598  15.726   8.060   1.993  0.2017 -0.2470  0.7373
20065W        W39599  19.274   4.079  10.743  0.0006 -0.2064 -0.0833
20066W        W39600  16.950   4.712  12.426 -0.1773  0.1783  0.0682
20067W        W39601  13.504  11.495  12.267  0.0190  0.0012 -0.0621
20068W        W39602   9.206   9.399   0.042  0.0082 -0.1150 -0.0926
20069W        W39603   8.515  12.469   4.054  0.1898  0.0949 -0.2316
20070W        W39604   2.024  16.033  14.189 -0.0556 -0.1163  0.1195
20071W        W39605   0.311  18.331   2.043 -0.1611 -0.0887  0.5465
20072W        W39606  17.047   3.457   3.916  0.2108  0.0009 -0.1348
20073W        W39607   3.944  15.828   3.704  0.0464  0.1929  0.0802
20074W        W39608   5.112   4.466   0.975 -0.2289 -0.1424  0.0206
20075W        W39609  10.543  11.385  11.799  0.1673 -0.0162  0.1156
20076W        W39610   2.662  18.652   2.950 -0.0172 -0.3645  0.0084
20077W        W39611   9.236  14.955  12.917 -0.4451  0.0366  0.1928
20078W        W39612  14.836  11.151   0.195  0.0373 -0.1462  0.0115
20079W        W39613   3.116   2.116   2.335  0.0594  0.0766  0.0716
20080W        W39614  11.869  12.366   3.229  0.0113  0.2279 -0.3040
20081W        W39615  18.419  12.095  12.933  0.1136 -0.0651 -0.2164
20082W        W39616   2.522  13.296  10.784  0.3286 -0.0665 -0.0538
20083W        W39617  16.504  14.637  11.185 -0.1743 -0.0665  0.0337
20084W        W39618   5.819   9.668   4.076 -0.0466 -0.5628  0.0520
20085W        W39619  12.179  12.692  13.984  0.1093 -0.0450  0.1787
20086W        W39620   9.671   6.962  11.004 -0.0933  0.0734 -0.4038
20087W        W39621  15.930  17.545  11.310  0.3466 -0.3420  0.0255
20088W        W39622   1.705   3.089  14.290 -0.0732  0.2012 -0.0064
20089W        W39623   3.966  19.166   0.417 -0.0740  0.4768  0.0206
20090W        W39624  19.250  15.467  11.740 -0.2853  0.2821 -0.1031
20091W        W39625  11.343   1.562   0.193 -0.0220  0.1433 -0.1657
20092W        W39626   2.465   4.468   0.143  0.2587 -0.1351  0.1235
20093W        W39627   8.611   4.778   0.840 -0.0088 -0.0163 -0.1274
20094W        W39628  14.748   2.809  12.073 -0.2989 -0.3973 -0.0689
20095W        W39629   9.129   7.144   4.746  0.1883  0.0021 -0.1145
20096W        W39630  16.721  14.298   0.742  0.2854 -0.2775 -0.0067
20097W        W39631  17.768   7.435  11.051  0.1739 -0.0425 -0.3392
20098W        W39632   4.614  16.191   3.543  0.1818 -0.0739  0.2184
20099W        W39633   7.978   5.421  10.888 -0.2105 -0.4054 -0.0983
20100W        W39634  11.073   3.186   1.033 -0.4282 -0.1915  0.0913
20101W        W39635   5.809  10.108   1.681 -0.1732 -0.1881  0.1290
20102W        W39636  12.400  14.771   2.740 -0.0596  0.1982 -0.5091
20103W        W39637  10.000   8.438   2.640 -0.1456 -0.2346  0.1828
20104W        W39638   0.905   2.600  11.609 -0.0895 -0.3537 -0.0249
20105W        W39639   9.222   2.356  10.545  0.3452 -0.1730 -0.1037
20106W        W39640  13.003  14.507   2.086  0.0874 -0.2355 -0.2417
20107W        W39641   9.889  15.415  10.677  0.0739 -0.0253  0.0573
20108W        W39642   5.470  10.769   0.165  0.1817 -0.2521 -0.3383
20109W        W39643   9.208  13.256   0.370  0.2431  0.2223  0.5319
20110W        W39644  19.510  13.115  13.598  0.0081 -0.2487  0.1188
20111W        W39645  10.366   8.139  11.142  0.2683  0.0298  0.0010
20112W        W39646   6.124   6.740   3.018 -0.1785 -0.1415  0.0009
20113W        W39647   7.721   4.704  10.950 -0.1293  0.1658  0.0481
20114W        W39648  12.733   4.242   1.868 -0.0888  0.2100 -0.0985
20115W        W39649  17.465  12.179   9.997  0.1151  0.2228  0.0150
20116W        W39650   9.058  18.261   3.753 -0.2682 -0.1104  0.1084
20117W        W39651  16.712  19.017   2.452 -0.3020  0.0633 -0.0486
20118W        W39652   7.560   6.232   3.817 -0.0790 -0.1612 -0.0358
20119W        W39653   3.853   8.883   1.779  0.2604  0.2935 -0.2357
20120W        W39654  18.968   9.945  10.996  0.0485  0.1665 -0.0674
20121W        W39655   3.131  18.501  13.391 -0.2380  0.0237  0.2081
20122W        W39656  15.133  18.884   2.098  0.2673  0.3160 -0.1681
20123W        W39657   5.950  14.598  13.113 -0.0330 -0.1988 -0.1122
20124W        W39658   8.212  18.543   9.784  0.3478  0.2713  0.0486
20125W        W39659  11.631   2.726   2.204  0.0978 -0.3340 -0.4066
20126W        W39660   5.436   3.178   2.453  0.0053 -0.0909  0.2917
20127W        W39661  18.402  16.442  11.700  0.1890  0.1818  0.2036
20128W        W39662  10.469   3.364  10.899 -0.2806 -0.4393 -0.0598
20129W        W39663   2.377   4.900  10.527  0.0688 -0.2337 -0.1318
20130W        W39664  10.062  17.818   1.005 -0.1136 -0.1330  0.1941
20131W        W39665  16.459  19.468   3.613 -0.0747  0.1466  0.0389
20132W        W39666  16.891   4.426  11.514  0.2097  0.1475 -0.1088
20133W        W39667   1.216   0.874   2.931 -0.0954 -0.1371 -0.1601
20134W        W39668  11.310   3.441  14.195 -0.0423  0.0364 -0.0019
20135W        W39669   2.939  18.954   3.596 -0.0129  0.1027 -0.1135
20136W        W39670   4.019  16.273   4.016  0.1979 -0.0557 -0.0758
20137W        W39671  18.731  13.671  11.398 -0.1602  0.0363 -0.0666
20138W        W39672   5.945  11.471  11.587  0.2826 -0.0291  0.2106
20139W        W39673  18.217  19.471  14.090  0.1236  0.3661  0.0591
20140W        W39674   6.879  18.932  11.846  0.0059  0.5518 -0.1536
20141W        W39675  18.319   7.964   2.080 -0.1064  0.2644  0.3533
20142W        W39676  17.636  16.100   0.290  0.0678 -0.2399  0.1316
20143W        W39677   9.487   1.322  11.375  0.1010 -0.0823 -0.0016
20144W        W39678   4.865  16.620   3.525  0.2448 -0.2233  0.1017
20145W        W39679   8.815   4.072  10.424  0.0613 -0.4444 -0.0439
20146W        W39680   2.073   3.526  11.728  0.0867  0.2249  0.0457
20147W        W39681   1.118   7.381  13.044 -0.0381  0.1128 -0.1854
20148W        W39682  18.362  11.968   0.496 -0.4044  0.3584 -0.0799
20149W        W39683  17.300  13.790   1.138 -0.2387 -0.2013 -0.2834
20150W        W39684  10.677  18.882   3.852 -0.2897 -0.0082  0.2548
20151W        W39685  10.732  17.835   2.245 -0.0489  0.0401  0.1474
20152W        W39686   1.570   9.677   0.686 -0.1960  0.4114  0.2071
20153W        W39687   9.452  19.348  13.074 -0.2284  0.1038  0.3005
20154W        W39688   7.612  17.823  13.182 -0.2106 -0.5201 -0.0538
20155W        W39689  16.865   2.267   0.736 -0.0393  0.0119 -0.2419
20156W        W39690   5.532   8.208  14.099 -0.2005 -0.3694 -0.0593
20157W        W39691   2.241  17.577  12.928  0.0212  0.1395 -0.0650
20158W        W39692   9.274  11.878  14.256 -0.0103 -0.0557 -0.0695
20159W        W39693  14.198  16.481   0.406 -0.0450  0.3614  0.1343
20160W        W39694  11.049  18.490  10.775 -0.2121  0.1542  0.1884
20161W        W39695   1.955  18.012   1.068 -0.2846 -0.1147  0.3182
20162W        W39696   6.938   3.302   2.241 -0.2165 -0.1004  0.1133
20163W        W39697   4.286  11.918   0.488  0.2047 -0.2601  0.2822
20164W        W39698   5.936  13.421  11.644 -0.2836  0.4579  0.1504
20165W        W39699   8.721   9.576   1.966 -0.2307 -0.1831  0.5639
20166W        W39700  17.625   7.450   9.287  0.0178  0.0742 -0.0109
20167W        W39701   5.547   5.422   0.950 -0.0896 -0.2580 -0.0198
20168W        W39702  18.766  12.039  10.491  0.0426  0.1091  0.2157
20169W        W39703  17.766  12.394  10.386  0.1531 -0.1020 -0.0289
20170W        W39704  17.759   3.734  10.031  0.3236  0.1107 -0.2042
20171W        W39705  16.720   6.717   2.650 -0.1764 -0.2802  0.2656
20172W        W39706  15.614   1.330  14.218  0.1926 -0.1972  0.1145
20173W        W39707   1.025   4.597  11.875 -0.0087 -0.0741  0.0421
20174W        W39708   4.539  10.994  14.249  0.0417  0.0351 -0.0198
20175W        W39709   3.815  11.153   3.985 -0.1575 -0.0204  0.3250
20176W        W39710  10.749   7.664   3.865  0.2424  0.3279 -0.0130
20177W        W39711   8.002   4.103   0.929 -0.0949 -0.0445 -0.2579
20178W        W39712   5.447  16.832   1.148  0.0937 -0.1937  0.0184
20179W        W39713  10.619   9.345  10.581  0.0816 -0.0973 -0.0528
20180W        W39714   2.480  15.455  12.947  0.0950  0.2234  0.1441
20181W        W39715  12.914  14.667   0.283  0.1060  0.2096 -0.0624
20182W        W39716  17.685   3.341   4.875 -0.2666 -0.3245 -0.0136
20183W        W39717  12.800  18.681   0.624 -0.1588 -0.1716  0.3708
20184W        W39718   4.638   2.760   4.012 -0.0714 -0.1369  0.0139
20185W        W39719  16.575  11.341   0.725  0.0759  0.2218 -0.0741
20186W        W39720  14.333  13.641  10.249 -0.0527 -0.1310 -0.3445
20187W        W39721  16.143   7.791  12.833  0.1300  0.0548  0.0547
20188W        W39722   8.948  18.887   2.277 -0.0945  0.2417  0.3326
20189W        W39723   1.503  13.300   2.620 -0.2966 -0.2420 -0.2829
20190W        W39724  10.125   0.583   1.389  0.0004 -0.1679  0.0849
20191W        W39725   4.319  15.598  13.466  0.1105 -0.0562  0.1886
20192W        W39726   5.237   0.451  10.298  0.1790  0.1094  0.3542
20193W        W39727  17.156  10.189   2.605  0.1505 -0.2132 -0.0624
20194W        W39728  12.371  10.146  11.047 -0.3331  0.1905  0.2412
20195W        W39729   6.507  17.194  13.932  0.0399 -0.3852 -0.0903
20196W        W39730  19.071  15.042   2.707  0.0602  0.1516 -0.1972
20197W        W39731   3.882   1.561  12.910 -0.3039 -0.1078  0.1404
20198W        W39732  13.350  13.896   3.588 -0.0897  0.4717  0.1348
20199W        W39733  12.318  10.272  10.484  0.0180  0.0543 -0.0701
20200W        W39734   3.837  11.185   2.263  0.3305 -0.0534 -0.0331
20201W        W39735   9.101  11.800   9.761 -0.0020 -0.0550  0.1230
20202W        W39736  12.674  11.873   0.445 -0.1423  0.0289  0.0898
20203W        W39737   1.346  11.438  14.082 -0.0243  0.2384 -0.1445
20204W        W39738   8.155  19.479   1.347 -0.0312  0.1467 -0.2311
20205W        W39739  11.022  16.422  12.736  0.1783 -0.2303  0.1298
20206W        W39740  17.967  13.739  12.447  0.0165  0.2862  0.0646
20207W        W39741   1.509  15.796   3.320 -0.1707 -0.1122 -0.2212
20208W        W39742   5.651   1.413   2.264  0.2240  0.0507 -0.3068
20209W        W39743  16.717  15.435   1.578 -0.2951 -0.2313  0.3855
20210W        W39744   8.164   7.023   2.257  0.1332 -0.1303  0.2986
20211W        W39745   8.741  11.107  10.885 -0.1193  0.2325  0.0116
20212W        W39746  13.277   6.274   2.233  0.2491  0.1278  0.2862
20213W        W39747  12.820   0.600  12.895 -0.0621 -0.2279  0.0548
20214W        W39748   3.726  12.144   1.489 -0.1252 -0.1117  0.0370
20215W        W39749   4.732   4.337   2.300 -0.2508  0.0257 -0.1727
20216W        W39750  12.854   5.647  11.358  0.0349 -0.0591 -0.0850
20217W        W39751   7.788  10.845   3.482  0.1624  0.3137  0.2701
20218W        W39752   3.355   7.478   0.333  0.0310  0.1385  0.2138
20219W        W39753   9.136  14.047   0.743  0.2549 -0.0618 -0.1780
20220W        W39754   6.622  14.781   1.607 -0.1181 -0.1134 -0.2544
20221W        W39755   8.106   0.039  10.958 -0.1202 -0.0614 -0.1096
20222W        W39756  13.315   8.440   1.575 -0.0212 -0.2054  0.1070
20223W        W39757  13.186   7.604  13.001 -0.0293 -0.1572  0.1518
20224W        W39758  14.432  11.178   2.438  0.1636  0.0265  0.2122
20225W        W39759  11.659   9.079  11.243 -0.3054  0.1191  0.0472
20226W        W39760   1.816   1.859  12.394  0.1469 -0.0806 -0.0132
20227W        W39761  12.450  12.376   3.150 -0.2541 -0.3398 -0.1286
20228W        W39762  15.481   8.521   0.054 -0.2097  0.2137 -0.1350
20229W        W39763   9.395   1.167   2.092 -0.1374 -0.0941 -0.0925
20230W        W39764   4.187   0.023   0.570  0.2388 -0.2346 -0.0004
20231W        W39765   7.705   2.695  10.181  0.1879  0.1879 -0.3132
20232W        W39766   9.147  15.133   3.419 -0.0089  0.0960  0.0455
20233W        W39767   1.028   9.943   1.522  0.0821  0.1295  0.1306
20234W        W39768   1.276  16.088  10.190  0.0714 -0.4386  0.0655
20235W        W39769  12.117  16.458   0.226 -0.1114  0.0785 -0.0529
20236W        W39770   2.046   8.299  12.057 -0.1611  0.0466  0.0888
20237W        W39771   8.472   6.971   1.374  0.0463 -0.2329 -0.0021
20238W        W39772  17.691   1.311   1.436  0.0547 -0.2298  0.2554
20239W        W39773   0.570  15.134   0.871 -0.0127 -0.1576 -0.0080
20240W        W39774   2.654   6.139   2.871 -0.4181 -0.0651  0.0592
20241W        W39775  13.478   0.795  13.541 -0.4329 -0.1096 -0.0750
20242W        W39776  11.717   9.337  14.012 -0.0035  0.0323  0.2976
20243W        W39777  15.586   5.072  12.792  0.0897 -0.1129 -0.0351
20244W        W39778   7.943  16.692  11.083  0.0422  0.3796  0.0808
20245W        W39779   2.927   2.384  13.773 -0.0483  0.0604  0.1080
20246W        W39780   0.270  11.887  11.624 -0.2579  0.2492  0.1752
20247W        W39781  16.249   3.608  12.399 -0.2284  0.1518  0.0042
20248W        W39782   8.853  13.873  10.303 -0.1274  0.0071 -0.1475
20249W        W39783   7.216   2.860  13.758  0.0281  0.2574 -0.0061
20250W        W39784  15.787   8.434   1.632 -0.1515 -0.1014  0.0211
20251W        W39785  14.848   8.205   0.914  0.0631  0.2727 -0.1117
20252W        W39786   6.102   4.860  12.791 -0.0815 -0.0092 -0.0260
20253W        W39787  13.783   1.631   0.561 -0.1616  0.0465  0.1371
20254W        W39788   8.164  16.845   3.323 -0.0485 -0.0338  0.1347
20255W        W39789   9.754  12.109   2.761  0.1546 -0.0634 -0.3600
20256W        W39790   4.032   3.787   1.576 -0.3394  0.0693  0.4128
20257W        W39791   4.674  17.283  11.404  0.0993  0.0183  0.1708
20258W        W39792   6.734   9.257  10.831 -0.0234  0.2378 -0.1165
20259W        W39793   9.138   0.756   2.027 -0.0286 -0.0741  0.1195
20260W        W39794  16.800  15.594  11.291 -0.2430 -0.0621 -0.1029
20261W        W39795   8.315   7.128  14.113 -0.1446  0.4247 -0.2373
20262W        W39796  14.859   4.493   3.327 -0.1845  0.1058  0.1438
20263W        W39797  19.468  12.832  14.107 -0.0467 -0.0803  0.1484
20264W        W39798   6.453   0.933   0.673  0.1654  0.1403 -0.0688
20265W        W39799  13.220   9.767  12.002 -0.2589 -0.1063 -0.1229
20266W        W39800   1.730  13.988  11.571 -0.0163  0.0340  0.1319
20267W        W39801  18.234   3.782   2.112 -0.2421 -0.3158  0.1008
20268W        W39802  18.698   5.789   0.447  0.0075 -0.0424 -0.1788
20269W        W39803   1.659  18.818  11.782 -0.0720 -0.1183  0.0689
20270W        W39804   2.437   5.864   0.474  0.1736 -0.0576  0.4154
20271W        W39805   0.386  16.233   4.106 -0.1268 -0.1665  0.1402
20272W        W39806  12.585  14.235   2.937 -0.0473  0.0411  0.2930
20273W        W39807  13.313   9.431  10.806 -0.1053 -0.0871  0.3191
20274W        W39808   2.683   3.296  11.004 -0.0080  0.0620 -0.0420
20275W        W39809   5.060   9.458  13.419  0.1530 -0.2478 -0.3674
20276W        W39810   3.950   8.327   3.744 -0.0340 -0.2531 -0.0003
20277W        W39811   9.707  10.765   3.325 -0.0832  0.1047 -0.1149
20278W        W39812   3.535  16.337   1.335  0.2634  0.0439 -0.0967
20279W        W39813  18.006  13.119  11.704 -0.4496 -0.2830 -0.1642
20280W        W39814  14.561   0.625  12.946 -0.0730  0.1484  0.0867
20281W        W39815   5.095   0.724   1.324  0.1018  0.2898  0.2841
20282W        W39816   1.969   9.050   3.629  0.0518 -0.0624  0.2685
20283W        W39817   9.121  12.424  11.861 -0.3758  0.2942 -0.1075
20284W        W39818   2.678   9.072  11.934  0.0331 -0.2896  0.3500
20285W        W39819   9.268  13.769  11.280  0.2844  0.0001 -0.1072
20286W        W39820   6.953   5.320  13.201 -0.0861 -0.2634  0.1940
20287W        W39821  13.306  11.757   3.509  0.0233  0.3470  0.0705
20288W        W39822   9.850   5.916   3.574  0.0676 -0.0378  0.2650
20289W        W39823  10.481   4.717   0.632  0.2342 -0.0646 -0.2006
20290W        W39824   9.365  16.289  12.824 -0.3204  0.0797  0.0530
20291W        W39825   9.064   7.239  10.344 -0.1768 -0.4231  0.2089
20292W        W39826  12.082  17.047  12.107  0.0201  0.0516 -0.0889
20293W        W39827  16.660   5.144  12.437  0.2963 -0.1486  0.0621
20294W        W39828   1.566  11.096   0.969 -0.1845  0.1867  0.0920
20295W        W39829  16.239   3.259   3.876 -0.1774 -0.1059  0.2018
20296W        W39830  15.522   7.051  12.666 -0.0619 -0.4363 -0.2088
20297W        W39831   2.356  11.075  11.050 -0.3190 -0.2276 -0.1646
20298W        W39832   6.440   4.446  10.567  0.2031 -0.3439  0.2486
20299W        W39833   8.419   3.405   3.415  0.0775  0.3140  0.0030
20300W        W39834   5.172   9.673   2.812  0.2721 -0.2080 -0.2612
20301W        W39835   8.117   4.894  10.694  0.1516 -0.3803  0.0807
20302W        W39836   7.641   8.613   4.331 -0.0319 -0.0265 -0.1880
20303W        W39837   3.100  11.962  10.202  0.2188 -0.3881  0.1312
20304W        W39838  11.053   0.859   0.510  0.0216 -0.2450 -0.1317
20305W        W39839   7.139   6.537  10.329 -0.2300  0.0040  0.0265
20306W        W39840   1.705  13.608   0.636  0.0151 -0.0698  0.1699
20307W        W39841  13.292  10.609  12.581 -0.1444  0.2321 -0.1590
20308W        W39842  11.436   6.153   2.332  0.2355 -0.1649 -0.1837
20309W        W39843  10.906   1.148  13.169 -0.0201  0.4166  0.0009
20310W        W39844   0.522  17.069   2.978 -0.2675 -0.2160  0.0051
20311W        W39845   1.994   5.810  12.599  0.4209 -0.0573 -0.2213
20312W        W39846   3.801   5.690  11.945 -0.2695 -0.0048  0.0295
20313W        W39847   7.759   9.628   2.780 -0.0010  0.0628  0.1965
20314W        W39848   0.973  11.264   3.613 -0.0401 -0.2231  0.2404
20315W        W39849   3.693  18.330   2.020 -0.0327  0.1748 -0.1325
20316W        W39850  18.118  17.654  10.843  0.0831  0.0682  0.0075
20317W        W39851   7.432  16.459  11.638 -0.1048  0.0854  0.3081
20318W        W39852   0.206   8.871   0.710  0.1949 -0.2420  0.1397
20319W        W39853  13.583  10.542   0.891 -0.0145  0.2314  0.1572
20320W        W39854   7.659  12.930   0.370  0.0652 -0.0027 -0.1073
20321W        W39855   1.137  17.370  11.688  0.0875 -0.1059 -0.2268
20322W        W39856   2.104   4.315   2.463 -0.0712  0.1711  0.1334
20323W        W39857   3.718   3.438   0.456 -0.1372 -0.1483  0.0374
20324W        W39858   4.889  16.828   3.993 -0.1557  0.1087  0.0449
20325W        W39859   7.764   7.421  10.777 -0.3181  0.4203  0.3939
20326W        W39860   8.296  19.101  10.994 -0.1097 -0.3204  0.3748
20327W        W39861   5.810  17.181   0.431  0.0592 -0.2338  0.2097
20328W        W39862  10.965   4.507  12.219  0.1275  0.0261 -0.0533
20329W        W39863   5.132  17.298   4.078  0.1005  0.0252  0.0618
20330W        W39864   6.028   5.615   0.983  0.0693  0.1691  0.1557
20331W        W39865  14.616  10.725  12.282 -0.1548  0.0909  0.1091
20332W        W39866   6.875  13.878   0.539 -0.0790  0.1635  0.2308
20333W        W39867   3.981   9.001   4.574 -0.0994 -0.1268  0.4399
20334W        W39868  11.404  15.192   4.662 -0.1466 -0.3834 -0.0816
20335W        W39869   8.221   3.405  10.580 -0.0028  0.1980  0.0869
20336W        W39870  12.858   2.229   2.825  0.0185  0.1360 -0.0428
20337W        W39871  16.285  16.391   2.822  0.0571 -0.1083  0.2087
20338W        W39872  17.253   4.126   2.529 -0.0621 -0.0975  0.4124
20339W        W39873  13.679   9.678   1.854  0.0968 -0.2144 -0.0012
20340W        W39874   7.504  10.411   3.013 -0.1210  0.1937 -0.1728
20341W        W39875   7.389  18.171   4.576  0.3492  0.0663  0.0302
20342W        W39876  15.581  14.338  12.535 -0.2790  0.0659 -0.1269
20343W        W39877  15.051   7.992   2.045 -0.0615  0.1149  0.0925
20344W        W39878   3.163  18.850   1.212  0.2008 -0.0246  0.0327
20345W        W39879   8.237   6.516   4.181 -0.0178  0.0852  0.2870
20346W        W39880  11.670   7.108  13.951  0.1706 -0.0570  0.1972
20347W        W39881  11.381   7.170   1.611  0.0623  0.0301  0.1727
20348W        W39882   0.912   8.617  12.255 -0.0792 -0.0347  0.3217
20349W        W39883   2.450  11.790  12.092  0.1750 -0.0195  0.0124
20350W        W39884  11.069   0.617   5.197  0.1162 -0.0865  0.2607
20351W        W39885   0.179   3.642   3.303 -0.1846 -0.1641 -0.1539
20352W        W39886   9.193  19.340  11.716  0.0006  0.0688  0.3320
20353W        W39887   1.058  18.929  13.909  0.2744  0.1774  0.1251
20354W        W39888  11.901   9.960   2.350 -0.0177 -0.0399 -0.0053
20355W        W39889   4.692   3.661   3.850  0.0764  0.0015  0.2005
20356W        W39890  17.938  19.130   1.416  0.0545 -0.1423  0.1233
20357W        W39891  10.874   0.415  10.940  0.2860 -0.0658  0.1527
20358W        W39892   0.885  10.309   0.966 -0.2341  0.1100  0.2482
20359W        W39893   6.517   2.802  10.734 -0.1404  0.1082  0.2270
20360W        W39894  18.696   5.711  13.095  0.0817  0.1321 -0.0903
20361W        W39895  13.791   2.895   3.495  0.3572 -0.1994 -0.0257
20362W        W39896   7.435  12.040  11.939 -0.2497  0.0003  0.2817
20363W        W39897  18.798   6.520  12.053  0.0330 -0.1888 -0.0183
20364W        W39898   7.088   3.615  12.926 -0.2294  0.1641 -0.0933
20365W        W39899   3.799   0.942   3.823 -0.0437 -0.1000  0.0183
20366W        W39900   3.672   6.496   0.637  0.2656  0.0447 -0.1934
20367W        W39901   1.637   4.877   1.492 -0.0240 -0.3806 -0.4839
20368W        W39902  13.574  15.247  11.114 -0.1363 -0.1205  0.1227
20369W        W39903   4.649   6.849   3.339  0.1151  0.1068 -0.1321
20370W        W39904  16.879  10.021  11.062 -0.3545  0.0805 -0.0455
20371W        W39905   5.807  15.121   3.749 -0.4745 -0.2141 -0.0578
20372W        W39906  18.891  11.689   1.836  0.0523  0.3906 -0.0279
20373W        W39907  11.776  12.883   2.002  0.0947  0.0183  0.0569
20374W        W39908  16.822  13.943  10.191  0.2860 -0.0653 -0.3009
20375W        W39909  10.610   7.615   2.123  0.0386 -0.0145  0.1047
20376W        W39910  18.647   5.849   1.381  0.2175 -0.0278 -0.1365
20377W        W39911  12.351   9.587   2.221  0.2909 -0.1368 -0.2718
20378W        W39912  16.090   4.166   2.765 -0.2511 -0.0160  0.1176
20379W        W39913  14.783  19.314   3.726  0.1422 -0.1299  0.1915
20380W        W39914   7.863  10.517  13.445  0.0508  0.0124 -0.0973
20381W        W39915   8.035  19.114   0.986 -0.0563  0.1541  0.1227
20382W        W39916   2.095   1.502   3.908  0.0611 -0.2623  0.0699
20383W        W39917  18.464   1.886   4.085  0.2780  0.1228  0.0917
20384W        W39918   3.367   2.448  12.720 -0.4136  0.0359  0.1139
20385W        W39919   8.353  16.478  11.291 -0.0669  0.1001 -0.1502
20386W        W39920  15.430  10.010   4.061  0.0537 -0.2102  0.1892
20387W        W39921   0.007  14.798   2.903 -0.1047 -0.3324  0.1318
20388W        W39922  13.174   7.901   1.597 -0.0286  0.1839  0.0701
20389W        W39923  18.619   1.588   3.667  0.2363 -0.1356 -0.3002
20390W        W39924   5.527  11.539  12.448 -0.5037  0.2939  0.0042
20391W        W39925   5.299  11.772  12.052 -0.0192  0.1187 -0.1831
20392W        W39926   3.756   0.460   2.909 -0.2496 -0.0834  0.1262
20393W        W39927  11.035   4.220  11.741 -0.2528 -0.1836 -0.1570
20394W        W39928   6.374  11.583  11.875 -0.1935 -0.0401 -0.3699
20395W        W39929  17.413  13.439   3.879  0.1175 -0.0939 -0.3734
20396W        W39930   8.709   0.711  13.938 -0.0924  0.2645  0.0440
20397W        W39931  16.911   4.410  10.983 -0.2358 -0.2367  0.0933
20398W        W39932   1.775   0.033   2.195 -0.2011 -0.0574 -0.1691
20399W        W39933  19.271  14.944   0.079  0.3746  0.2045 -0.1178
20400W        W39934   6.634   4.333   0.250  0.2970 -0.0545 -0.1341
20401W        W39935  15.852   9.177   2.766  0.0492  0.0292 -0.0263
20402W        W39936   8.722   3.484  11.908 -0.0455 -0.1377  0.1323
20403W        W39937  15.701  15.806   3.027  0.1715  0.0967 -0.1502
20404W        W39938  15.731  19.019   3.507  0.0075 -0.0287 -0.1130
20405W        W39939   9.006   1.107  13.932 -0.1929 -0.0512 -0.1169
20406W        W39940  10.505  11.703  10.948 -0.1306  0.1588 -0.2399
20407W        W39941   5.118   5.293   3.647  0.0401 -0.0456 -0.0870
20408W        W39942   5.115   7.915   0.064  0.2207 -0.1164 -0.2299
20409W        W39943   4.165  15.306   3.469  0.1935  0.0571  0.0059
20410W        W39944   9.243  13.069   2.086  0.1622  0.0860 -0.2151
20411W        W39945   8.323   5.411   3.961  0.0623  0.0779 -0.0672
20412W        W39946   3.948  11.565  12.632  0.2632 -0.1360  0.0696
20413W        W39947  14.282  14.670   1.964 -0.2078  0.0996 -0.0769
20414W        W39948  12.671  15.669   1.037  0.0389  0.3708 -0.0245
20415W        W39949   5.415  17.983  10.991  0.2345 -0.1693 -0.1951
20416W        W39950   2.706  15.806   0.984 -0.0104  0.0411 -0.3217
20417W        W39951   5.940   8.784  11.639  0.0333 -0.2443  0.0427
20418W        W39952  18.673  17.371   2.573  0.1568 -0.0569 -0.0680
20419W        W39953  11.245  11.155   2.980 -0.0449  0.1212 -0.0638
20420W        W39954   1.020  14.614   4.610 -0.0445  0.0821 -0.0411
20421W        W39955  11.120   3.802  13.394 -0.0024 -0.2709  0.0454
20422W        W39956   5.623   6.795   4.991  0.0865  0.0985 -0.0234
20423W        W39957   2.874  17.191  10.669  0.1892 -0.0274 -0.1211
20424W        W39958   6.309   8.917  13.855 -0.2444  0.1678  0.1688
20425W        W39959  15.863  17.473  12.049 -0.0314 -0.4124 -0.1007
20426W        W39960   7.313  15.816   1.243 -0.2095  0.1754  0.1551
20427W        W39961   5.550  14.360   5.111 -0.0505 -0.2182  0.1596
20428W        W39962   5.381   4.030  12.070  0.0929  0.2278  0.0711
20429W        W39963   6.089   1.113  13.446 -0.1119 -0.0407  0.0410
20430W        W39964  18.738  16.873   2.456 -0.1991  0.0225 -0.1813
20431W        W39965   7.193  11.022  11.516  0.2424 -0.2645 -0.0831
20432W        W39966   4.671  14.947   2.266 -0.1832 -0.1969 -0.3457
20433W        W39967   9.325  14.843   1.545 -0.1806  0.1312 -0.0970
20434W        W39968   2.872   8.990   2.571 -0.0757 -0.4753  0.2353
20435W        W39969   5.865   8.514   0.005  0.0855 -0.1009 -0.3801
20436W        W39970   1.194   9.856   1.055  0.2507 -0.2958  0.0605
20437W        W39971   0.975   5.002   3.581  0.1368 -0.0276  0.1254
20438W        W39972   0.584   3.087   2.114 -0.0219 -0.2183  0.1809
20439W        W39973   1.890  18.699  13.698 -0.3592 -0.0770  0.3340
20440W        W39974   8.617   3.338  11.446  0.5479 -0.0286 -0.1556
20441W        W39975   1.271  18.895   3.621  0.1718 -0.0768  0.0309
20442W        W39976   8.552   2.756  11.509  0.0703 -0.0752  0.1247
20443W        W39977  10.665  18.017   0.998  0.0728 -0.0041 -0.0517
20444W        W39978  11.553  14.412   0.345  0.1360  0.0158 -0.3200
20445W        W39979   3.972   5.092   0.142 -0.0537  0.1830  0.2418
20446W        W39980   0.621   0.002   0.611 -0.2432  0.1116 -0.3121
20447W        W39981   6.182  16.430   3.839  0.0359  0.2201  0.1557
20448W        W39982  12.620  11.112  11.402 -0.0838 -0.2488 -0.0922
20449W        W39983  12.231   9.174   2.794  0.0131  0.1721  0.0199
20450W        W39984   6.991  10.167   2.862 -0.0006 -0.2311 -0.2632
20451W        W39985  16.934   0.528   3.123  0.0940  0.1894  0.0521
20452W        W39986  10.748   3.149   2.413 -0.0695 -0.1593 -0.1205
20453W        W39987   9.155   5.731  12.069  0.3238 -0.1264 -0.0630
20454W        W39988   6.375  14.626   2.794  0.1075 -0.2730 -0.4015
20455W        W39989   2.260   3.187   3.198  0.1822  0.2681  0.3742
20456W        W39990  18.170  18.425   1.945 -0.2383  0.2669 -0.0064
20457W        W39991   7.559   4.482  10.527  0.2899  0.2122 -0.0425
20458W        W39992  12.989   4.980  10.220  0.0970  0.1978 -0.1599
20459W        W39993   8.181   8.053  13.868 -0.3619  0.0816 -0.1525
20460W        W39994   0.056   3.971  12.248 -0.1817  0.1281 -0.0541
20461W        W39995  17.990  15.648   3.592 -0.2356  0.1464  0.1971
20462W        W39996   3.569  17.826  14.189  0.1515  0.2380 -0.0272
20463W        W39997   4.022  13.470   4.004 -0.1044  0.0127 -0.0436
20464W        W39998   1.706  17.963  10.365 -0.1347 -0.2895  0.2077
20465W        W39999   3.560   4.787  12.943  0.1689 -0.1988  0.0047
20466W        W40000   0.717   0.770   0.924  0.1687 -0.1909 -0.2467
20467W        W40001   3.764   6.045   2.723  0.0662  0.1444 -0.0393
20468W        W40002  11.731   1.695   3.712 -0.2009  0.3419 -0.0767
20469W        W40003  11.101  19.073  12.048 -0.0876 -0.1605 -0.1058
20470W        W40004  19.239  19.013   1.996 -0.2988  0.2295  0.0743
20471W        W40005  11.994  19.424  13.539  0.2964  0.1967 -0.1283
20472W        W40006  10.106   0.379  13.386  0.0822  0.1405  0.0991
20473W        W40007  16.143   4.586  11.271  0.0962 -0.1035  0.1764
20474W        W40008   6.594   8.618   4.610  0.0356  0.1001 -0.0906
20475W        W40009  12.837   5.160   3.917  0.2527 -0.0947 -0.3355
20476W        W40010   2.457   0.697  12.676 -0.2926 -0.1246 -0.0036
20477W        W40011  16.017   0.839  10.756  0.3027  0.1475 -0.1114
20478W        W40012   8.287   7.140   3.187  0.0856 -0.0146  0.0425
20479W        W40013   6.424   5.870   1.678 -0.0580  0.2010 -0.2725
20480W        W40014   2.031   2.169  12.752  0.4791 -0.3124  0.2302
20481W        W40015   3.987   4.590  13.143  0.0588  0.0858 -0.2998
20482W        W40016   4.030   9.525  11.577  0.0168  0.0833  0.0053
20483W        W40017  16.817   8.639   1.537  0.1180  0.0545 -0.1189
20484W        W40018  14.739   5.646   0.443  0.0350 -0.1226  0.0899
20485W        W40019  17.809  17.850  11.794  0.0157  0.2339 -0.2688
20486W        W40020  10.925  14.543  14.284 -0.2068  0.0272  0.0361
20487W        W40021  14.590   9.459   3.014 -0.0359  0.3586  0.1517
20488W        W40022   4.306  13.063  12.242  0.0760  0.2336  0.1996
20489W        W40023   3.650  18.439   3.222  0.0857 -0.1666  0.0310
20490W        W40024  12.386  13.080  14.222  0.1956 -0.1173 -0.0261
20491W        W40025   3.188   4.747   4.721  0.0962  0.1299  0.1704
20492W        W40026   6.048  12.108   2.732  0.2273  0.2628 -0.1661
20493W        W40027  11.431   9.373   4.909 -0.2742  0.5042  0.1482
20494W        W40028   5.009   9.344   4.058  0.1343  0.1705  0.0910
20495W        W40029  12.221   1.868  11.420  0.0093 -0.0862  0.0203
20496W        W40030   0.211  12.033   2.642 -0.2295 -0.0732 -0.1888
20497W        W40031  19.200   0.658   1.087 -0.0425 -0.1772  0.1460
20498W        W40032  12.800   3.121   3.221  0.0776 -0.1812  0.1671
20499W        W40033   1.444  17.019  11.070 -0.2395  0.1045  0.0042
20500W        W40034   5.712   4.703  12.600 -0.0963  0.3533  0.0226
20501W        W40035  17.015   2.512   3.167  0.1199  0.0199  0.1302
20502W        W40036  12.849  17.116  10.052  0.0195  0.1166 -0.0248
20503W        W40037  13.638  14.467  14.124  0.0197 -0.2026  0.1635
20504W        W40038  11.730  13.424  10.590  0.1123  0.6363  0.1151
20505W        W40039   8.193  19.402   4.138 -0.0707  0.1505 -0.0433
20506W        W40040  15.268   1.288  12.712  0.1034 -0.0059 -0.0500
20507W        W40041  10.337   3.733  10.240  0.2045  0.0927 -0.4325
20508W        W40042   6.446   4.916  12.197  0.2126  0.0430  0.2998
20509W        W40043   9.527   3.770  11.601 -0.0994  0.2185  0.3558
20510W        W40044   6.278  12.346  10.362 -0.1033  0.0101 -0.0663
20511W        W40045  18.295   6.428   4.469 -0.1041  0.1371  0.0701
20512W        W40046   9.127  10.627  13.467 -0.5946  0.2831  0.2429
20513W        W40047   0.272  16.965  10.944 -0.0130  0.2067  0.0888
20514W        W40048  17.231   8.459  10.650  0.0691  0.2202  0.2017
20515W        W40049  15.772  10.491  13.323 -0.1208  0.2030 -0.0120
20516W        W40050   7.304  10.767   3.314  0.2788  0.2597  0.1733
20517W        W40051   8.777   2.135  10.808 -0.1773 -0.1285 -0.0314
20518W        W40052   5.439  12.210   1.979  0.1757 -0.1452  0.0997
20519W        W40053  16.225   4.163   5.058 -0.1968  0.5679  0.4838
20520W        W40054  11.394   8.530  13.631 -0.3515  0.2113  0.1720
20521W        W40055   5.320   9.762  11.078  0.4291 -0.0739 -0.0927
20522W        W40056  10.838   6.786   2.686 -0.0611 -0.2917 -0.1031
20523W        W40057   9.679  13.955  13.818 -0.0622 -0.0542  0.3343
20524W        W40058  12.458  13.743  11.760 -0.2382  0.1165 -0.1224
20525W        W40059   7.885  16.147   1.869 -0.0036  0.0288 -0.2370
20526W        W40060   6.252   0.797   3.125 -0.0361 -0.1091 -0.1797
20527W        W40061   6.723   3.618  13.202  0.0349  0.2134 -0.4850
20528W        W40062  13.778   4.088  13.962 -0.0459  0.1080  0.0101
20529W        W40063   8.520   6.157  12.642  0.2269  0.0984  0.1851
20530W        W40064  15.827   7.190   1.213 -0.0452 -0.4747 -0.2444
20531W        W40065  10.330  19.494   1.992  0.1579  0.4161  0.0855
20532W        W40066  13.119   0.583  13.793 -0.3158 -0.1754 -0.0606
20533W        W40067  16.339   0.955   1.384  0.1651  0.0303 -0.0711
20534W        W40068  15.880  15.534  14.256  0.0577 -0.0304  0.2227
20535W        W40069  14.209  12.658  11.932  0.0842 -0.0311  0.2222
20536W        W40070   3.092   8.064  14.242 -0.1242 -0.1717 -0.1108
20537W        W40071  12.340  12.084   0.117  0.0834  0.1660  0.2975
20538W        W40072   3.535  18.972  11.480 -0.3643 -0.0825  0.4513
20539W        W40073  11.843   4.194  12.198  0.1506 -0.2121  0.0245
20540W        W40074  13.849  18.664   3.214 -0.0667 -0.2454  0.1594
20541W        W40075  13.858   1.864   2.744 -0.1859  0.0285  0.3866
20542W        W40076  10.862   7.752   0.658  0.1801 -0.0585 -0.2435
20543W        W40077  10.605  18.407  10.969  0.2026  0.0342 -0.1786
20544W        W40078  18.350   3.593  10.760 -0.0867 -0.3471  0.0965
20545W        W40079  18.282   0.385   4.583  0.2078  0.0165  0.0190
20546W        W40080  12.436   2.769   0.881  0.3476 -0.0174 -0.0280
20547W        W40081  18.850   4.269   0.306 -0.0318  0.1567  0.3783
20548W        W40082  11.003   4.462   3.711  0.1846 -0.2560 -0.3097
20549W        W40083   0.806   7.632   4.245 -0.1409  0.0578 -0.0919
20550W        W40084   6.607  14.315  12.410  0.1403  0.2054 -0.0119
20551W        W40085  13.952  13.866  11.073 -0.0087 -0.1148  0.0841
20552W        W40086  14.425   6.054   2.909  0.0260 -0.1316 -0.0281
20553W        W40087   4.039  10.779   2.039 -0.1164 -0.0605  0.1477
20554W        W40088   7.585  17.652   0.982  0.1195 -0.3172 -0.1704
20555W        W40089   1.071   7.894   2.315  0.2555 -0.2397  0.0442
20556W        W40090  11.292  13.981   2.870 -0.4728 -0.0243 -0.1469
20557W        W40091   1.512  11.940   3.933  0.0144 -0.3426  0.1822
20558W        W40092  18.837   8.434  12.996 -0.1113 -0.0095  0.1826
20559W        W40093  14.328  15.153   1.769 -0.2859  0.1444  0.0396
20560W        W40094   5.495   9.539  12.635  0.0248  0.1596  0.0583
20561W        W40095  19.511  15.330  14.182  0.0706  0.0905  0.1826
20562W        W40096   5.839  15.127  13.926  0.2785 -0.0353  0.2518
20563W        W40097   6.942   4.704   3.843  0.0380  0.0251 -0.0339
20564W        W40098   8.028  13.209   2.217  0.0785  0.0508 -0.0546
20565W        W40099  14.103  17.912   0.920 -0.2206  0.1687  0.0923
20566W        W40100   7.354   3.451   1.912  0.1582 -0.3824  0.0280
20567W        W40101   1.877   6.044  11.608 -0.0776  0.0514  0.2673
20568W        W40102   5.555  14.476   4.210 -0.0956 -0.2275 -0.1767
20569W        W40103  15.609   0.373   2.802 -0.0658  0.1078 -0.1328
20570W        W40104  12.256   8.443   2.207  0.0678  0.2529 -0.2308
20571W        W40105   9.325   3.873  11.124  0.3260 -0.1789  0.0592
20572W        W40106  18.831  10.182   0.457 -0.0980 -0.0105  0.1415
20573W        W40107  18.618   7.298   2.689  0.2239  0.1932  0.1099
20574W        W40108  11.737  16.911  13.608  0.0916  0.0433  0.2365
20575W        W40109  10.840  16.660  13.560  0.2363  0.1189 -0.1315
20576W        W40110  16.909  17.519  13.445  0.0908 -0.2517 -0.1489
20577W        W40111   4.694  11.331  11.678 -0.0617 -0.1350 -0.0919
20578W        W40112   1.214   0.135   1.969  0.2990  0.2099  0.1215
20579W        W40113   9.301   3.393  11.947  0.1386  0.2325 -0.1252
20580W        W40114  13.205  13.164  11.675 -0.3442 -0.2352 -0.0717
20581W        W40115  17.017  17.763  10.781  0.1715 -0.2769 -0.1685
20582W        W40116   0.662  18.229   2.793 -0.2176 -0.0305 -0.2875
20583W        W40117   8.178   2.988   1.588 -0.1765  0.0132  0.1021
20584W        W40118  10.301   8.067   3.001 -0.1434  0.0602  0.0595
20585W        W40119  11.654  16.944  12.337  0.0834 -0.0403  0.0288
20586W        W40120   4.230   8.467  11.702 -0.1560  0.5357  0.0707
20587W        W40121  18.719   2.293   1.361 -0.1705  0.2398  0.1162
20588W        W40122  10.391  15.942   0.227 -0.0478 -0.2677  0.0780
20589W        W40123   8.303   3.634  10.155 -0.0633 -0.0134  0.1130
20590W        W40124  15.645  11.540   1.002  0.0601  0.1636 -0.2000
20591W        W40125  10.892   4.062   2.084  0.1019 -0.1684 -0.0610
20592W        W40126  15.485   5.925  10.506  0.1193 -0.1644 -0.0582
20593W        W40127   1.221  18.492   3.381 -0.2569  0.0849  0.3637
20594W        W40128   1.335  10.515  13.866  0.2101 -0.0662 -0.0211
20595W        W40129   7.482   8.714   0.803 -0.2269 -0.1499  0.0222
20596W        W40130  15.115  11.630   1.547  0.0160  0.0376  0.1838
20597W        W40131   0.074   5.477   0.590  0.2227 -0.0756 -0.2474
20598W        W40132   2.954   0.335   1.810  0.2494  0.1689  0.1229
20599W        W40133   2.874  13.633  13.980  0.0398  0.0193  0.0887
20600W        W40134  14.630   8.035  13.015 -0.0055 -0.0404 -0.1729
20601W        W40135   5.896   8.245   3.882 -0.1177  0.1500 -0.0491
20602W        W40136   8.003  12.511   0.402 -0.1854 -0.2843  0.1893
20603W        W40137  13.836  18.479   3.832  0.2291  0.2697  0.0871
20604W        W40138   0.793  12.758   0.056 -0.0135  0.0888  0.2652
20605W        W40139   7.588  18.696  13.764  0.2153 -0.0048 -0.0025
20606W        W40140  12.841  11.419   0.637 -0.1228 -0.1938 -0.2018
20607W        W40141  12.961   6.680   2.986 -0.0859 -0.2831 -0.0876
20608W        W40142  13.064   6.309   2.718  0.0966  0.1709  0.2044
20609W        W40143   8.106   7.538  13.792 -0.2744 -0.1120 -0.0506
20610W        W40144  19.100  14.592   3.179 -0.0654  0.2299  0.2157
20611W        W40145  13.359   2.038   9.505 -0.1200 -0.1193  0.0044
20612W        W40146   3.828   2.467   0.451 -0.0521 -0.0401 -0.2645
20613W        W40147  13.292   9.819  11.405  0.0985  0.0078 -0.2715
20614W        W40148   1.725   5.538   1.466  0.2754 -0.0554 -0.2342
20615W        W40149  12.372   2.576   4.472  0.1613  0.1179  0.2505
20616W        W40150   3.475   1.115  13.329 -0.0783  0.0766  0.0065
20617W        W40151   1.312  19.224   0.575 -0.1322 -0.1127 -0.0960
20618W        W40152  12.374   7.369  12.864  0.1319  0.3458  0.0701
20619W        W40153   8.315  19.419  11.402  0.1370 -0.1314  0.0319
20620W        W40154  11.560  12.317  12.235  0.1108  0.3849 -0.0717
20621W        W40155   6.989  11.613   3.011  0.0871  0.0493 -0.0333
20622W        W40156   1.785   5.721  13.105 -0.2329  0.0199 -0.0297
20623W        W40157   3.915   6.080  10.986 -0.0963 -0.0841  0.0901
20624W        W40158  14.115  17.216  14.087  0.3436  0.1668 -0.1793
20625W        W40159  12.989  18.685   3.582 -0.1400  0.3108 -0.5225
20626W        W40160   6.810   8.158  11.093  0.2059 -0.2650  0.1115
20627W        W40161   0.319  16.199   3.147  0.3059 -0.2737 -0.0678
20628W        W40162   0.314   6.081   0.207  0.1431 -0.0765 -0.1234
20629W        W40163  15.712   1.332  12.890  0.1131 -0.1078 -0.1619
20630W        W40164   3.104  10.399   2.068 -0.2663 -0.1194  0.2540
20631W        W40165  17.349   8.940   2.085 -0.3708  0.1800 -0.0172
20632W        W40166   4.194   1.542  13.606  0.2243 -0.0630  0.0680
20633W        W40167  15.141   2.652   9.215 -0.0244 -0.2416 -0.1556
20634W        W40168   0.491   9.576  13.311 -0.0033 -0.2908  0.2228
20635W        W40169   3.014   5.450   3.500 -0.0039  0.1090  0.0822
20636W        W40170  15.432  13.354  11.190 -0.0493  0.1452 -0.2292
20637W        W40171  13.120  15.949   3.829  0.0066  0.1880 -0.0839
20638W        W40172  12.212  10.405   1.056  0.0860  0.3544  0.0785
20639W        W40173   2.363  15.938  12.090  0.4717 -0.1004  0.0290
20640W        W40174  19.514  16.044   0.366  0.2816  0.0348 -0.0762
20641W        W40175  13.598   5.460   2.774  0.1914 -0.1770  0.2663
20642W        W40176   3.091  18.752  11.205 -0.0201 -0.1611 -0.0469
20643W        W40177  10.057  18.187   2.688  0.0273 -0.2859  0.0804
20644W        W40178  18.644   7.934   2.603 -0.2743  0.2038  0.0997
20645W        W40179  10.611  11.279  11.297 -0.0341  0.0853 -0.2081
20646W        W40180   6.661  12.996   0.401 -0.1285  0.0752  0.2298
20647W        W40181  19.392   9.325   3.307 -0.3139  0.0869 -0.0495
20648W        W40182  19.436  17.998  10.288 -0.1081 -0.0636  0.1228
20649W        W40183  11.272   5.140  10.855  0.0598  0.0710  0.1110
20650W        W40184   7.939   6.050   2.042 -0.1134  0.3154  0.0955
20651W        W40185   2.573  17.077   2.174 -0.0894 -0.1422  0.1348
20652W        W40186  17.950  10.818   3.291  0.0693 -0.0442 -0.1554
20653W        W40187   7.998  12.164  10.127 -0.1200 -0.1934  0.1064
20654W        W40188   9.127   2.362  12.705 -0.0884 -0.1356  0.1828
20655W        W40189   8.089  13.698   3.572 -0.1002 -0.0034 -0.4054
20656W        W40190  19.407   1.056   2.280 -0.0917 -0.1858  0.1515
20657W        W40191  10.418  14.634  10.256  0.3217  0.0797 -0.1718
20658W        W40192   5.773  13.344   1.547 -0.3359  0.4470 -0.1037
20659W        W40193   6.274   5.783   3.131  0.2219  0.2736 -0.0423
20660W        W40194  10.135   2.638   0.761  0.0246 -0.0416 -0.1110
20661W        W40195   0.277  10.887  12.542 -0.2000 -0.2092 -0.1135
20662W        W40196  16.007   1.781  10.649  0.0160  0.1813 -0.1023
20663W        W40197   8.367  19.507   5.212  0.1267 -0.1524  0.1991
20664W        W40198   6.722   1.598   3.242  0.1043  0.0198 -0.0630
20665W        W40199  14.342   2.537  12.327 -0.0804 -0.1790  0.0509
20666W        W40200   9.788   1.884   1.599  0.0322 -0.2264 -0.2310
20667W        W40201   3.700  10.116   0.932  0.1641 -0.1670  0.0055
20668W        W40202  15.195   7.338  13.075  0.1062  0.0086  0.0311
20669W        W40203   7.788  19.418   1.850 -0.2095  0.1818  0.2861
20670W        W40204   3.969   5.157  12.103  0.0676 -0.1031 -0.0620
20671W        W40205   9.865   4.483  11.908  0.1089  0.2023  0.0683
20672W        W40206  15.614   2.248  13.793  0.0149  0.0089  0.1448
20673W        W40207   5.126  14.386   3.305 -0.0806 -0.1818 -0.0703
20674W        W40208   8.955   9.188   2.657  0.0005 -0.3179  0.0151
20675W        W40209   0.521  18.739  12.504  0.2739 -0.0506 -0.2957
20676W        W40210  17.515   2.961  13.825 -0.0570  0.0234  0.0955
20677W        W40211  12.444   1.357  11.026  0.0103  0.1901 -0.1948
20678W        W40212  13.664  15.217  12.250  0.0594 -0.1091 -0.0648
20679W        W40213  16.093  11.412  14.114  0.1218 -0.2235 -0.1123
20680W        W40214   6.313  15.172   3.692  0.3957 -0.0104 -0.1263
20681W        W40215   7.197   2.163   2.115 -0.0561  0.1003 -0.1055
20682W        W40216   4.265  16.726   1.399  0.2796  0.2007  0.1140
20683W        W40217   1.622  15.387   1.928  0.2366 -0.0737 -0.0872
20684W        W40218   4.562   3.681   0.381  0.2147  0.3262  0.0530
20685W        W40219  14.574   1.026  11.052  0.0048  0.0123 -0.2690
20686W        W40220  16.476   2.209   1.096  0.4387  0.2882 -0.0538
20687W        W40221  13.765   4.380  13.272  0.1085 -0.0107  0.0068
20688W        W40222   1.802  11.118   2.830  0.1612  0.0191 -0.2915
20689W        W40223   9.590  16.648  13.615  0.0980  0.1997  0.2541
20690W        W40224   6.409   0.672   3.678 -0.1038 -0.4318  0.1036
20691W        W40225  11.525  12.437   0.806  0.0583 -0.1322 -0.0046
20692W        W40226  16.638  10.487  13.082  0.0320 -0.2884 -0.0097
20693W        W40227   5.482  18.042   9.455  0.0331  0.1650 -0.0325
20694W        W40228  10.575  18.658  10.553 -0.1290 -0.2559 -0.2762
20695W        W40229  17.926   4.291   3.864 -0.2615 -0.0044 -0.0247
20696W        W40230  11.186   6.289  11.410  0.1260  0.1220 -0.2956
20697W        W40231   2.433   3.999  13.531  0.0641  0.1892  0.1083
20698W        W40232  14.002   8.972   3.612 -0.0525  0.2582 -0.1177
20699W        W40233   7.940   2.424  11.083  0.2175 -0.1762 -0.1689
20700W        W40234   9.146   8.513   3.984  0.1363 -0.0413  0.0632
20701W        W40235   4.141  14.848  11.485 -0.6042 -0.4941 -0.0390
20702W        W40236   1.632   1.494   3.656  0.1252 -0.1840  0.0121
20703W        W40237  15.594   0.642  12.096 -0.1154 -0.2622  0.0114
20704W        W40238   6.439   2.610   1.131  0.2769 -0.0837  0.0745
20705W        W40239  14.179  10.809   4.136 -0.0180 -0.2351 -0.0985
20706W        W40240  13.162  18.135   1.547  0.0105 -0.0102 -0.0493
20707W        W40241   0.668  13.618  12.643 -0.0499 -0.1319 -0.0561
20708W        W40242  17.251   6.827  14.221 -0.0349  0.2160  0.4091
20709W        W40243  18.721   9.118  14.333  0.2793 -0.2858  0.0113
20710W        W40244  11.528  17.665   3.940  0.2508 -0.0083 -0.0269
20711W        W40245  14.668  11.431   1.023 -0.1088  0.2498  0.0704
20712W        W40246   5.526   6.826  12.323 -0.1116 -0.2366 -0.2981
20713W        W40247  17.683   0.270  10.967  0.2110 -0.0357 -0.0941
20714W        W40248  12.599  12.013   1.554  0.1708 -0.3285 -0.1152
20715W        W40249   1.961   2.584   1.282  0.0769  0.0373 -0.2303
20716W        W40250  12.879  10.224  10.355  0.2278  0.4249 -0.0274
20717W        W40251  10.104   0.603  11.726 -0.1598  0.1169 -0.1427
20718W        W40252  16.642   0.964   2.211  0.1783 -0.1698  0.0057
20719W        W40253  11.819  12.266  13.761 -0.1074  0.1962 -0.2618
20720W        W40254   9.815   9.492   4.193 -0.0623  0.1009 -0.3837
20721W        W40255  12.166  16.822   0.989 -0.0033  0.1189  0.0453
20722W        W40256  19.108  18.967  12.132 -0.2658 -0.0792  0.1821
20723W        W40257  18.098   1.204  10.658 -0.0013  0.6132 -0.4843
20724W        W40258  16.467   5.087  13.840 -0.3065 -0.0090 -0.0435
20725W        W40259   0.046  11.144  13.649 -0.1232  0.0441  0.2553
20726W        W40260   7.156   5.932   2.494  0.1414 -0.0560 -0.0042
20727W        W40261   1.834   6.217  12.384  0.1175 -0.1521  0.0851
20728W        W40262  16.334   6.822  14.297  0.1636 -0.0959  0.0046
20729W        W40263  10.527   8.862   2.719 -0.2861 -0.2242 -0.1428
20730W        W40264  10.043  13.578   0.299  0.0866  0.1000  0.0818
20731W        W40265   1.926   0.122   1.426  0.2019  0.2505 -0.0434
20732W        W40266   7.966  13.796  11.300  0.1110  0.2270  0.1477
20733W        W40267   1.290   8.742  10.747 -0.0915  0.0414  0.0892
20734W        W40268  16.299  10.873   0.797 -0.0082  0.1560 -0.2166
20735W        W40269  13.508   7.501  12.208  0.2470 -0.0373 -0.1265
20736W        W40270   1.063   2.160  14.206  0.2779 -0.2553 -0.1078
20737W        W40271   3.667  17.149  11.773 -0.0191  0.2316  0.0178
20738W        W40272   8.129  12.300   1.456  0.0966 -0.0995 -0.3801
20739W        W40273  14.774   7.576  13.970 -0.5585  0.2166 -0.0912
20740W        W40274  12.456   0.753   2.852 -0.0183 -0.1452 -0.1958
20741W        W40275   9.788  16.945   1.789  0.1535  0.1265  0.1814
20742W        W40276   0.131  10.142  11.935  0.0905  0.1039 -0.0181
20743W        W40277   9.188   8.905  12.805 -0.0650 -0.0501  0.0641
20744W        W40278   5.302   2.847   3.968 -0.0653  0.1584 -0.3875
20745W        W40279  12.210  11.767  11.967 -0.2302  0.1854 -0.0090
20746W        W40280   9.964   0.892  12.110  0.1315  0.1331 -0.1073
20747W        W40281   3.383  18.690   2.293 -0.0677 -0.0683  0.1465
20748W        W40282   5.292  18.573  11.070  0.0414 -0.2279  0.0259
20749W        W40283   4.856  12.775   0.858 -0.0060  0.2343  0.1012
20750W        W40284   8.789   1.963   2.447  0.1181  0.2125 -0.1893
20751W        W40285  13.275   6.509   3.317 -0.1214  0.0735 -0.0328
20752W        W40286  15.028  14.234   0.823  0.1623 -0.0025 -0.0688
20753W        W40287  19.088  18.470  12.275  0.2087 -0.1463 -0.1805
20754W        W40288  16.105  11.265   0.232 -0.1293  0.0629 -0.1455
20755W        W40289   2.071   1.574  11.519 -0.0809  0.1751  0.0439
20756W        W40290  17.913  15.305  11.309  0.2103  0.1843  0.1208
20757W        W40291  11.865   7.362   1.608  0.0632  0.1112  0.0783
20758W        W40292   6.698   7.470  13.500  0.0141  0.1589  0.0780
20759W        W40293  11.337  10.574  13.212 -0.0141 -0.0877 -0.1786
20760W        W40294   0.302   4.087  11.575  0.2362 -0.2373 -0.2202
20761W        W40295   8.765   9.637   0.628  0.0804 -0.1712  0.2485
20762W        W40296   2.164  15.276  11.604  0.0659  0.1255  0.1684
20763W        W40297   7.240   0.198   0.193 -0.1698 -0.0702  0.0918
20764W        W40298  17.410  17.804  12.457 -0.0306  0.1953  0.1607
20765W        W40299   4.666  17.301  12.121 -0.1619  0.0006 -0.3145
20766W        W40300   5.570  14.181   2.082 -0.0467  0.1403 -0.0537
20767W        W40301   5.589   6.991   3.676 -0.0140 -0.0880 -0.2576
20768W        W40302   2.896   4.039  11.852  0.1936 -0.1281 -0.1090
20769W        W40303  10.866  18.249   1.953 -0.5682  0.0735  0.1032
20770W        W40304   1.759   2.701   3.126  0.0473 -0.2291  0.0132
20771W        W40305  17.776  18.684  14.345 -0.0898 -0.2664  0.2238
20772W        W40306  12.135   6.814   2.268  0.0403  0.0249  0.0551
20773W        W40307  12.884  10.998   4.033  0.1459 -0.1539 -0.0549
20774W        W40308  13.351   9.010   1.396 -0.1108 -0.1658  0.1320
20775W        W40309   3.116   4.177   1.377 -0.0857  0.1516 -0.2556
20776W        W40310   0.641   6.234   3.390 -0.0490  0.2871  0.1637
20777W        W40311  15.615  14.267   0.090 -0.0391  0.1973 -0.2151
20778W        W40312  11.969   2.404   3.312  0.0070 -0.0862 -0.2849
20779W        W40313  17.388  14.206   4.483  0.1339  0.1307 -0.2707
20780W        W40314  13.872   7.512   1.983 -0.1925  0.1447  0.1124
20781W        W40315   5.221   9.108   1.873 -0.1003 -0.1815 -0.1962
20782W        W40316  13.153   4.732  11.186 -0.0377 -0.1615 -0.0602
20783W        W40317  19.311  11.541  13.831  0.0488  0.0224 -0.1232
20784W        W40318   3.114   5.434  12.058 -0.0596  0.2109  0.1168
20785W        W40319  13.134  15.331  11.366  0.0815 -0.0649 -0.0578
20786W        W40320  12.274   2.840   3.861 -0.0081  0.1872 -0.1676
20787W        W40321   3.090   4.525  13.081 -0.1013 -0.1067 -0.0922
20788W        W40322  12.508   7.742   1.147  0.0016  0.3297  0.2058
20789W        W40323   3.847   2.904  12.902  0.0867 -0.0196  0.1308
20790W        W40324  18.741   2.710   3.404  0.0836  0.0143 -0.3085
20791W        W40325   5.611  17.777   2.858 -0.0329  0.2953  0.1129
20792W        W40326  13.293   0.854   0.977  0.0512 -0.0231 -0.3736
20793W        W40327  15.484   4.463  12.114  0.1238 -0.1390  0.0089
20794W        W40328   2.850  10.323   3.450 -0.2251 -0.1205 -0.2861
20795W        W40329  12.045  19.425   4.032  0.1104  0.0204 -0.2582
20796W        W40330   8.994   0.755   0.847  0.1236 -0.0449  0.2617
20797W        W40331   8.501   0.969   1.851  0.1588 -0.1903 -0.0384
20798W        W40332  17.118  19.421   3.138 -0.0915  0.2521  0.2046
20799W        W40333  16.737  13.455  12.493  0.1560 -0.1392  0.0238
20800W        W40334  13.017   3.802  11.971 -0.0005  0.2394  0.1337
20801W        W40335  15.919   0.874  14.241  0.0135 -0.3019  0.1809
20802W        W40336  19.486   2.599   0.584  0.0637 -0.2363 -0.2933
20803W        W40337   5.507   1.386  13.973 -0.0073  0.2374  0.1003
20804W        W40338   8.664   9.978   5.132  0.1705 -0.0952  0.1398
20805W        W40339  14.806   6.492  11.951  0.3022  0.1041 -0.1880
20806W        W40340  18.387   5.546   1.662  0.0926 -0.2827  0.2131
20807W        W40341  10.242   3.827  13.215 -0.2302 -0.0519 -0.1363
20808W        W40342   0.770   9.387   3.026  0.1079 -0.3041 -0.0371
20809W        W40343   8.519   5.831   9.279 -0.2224 -0.0469 -0.2879
20810W        W40344  15.121   3.383  13.238  0.2396 -0.1973 -0.0853
20811W        W40345   1.809   1.531   2.444 -0.0286  0.2576  0.0004
20812W        W40346  13.646  19.118  14.324  0.1436  0.5180 -0.2716
20813W        W40347  12.004  10.878  12.668 -0.1534  0.0718  0.1070
20814W        W40348   8.016   3.363   2.529  0.3682 -0.2201  0.0666
20815W        W40349  10.944  12.865   2.384  0.0677 -0.0037 -0.1340
20816W        W40350   2.085  15.593   2.765 -0.3080 -0.1724 -0.1821
20817W        W40351  13.247  18.062  10.268 -0.0599  0.0518  0.0913
20818W        W40352   9.225   7.510  12.877  0.0423 -0.2431 -0.2743
20819W        W40353  11.307   7.307  14.223 -0.0397 -0.0829 -0.0390
20820W        W40354  16.568   0.879  12.281 -0.1643  0.3186  0.2817
20821W        W40355  12.245  13.883   2.932 -0.1891  0.2307  0.0928
20822W        W40356   6.259   4.828  14.033  0.2509  0.0741 -0.2508
20823W        W40357  13.116   3.453  14.168  0.0358  0.2243  0.0654
20824W        W40358  14.241   6.013  13.667  0.0548 -0.0222  0.2536
20825W        W40359  10.161  15.320  12.734 -0.1132  0.3284  0.1847
20826W        W40360   5.417   0.318  12.908  0.1988 -0.2847  0.0266
20827W        W40361  15.370   3.658   3.187 -0.1058  0.0951 -0.4546
20828W        W40362   6.564   9.116  13.354 -0.0792  0.5460  0.2240
20829W        W40363  11.771   5.187   2.554  0.0839 -0.1328  0.0255
20830W        W40364   4.587  10.616  12.354 -0.3221  0.0409  0.1157
20831W        W40365   9.616   6.792   3.431  0.0205  0.1331 -0.2906
20832W        W40366  14.655   6.744   3.445 -0.1632  0.2087 -0.0540
20833W        W40367   2.337   4.088  12.319 -0.4337  0.1017 -0.0750
20834W        W40368  14.889   2.576   0.176  0.2712 -0.3420  0.0643
20835W        W40369  19.301  15.162   3.306  0.1548  0.2507 -0.1453
20836W        W40370   2.601  17.780   0.377  0.0567  0.1098 -0.1327
20837W        W40371  13.428  19.181  11.790 -0.3151  0.2171  0.1576
20838W        W40372  16.229   9.255   2.360 -0.1322  0.3077  0.2544
20839W        W40373   7.660   7.970  11.340  0.0480 -0.2376  0.0955
20840W        W40374  13.210   0.014   2.512 -0.0185 -0.1088 -0.1403
20841W        W40375   2.731   6.564   3.748  0.2869 -0.0043  0.1006
20842W        W40376   1.072  16.883  11.389 -0.0547 -0.1950 -0.0255
20843W        W40377  13.487   1.911   5.002 -0.0364  0.0010  0.0032
20844W        W40378  10.712   4.898  13.567  0.3532 -0.0559  0.1492
20845W        W40379   1.708  10.557  10.508  0.2464 -0.0351  0.1592
20846W        W40380   2.448  17.523   3.662 -0.1963  0.1351 -0.1623
20847W        W40381  13.630   1.026   3.968  0.0613  0.1955  0.1934
20848W        W40382  12.110   0.595   3.345 -0.1491  0.0932  0.0579
20849W        W40383   6.748  17.540  11.581 -0.0171 -0.1450 -0.3186
20850W        W40384  14.449   1.403   4.105  0.0961 -0.0923 -0.4449
20851W        W40385  16.960   3.875  11.866  0.0885 -0.1391 -0.1800
20852W        W40386   1.382   6.649  11.071 -0.1096 -0.1688  0.0695
20853W        W40387   6.608   3.692  12.673 -0.1311 -0.1425 -0.0398
20854W        W40388  18.053   2.748   0.627 -0.0681 -0.2704 -0.0468
20855W        W40389  17.546   7.780   0.991  0.0339  0.3535 -0.1537
20856W        W40390  18.883  18.348  13.524 -0.0489 -0.1164  0.0925
20857W        W40391  16.490   6.270   0.222  0.0562  0.1994  0.1944
20858W        W40392  14.212   8.261  14.145  0.1904 -0.1777 -0.1163
20859W        W40393   2.341  12.569  10.560  0.2878 -0.0556 -0.1785
20860W        W40394   7.837   7.138  13.925 -0.0408  0.1305 -0.0907
20861W        W40395   4.244   0.457   1.034 -0.1637  0.0349 -0.1056
20862W        W40396  18.955   6.623  14.050 -0.0917  0.0618 -0.0083
20863W        W40397  17.439  11.771  11.984 -0.0150 -0.1382  0.1584
20864W        W40398   3.084  18.448   0.811 -0.0895 -0.0774  0.0923
20865W        W40399  10.878   5.507  11.138 -0.2138  0.1678 -0.0398
20866W        W40400   4.054  10.867  12.254  0.1946  0.1972  0.1462
20867W        W40401   4.731   1.141   9.963  0.4071  0.3955 -0.1404
20868W        W40402   6.333  14.493   2.307  0.0107  0.2462 -0.0114
20869W        W40403   2.650   0.409   0.875 -0.0702  0.0500 -0.1116
20870W        W40404  18.520   9.698   2.719  0.1313  0.1476  0.1639
20871W        W40405   0.650   0.494  11.684 -0.3366 -0.3168 -0.3840
20872W        W40406  19.470   2.212   0.269 -0.0209  0.0589  0.1796
20873W        W40407  15.253   7.539   3.866 -0.1520  0.5305  0.1090
20874W        W40408  13.317   0.155   2.986  0.1520  0.2525 -0.3679
20875W        W40409   0.243  10.162  13.101 -0.3175  0.1412 -0.0088
20876W        W40410  12.239   4.974  13.131  0.0183  0.1628 -0.1310
20877W        W40411   6.634  16.234  12.721 -0.0934 -0.0748 -0.0325
20878W        W40412   2.522  16.438   4.427  0.4110  0.0796 -0.1547
20879W        W40413   0.188  10.013  11.008  0.1135  0.0421 -0.1987
20880W        W40414  15.001   9.224   2.819 -0.1690 -0.2427 -0.0029
20881W        W40415   8.733   3.496   2.109 -0.1398 -0.3308 -0.2974
20882W        W40416  14.929   5.534  11.591  0.3477  0.0753 -0.0665
20883W        W40417   0.926  17.311  10.315 -0.0039  0.0548  0.2376
20884W        W40418   7.737  16.400   1.415  0.5365  0.1092  0.0144
20885W        W40419  13.180  17.269   0.338  0.5993 -0.0928 -0.2095
20886W        W40420   5.853  16.204  10.965 -0.3355  0.3395  0.2124
20887W        W40421   7.641  17.669   4.885 -0.0871 -0.2488  0.0261
20888W        W40422  12.302  16.610  10.560 -0.0412 -0.0449  0.0080
20889W        W40423  11.189   5.492   3.857 -0.1275 -0.1678  0.3472
20890W        W40424  16.878   3.290   1.382 -0.1289 -0.0309  0.0158
20891W        W40425  14.241  12.289  10.636 -0.1378  0.2509  0.0483
20892W        W40426  17.170   7.057   2.561 -0.0804  0.1748 -0.2184
20893W        W40427  10.117  12.239  12.192  0.2063  0.0541  0.2615
20894W        W40428   6.490   4.922   0.793 -0.2086  0.1029  0.2182
20895W        W40429   7.532  17.402  12.020  0.0825 -0.6492  0.0743
20896W        W40430  12.943   4.032   0.909  0.2460  0.0581 -0.1200
20897W        W40431  17.934   7.287   4.245 -0.1386  0.2613 -0.0598
20898W        W40432   1.202   8.880   2.806 -0.2363 -0.0135  0.1018
20899W        W40433  18.493   2.360   3.937 -0.0953 -0.2911 -0.1234
20900W        W40434  13.412  13.247  12.174  0.0307 -0.0294  0.1859
20901W        W40435  11.521   1.615  13.372 -0.3137 -0.0440 -0.3195
20902W        W40436  11.947   9.551   3.037 -0.0109  0.0369  0.2805
20903W        W40437   3.962   8.495   3.215 -0.3280  0.0107  0.0199
20904W        W40438  11.583   3.701  10.744 -0.0730 -0.0451 -0.0203
20905W        W40439   9.839   2.586   2.283  0.2470  0.3468  0.2366
20906W        W40440   8.847   6.949   2.860 -0.2190  0.0394  0.0012
20907W        W40441  19.287   4.371   0.171 -0.3378  0.0041  0.2811
20908W        W40442   6.995   0.876   0.809  0.1262  0.1321 -0.2903
20909W        W40443   2.067   0.992  11.927  0.1181 -0.4369  0.1116
20910W        W40444   2.161   5.820   1.611  0.0914  0.1733  0.0967
20911W        W40445   5.741  18.824   4.362  0.1117 -0.1760  0.0394
20912W        W40446   6.272  11.300  11.263  0.0339 -0.0339 -0.1768
20913W        W40447   6.992   0.383   2.858  0.2777 -0.0105  0.0736
20914W        W40448  18.144  12.257  13.999 -0.0414  0.0330 -0.0167
20915W        W40449   4.950   4.830   1.870 -0.0146 -0.3774 -0.1734
20916W        W40450   4.136  12.787   0.231 -0.0066  0.1004 -0.1892
20917W        W40451   8.891  14.387   4.364 -0.1706  0.1370 -0.1950
20918W        W40452  10.969   8.863  13.527  0.1421  0.0123 -0.1642
20919W        W40453   8.875   2.457  11.209  0.0803 -0.1220 -0.2223
20920W        W40454  12.424  12.478   2.632 -0.1233 -0.0894  0.2451
20921W        W40455   1.620  10.370   3.331 -0.1699 -0.2734  0.2486
20922W        W40456  17.177  15.196  14.198  0.0349  0.2241  0.1533
20923W        W40457   0.974   3.182  11.855 -0.0742 -0.3736 -0.1840
20924W        W40458  15.270  18.876  11.947  0.3639  0.1844 -0.0404
20925W        W40459   4.345   6.326   4.200  0.0155  0.0846 -0.0539
20926W        W40460  14.116  18.248  10.781  0.0320  0.0849  0.3375
20927W        W40461  15.947  19.485   3.559 -0.2010  0.0625  0.0047
20928W        W40462   2.020  10.610   3.575 -0.0129 -0.2910  0.2542
20929W        W40463   1.251   1.621  12.161  0.0448 -0.0854 -0.1499
20930W        W40464   7.208   5.386  13.703 -0.0877  0.3251 -0.3716
20931W        W40465   4.980   9.583   2.054  0.1857 -0.2797  0.1366
20932W        W40466   9.533  18.425   2.160  0.4608  0.3269  0.2229
20933W        W40467   1.427   9.235  12.438  0.0225  0.0854 -0.2254
20934W        W40468   7.104   1.582   5.122  0.1614  0.2192 -0.0985
20935W        W40469  18.755  18.772  13.811 -0.0130 -0.3208 -0.0956
20936W        W40470  15.286  16.425   0.854 -0.2439 -0.1994  0.0391
20937W        W40471  11.968  15.523  13.882  0.1645  0.2326 -0.1272
20938W        W40472  10.751   6.846  13.518  0.1007  0.0875  0.0229
20939W        W40473   2.945   3.020   2.496 -0.1278  0.1974 -0.1213
20940W        W40474   5.220  16.703  10.772 -0.2875  0.2411  0.2334
20941W        W40475   8.618  17.032   0.007  0.3523  0.1668  0.1463
20942W        W40476  11.057   8.577   3.501 -0.0773 -0.1251  0.1437
20943W        W40477   8.485   8.279  12.500  0.0258 -0.0613  0.0268
20944W        W40478   3.801   4.376  10.519 -0.1510  0.2310  0.0399
20945W        W40479   2.889   5.958  14.106  0.0397 -0.0557 -0.2181
20946W        W40480  19.017   0.618  13.998  0.1192 -0.3251  0.0362
20947W        W40481   1.557  15.024  10.387  0.3635  0.2611 -0.1229
20948W        W40482   4.052   1.339   2.912  0.1582 -0.2127  0.2505
20949W        W40483  10.436  18.788   2.289 -0.4502  0.2042  0.0138
20950W        W40484  17.433   7.494   4.231  0.1039  0.0722 -0.1127
20951W        W40485  17.701  16.385   3.250 -0.0298  0.1829  0.1306
20952W        W40486  10.139   5.490  12.344 -0.1551  0.1518  0.0933
20953W        W40487  11.448  11.363   3.407 -0.0014  0.1207  0.1010
20954W        W40488  15.297   4.490   3.580  0.1218  0.1832  0.1511
20955W        W40489  12.790  17.391   1.290 -0.1984 -0.2016 -0.0053
20956W        W40490  10.003   7.032  10.348  0.0778  0.0106 -0.0597
20957W        W40491   1.730  19.184  11.206  0.1369 -0.0954  0.0542
20958W        W40492  11.761   0.979  11.774 -0.2981 -0.1440  0.3921
20959W        W40493  11.567   3.687   0.334 -0.0288  0.2827  0.2703
20960W        W40494   1.889  19.132   1.327  0.0403  0.2820  0.2688
20961W        W40495  12.681  12.554   9.349  0.2850  0.3525 -0.4409
20962W        W40496   3.546  12.646   3.166 -0.1123 -0.0823 -0.0189
20963W        W40497   0.883   4.319   3.070 -0.0918  0.2101 -0.2100
20964W        W40498  11.219   6.004   1.834 -0.3208 -0.2243 -0.2725
20965W        W40499  16.711  13.381   0.326 -0.0738 -0.0476  0.0086
20966W        W40500   2.098  13.245  11.062  0.0273 -0.0183 -0.0281
20967W        W40501  12.331  17.598   2.959  0.0907  0.1226 -0.0141
20968W        W40502  15.345   2.184  12.934 -0.1012 -0.1716  0.2171
20969W        W40503   3.456   4.186   2.357  0.3821 -0.1422 -0.2092
20970W        W40504   3.814  17.854   0.747 -0.0609  0.0825 -0.3475
20971W        W40505  17.418   1.994  12.457 -0.1324 -0.1403  0.0823
20972W        W40506  11.333   4.973  13.447 -0.2444 -0.1388  0.0538
20973W        W40507  13.589   6.339   4.323 -0.0951  0.1112 -0.2016
20974W        W40508   2.596  10.899  12.750  0.1554 -0.0212  0.0530
20975W        W40509   5.730   6.646   1.384 -0.2290 -0.1440 -0.1633
20976W        W40510   6.815  16.068   1.845  0.2405 -0.1246  0.1635
20977W        W40511   6.675   1.043  10.967  0.1221  0.1830 -0.0567
20978W        W40512  11.760  16.613   3.858  0.1231  0.2373 -0.0161
20979W        W40513   5.221  11.266   0.480  0.1077 -0.0346 -0.0723
20980W        W40514  12.934  13.537  11.878 -0.2384 -0.0535 -0.0494
20981W        W40515   3.636  14.815  11.532 -0.1342 -0.0490  0.1582
20982W        W40516   4.696   3.803  11.503 -0.0271 -0.2491  0.0508
20983W        W40517  11.088  18.941  10.979  0.1670 -0.1092  0.2634
20984W        W40518  15.073   0.456   2.982 -0.0031 -0.1184 -0.0025
20985W        W40519  11.196  17.104  12.072 -0.1271  0.1476 -0.4434
20986W        W40520   2.257   0.502  13.098 -0.1091  0.1976  0.0251
20987W        W40521   0.607   2.435  12.616 -0.1607  0.0364  0.1681
20988W        W40522   5.608   0.170   1.041  0.1507 -0.0531 -0.2455
20989W        W40523   3.274  15.292  10.294 -0.1312 -0.3619  0.1730
20990W        W40524   2.920  12.068   3.546  0.2014 -0.0801 -0.1516
20991W        W40525  14.024   6.415   2.852 -0.0124  0.1931 -0.1761
20992W        W40526   2.678  17.855  11.214  0.1736  0.0057  0.0966
20993W        W40527  19.149  15.062  13.407 -0.0359  0.1426  0.1517
20994W        W40528   8.317   7.871   2.021 -0.2319 -0.0180  0.2632
20995W        W40529   0.915   5.794  11.395  0.1916 -0.2084  0.1708
20996W        W40530  13.333  12.357   0.322 -0.1907 -0.2771 -0.0786
20997W        W40531   6.033   2.826  10.959 -0.2801  0.1749  0.0038
20998W        W40532  14.351   6.754  10.504  0.2224 -0.0699 -0.0514
20999W        W40533  16.317  13.598   3.271  0.1043 -0.1371  0.1249
21000W        W40534  12.411   9.751   5.376  0.0471 -0.0326  0.1849
21001W        W40535  18.150   7.131   2.652 -0.1243 -0.0645  0.2541
21002W        W40536   0.906   1.055  13.362 -0.2757  0.0163 -0.1203
21003W        W40537   1.962   4.965  12.611  0.0925  0.2205  0.1424
21004W        W40538   4.374  13.205  10.573  0.2818 -0.1686  0.0608
21005W        W40539  18.341   5.843  13.830 -0.2575  0.0509 -0.1057
21006W        W40540  15.206  16.322  11.397 -0.0847 -0.1665  0.0911
21007W        W40541  18.416   6.359   2.214  0.2726 -0.0541 -0.0170
21008W        W40542   0.347  10.413   1.779 -0.1236  0.0209 -0.0100
21009W        W40543   3.657  15.269   4.366 -0.0696 -0.0199  0.0578
21010W        W40544  16.240   3.792   1.251  0.1810  0.1566 -0.0863
21011W        W40545  17.636   0.831   1.963 -0.0459 -0.1030  0.0409
21012W        W40546  18.094   1.198  11.248  0.1214 -0.1399 -0.0873
21013W        W40547   5.348   5.004  12.774 -0.1027  0.0822 -0.0232
21014W        W40548   9.962  16.816   3.409 -0.0138  0.1393 -0.1132
21015W        W40549  11.869  19.496   3.213 -0.2150  0.1469 -0.0072
21016W        W40550   8.449  14.103  13.886 -0.1624 -0.0089 -0.0011
21017W        W40551   2.636  18.476  13.317  0.0707  0.0039 -0.2501
21018W        W40552   3.227  12.465  13.359  0.0760  0.0573  0.4189
21019W        W40553  16.194   1.894  11.088 -0.0538 -0.1653  0.4555
21020W        W40554   8.823   6.653   1.074 -0.3299  0.1131  0.0774
21021W        W40555   3.827  17.036   1.468  0.3108 -0.0877 -0.0926
21022W        W40556  13.535  18.724   4.343  0.0044  0.0264  0.1496
21023W        W40557   4.681   1.557   9.661  0.0792 -0.0042  0.1189
21024W        W40558  15.368  12.416   2.093  0.0083 -0.0300  0.1732
21025W        W40559  14.763  17.208   0.415  0.1603 -0.1368 -0.0235
21026W        W40560  18.945   3.973   2.718  0.0072  0.2663 -0.0546
21027W        W40561  12.698  19.107   1.912  0.1639 -0.4716 -0.1038
21028W        W40562   2.125   0.009  13.849  0.0753 -0.0896  0.3105
21029W        W40563  16.158   4.293   3.239  0.0684  0.0357 -0.0550
21030W        W40564  16.438  11.841   0.894  0.0182  0.0317 -0.2078
21031W        W40565   7.131   6.435  14.039  0.2037  0.2436 -0.0406
21032W        W40566   0.576   0.266   1.048  0.3104 -0.1227 -0.0600
21033W        W40567  13.292   5.320   3.999  0.1821 -0.1197 -0.0329
21034W        W40568  10.312  14.406  13.173 -0.1285  0.0356  0.3588
21035W        W40569   3.889  19.030   2.942 -0.3470 -0.1036  0.1943
21036W        W40570  13.329  19.101  13.941 -0.1060 -0.0394  0.2160
21037W        W40571  13.400  14.986  11.596 -0.2696 -0.0763  0.3809
21038W        W40572  11.846  18.298  13.297  0.1606 -0.0687  0.1338
21039W        W40573  13.068  11.116   1.699 -0.1820  0.0422  0.0352
21040W        W40574  12.210   7.436  10.672  0.1459 -0.0186 -0.1650
21041W        W40575  12.765   1.482   0.817 -0.0345 -0.2450  0.0250
21042W        W40576  13.716  14.429  11.122  0.0497  0.0400  0.2017
21043W        W40577   6.810   8.094   1.255  0.1398  0.2231  0.0091
21044W        W40578  16.030  16.228   1.793  0.2611 -0.4656 -0.1402
21045W        W40579   2.842  18.828  14.339 -0.2496  0.1899  0.0439
21046W        W40580   8.023   8.052   0.276 -0.2441 -0.0959  0.2322
21047W        W40581  13.703  10.620  12.982 -0.0053  0.1985 -0.0266
21048W        W40582  18.007  12.722   0.586 -0.0300 -0.0433  0.3389
21049W        W40583  19.451   5.815   0.061  0.0402 -0.4363 -0.1327
21050W        W40584  12.476   3.977  12.124  0.1256 -0.1243  0.0743
21051W        W40585   7.024   2.452   5.358  0.1474  0.2574  0.0621
21052W        W40586   4.759   0.512   0.937 -0.0658  0.1755 -0.2164
21053W        W40587   3.219   0.806   2.311  0.0563  0.0796  0.1003
21054W        W40588  14.464   1.302   2.182 -0.1322 -0.1127 -0.0729
21055W        W40589   9.608   9.960  12.701  0.0299 -0.0930 -0.3574
21056W        W40590   4.571   4.238  13.654 -0.0853 -0.0651 -0.4634
21057W        W40591  17.627  12.923  12.396  0.1084  0.1569 -0.1281
21058W        W40592  19.187  19.258   3.508 -0.0571 -0.0323  0.1966
21059W        W40593  16.786   1.299   1.773  0.1181 -0.1315 -0.0167
21060W        W40594   7.532  16.931  10.746 -0.0202 -0.1627  0.2903
21061W        W40595  14.154  14.718  13.130  0.0088  0.0823 -0.0675
21062W        W40596  10.655  18.300   0.276  0.0121  0.0049  0.2894
21063W        W40597   1.249  17.886   4.087 -0.2328 -0.2207 -0.0292
21064W        W40598  19.446  10.607   1.042  0.2591  0.0745 -0.1970
21065W        W40599  16.400   9.113  11.302  0.1589 -0.0919 -0.4244
21066W        W40600  15.379  12.180  12.517  0.4453 -0.2893  0.0202
21067W        W40601  14.184  10.170   9.389  0.3111  0.0204  0.1144
21068W        W40602   9.325   1.371  11.873 -0.0760 -0.0189 -0.1664
21069W        W40603  16.530  18.212  11.550  0.2443 -0.1090  0.3697
21070W        W40604  19.165   5.992   4.685  0.2155 -0.2071 -0.0500
21071W        W40605   2.575   2.756  12.918 -0.0156  0.0222 -0.3222
21072W        W40606  12.589  13.560   9.735  0.1031  0.1012 -0.1304
21073W        W40607  12.661   1.614  13.188  0.0104  0.0863  0.1019
21074W        W40608   8.698   1.904   0.144 -0.3750  0.1160  0.0446
21075W        W40609  14.086   7.737   1.519 -0.0988 -0.3415 -0.1408
21076W        W40610   3.358   2.367  10.929 -0.2234  0.2823  0.1295
21077W        W40611  11.304  15.642  12.127 -0.1502  0.0175 -0.2479
21078W        W40612  12.162  18.408   2.559  0.2594  0.0230  0.2576
21079W        W40613   7.040  15.477   0.954  0.1792 -0.0142  0.1789
21080W        W40614  14.445   4.708   3.461  0.2265  0.1338  0.1394
21081W        W40615   3.311  10.860  11.615  0.0991 -0.0172  0.1701
21082W        W40616  16.820   1.031  10.921 -0.2230 -0.0711 -0.0301
21083W        W40617   2.082   9.052   0.247 -0.1838  0.0923  0.1574
21084W        W40618   1.554   3.258   3.885  0.1256 -0.3145  0.0313
21085W        W40619   0.187  18.545  13.733  0.2241 -0.2581  0.0132
21086W        W40620   6.224  14.367  14.159 -0.1914 -0.0261 -0.0275
21087W        W40621  10.363   6.067   0.232  0.0392 -0.1584  0.1431
21088W        W40622   6.331   6.911   1.510  0.0920 -0.2022 -0.0205
21089W        W40623   7.124   8.976   4.379  0.2612 -0.2130 -0.2075
21090W        W40624   6.376   6.302  10.883  0.2357  0.0725 -0.1086
21091W        W40625   3.479  17.781   2.632 -0.2632  0.0453  0.2279
21092W        W40626  17.414  16.669   1.310 -0.0347  0.2538 -0.2102
21093W        W40627  19.127  18.765   0.653 -0.1136  0.0690  0.3938
21094W        W40628  10.638   0.173   2.324 -0.0819 -0.0796  0.0965
21095W        W40629   0.481  10.088  10.557  0.4646  0.0030 -0.0588
21096W        W40630  13.076   9.371   2.802  0.2593 -0.2364  0.2076
21097W        W40631  13.322   9.720  13.002 -0.0190 -0.1018 -0.1552
21098W        W40632  15.675  16.700   0.650 -0.0844 -0.2510 -0.0517
21099W        W40633   8.895   9.589  13.585 -0.2011  0.2592 -0.0149
21100W        W40634   7.342  19.537  14.050 -0.0308 -0.1920 -0.4056
21101W        W40635   2.659   6.814  13.108 -0.2604  0.0771  0.2004
21102W        W40636  18.694   4.255   2.323 -0.0843 -0.3185  0.3858
21103W        W40637   5.969   2.298  10.924  0.4059  0.3127  0.1412
21104W        W40638  11.251   7.295  10.657  0.0747  0.0510 -0.1879
21105W        W40639  13.608  10.093  12.261 -0.0086 -0.0120  0.0997
21106W        W40640   8.071   8.338  11.812 -0.1782 -0.4793 -0.0244
21107W        W40641  11.366  18.556   1.897  0.2286  0.1216  0.3240
21108W        W40642   9.715  14.351   9.858 -0.2268  0.1448  0.3386
21109W        W40643  15.566   1.621  10.362  0.0539 -0.1250  0.2849
21110W        W40644  19.268  15.314  10.405  0.0750 -0.1939 -0.0056
21111W        W40645   2.004   2.824  13.249 -0.1661  0.0916 -0.0600
21112W        W40646   6.282   7.239  11.713  0.1133  0.0632  0.0685
21113W        W40647  17.152  18.170   2.201 -0.2442 -0.1859 -0.2427
21114W        W40648  18.031  11.136   1.317  0.0738 -0.0029 -0.0407
21115W        W40649  12.651   3.254   3.757  0.2042 -0.0001  0.0229
21116W        W40650   9.791   7.981   3.219  0.1591 -0.3040  0.1543
21117W        W40651   4.528   5.178  12.454  0.1501 -0.0954  0.0431
21118W        W40652  10.108  12.186  14.043 -0.1104 -0.0119 -0.1986
21119W        W40653  18.097  14.097  14.039  0.1153 -0.2855  0.1952
21120W        W40654  15.524  13.801  11.789  0.2027 -0.3722 -0.0364
21121W        W40655   0.796   1.697  12.044 -0.2281  0.1775 -0.0960
21122W        W40656   9.938  16.955   2.642 -0.5189 -0.0981  0.1558
21123W        W40657   5.169  18.811   1.327  0.3191 -0.0309  0.0655
21124W        W40658   1.021   0.166  11.235 -0.0039 -0.1595  0.0260
21125W        W40659  16.333   8.781   4.571  0.2855  0.1690 -0.0336
21126W        W40660   3.909  14.273   1.906 -0.0663  0.0238 -0.2199
21127W        W40661   4.133  14.203  12.020 -0.1609 -0.1800 -0.0717
21128W        W40662   7.988   9.596  13.927  0.0401 -0.1359 -0.2167
21129W        W40663   7.720   9.165   2.106  0.2662  0.4452  0.0157
21130W        W40664   4.403   8.028   0.184 -0.2351  0.0485 -0.3021
21131W        W40665  14.302  17.408   0.151 -0.0008 -0.1789 -0.0963
21132W        W40666   1.817   3.588   1.462  0.0853  0.2738  0.2393
21133W        W40667   3.519  18.072   3.591 -0.0297 -0.0954 -0.0850
21134W        W40668  17.455  15.027  12.653  0.2460 -0.0493 -0.1375
21135W        W40669   3.075  16.964   3.144  0.1467  0.2951 -0.2411
21136W        W40670   6.130  16.919  13.394  0.3179  0.2630 -0.2708
21137W        W40671  18.476   8.876  11.825  0.0920 -0.2886 -0.3267
21138W        W40672  13.297  15.511  13.426 -0.0046 -0.0552 -0.0775
21139W        W40673  14.504   6.002  10.936 -0.0485 -0.0572  0.2046
21140W        W40674  17.770  13.228   1.951 -0.0243  0.1809  0.0897
21141W        W40675   2.801  15.964   3.066 -0.1253 -0.1313  0.1783
21142W        W40676   1.254   1.763  10.295 -0.0993 -0.1052 -0.0736
21143W        W40677   4.570   7.749  11.451 -0.0897 -0.1028 -0.2259
21144W        W40678   1.655  18.347   3.672 -0.1384 -0.0828 -0.0232
21145W        W40679  14.006  11.344  12.378  0.1345 -0.3905  0.1327
21146W        W40680  15.605  17.249   4.055  0.0613 -0.2164 -0.0360
21147W        W40681  11.687  18.668   0.946 -0.3072  0.2583  0.0484
21148W        W40682   2.402   2.354   3.651  0.1309 -0.3173 -0.0591
21149W        W40683  13.833  15.964  13.771  0.2701 -0.0681  0.3330
21150W        W40684   2.548  13.075   4.030 -0.2168 -0.0357  0.2212
21151W        W40685   4.470   6.671  10.550 -0.1293  0.2432  0.1281
21152W        W40686  10.247  19.072   0.786 -0.1668  0.0564  0.1176
21153W        W40687  11.520  18.324   3.392  0.0699  0.1315 -0.3149
21154W        W40688   7.352  17.080   3.729 -0.0277 -0.0474  0.0988
21155W        W40689  17.832  12.650   0.080 -0.0738  0.2277  0.0863
21156W        W40690  17.498   2.426  11.431  0.2534  0.0364 -0.1459
21157W        W40691   9.349   4.591  12.974  0.3566  0.3725  0.1854
21158W        W40692   5.088   7.731   1.872 -0.3177 -0.1720 -0.1834
21159W        W40693   0.230  15.564   2.018  0.2565 -0.1571  0.0257
21160W        W40694   7.115  16.716  13.075 -0.2697  0.1045 -0.1857
21161W        W40695   9.103  11.889   1.608 -0.0479 -0.1017 -0.1248
21162W        W40696  10.681   7.975  14.156 -0.0822 -0.1052  0.2948
21163W        W40697   1.592   0.110  12.790  0.1695  0.2112  0.1028
21164W        W40698  19.210   2.200   4.109  0.5305  0.0193 -0.0318
21165W        W40699   0.639  18.532   0.823  0.2084 -0.2240 -0.4346
21166W        W40700   6.854   2.068   2.739 -0.1560 -0.0554 -0.3244
21167W        W40701  13.666   7.484  13.090  0.0186  0.0013 -0.0386
21168W        W40702   4.851   3.394  10.584 -0.2500  0.0955  0.0776
21169W        W40703  18.686  10.367   3.819 -0.0595 -0.0805 -0.0752
21170W        W40704   2.537   4.157   3.325 -0.3621 -0.1834 -0.1530
21171W        W40705   9.739   6.959  12.151  0.1139  0.0060 -0.2371
21172W        W40706  15.003  16.760  11.349  0.3547 -0.0985 -0.1257
21173W        W40707  12.136   5.622   1.926 -0.4102  0.1348 -0.0623
21174W        W40708   3.410  13.694   0.587  0.0447  0.2073  0.0613
21175W        W40709   8.002  14.357  13.188  0.4058 -0.1765 -0.1264
21176W        W40710  11.989   4.683  10.108  0.1704  0.0731 -0.4572
21177W        W40711   6.541   5.636   0.173  0.2578 -0.2444 -0.1981
21178W        W40712  15.506  10.172   1.761  0.0993 -0.0285 -0.0371
21179W        W40713  10.948  15.810  12.472  0.3643  0.3556 -0.2226
21180W        W40714  13.487  18.528   2.185  0.3869  0.0133 -0.0229
21181W        W40715   3.287   1.646   2.672  0.0806  0.1159 -0.0486
21182W        W40716  11.320  14.075   2.317  0.0784  0.0786 -0.3425
21183W        W40717   4.767  18.588  10.860  0.2256 -0.2656  0.0441
21184W        W40718   0.953  15.767  12.179 -0.1808  0.0273  0.1666
21185W        W40719   2.390  13.638   2.582  0.0477 -0.3069  0.4190
21186W        W40720  10.964  12.237   0.338 -0.3028 -0.1083 -0.0210
21187W        W40721  15.609  16.775   1.129 -0.2666  0.1598 -0.4975
21188W        W40722   7.414   4.559  12.659  0.1046  0.0162  0.2597
21189W        W40723  13.641  16.128  12.694 -0.2611  0.0764 -0.0135
21190W        W40724   2.402  17.933   2.091 -0.0462 -0.0606 -0.1325
21191W        W40725   4.335  14.463  11.238 -0.0128  0.3244  0.3862
21192W        W40726  17.696   5.126  12.026  0.0891 -0.0323  0.0509
21193W        W40727   8.915  14.733   2.454 -0.0266  0.1337  0.1190
21194W        W40728   9.808  11.914  13.127 -0.2971  0.0863  0.1064
21195W        W40729  11.322  17.546   1.616 -0.2127 -0.0408 -0.0565
21196W        W40730   4.626   0.155  12.495 -0.0246 -0.2145 -0.0340
21197W        W40731   3.718  11.315   0.951  0.1414  0.1777 -0.1855
21198W        W40732  10.742  19.448   1.718  0.1859 -0.3488  0.0843
21199W        W40733   3.847   2.642  10.148  0.1148  0.1597 -0.1256
21200W        W40734  17.465  16.604  11.702 -0.3433 -0.0391  0.0350
21201W        W40735  13.872  18.374  13.691  0.0343  0.1892  0.2450
21202W        W40736   9.573   5.429   1.466 -0.1848 -0.0548  0.1123
21203W        W40737  17.133  15.821   3.769  0.0435 -0.2798 -0.0941
21204W        W40738  10.753   8.071   2.261 -0.0216  0.0720 -0.0557
21205W        W40739  14.034  11.866  10.207  0.0412  0.2590  0.0694
21206W        W40740   7.021   4.722  14.291  0.1799 -0.0689  0.0516
21207W        W40741   0.181  12.444  12.704  0.0649  0.1024 -0.2337
21208W        W40742  15.934   3.877  12.777  0.0367 -0.0238 -0.1845
21209W        W40743  18.383  16.444   0.349  0.2948 -0.0779  0.0560
21210W        W40744  17.013   9.067   1.746  0.0608  0.3512  0.2797
21211W        W40745  18.255   5.414   3.133  0.4286  0.0712 -0.0417
21212W        W40746   7.655  17.835  11.812 -0.1584 -0.4063  0.2695
21213W        W40747   1.109  12.724  10.281 -0.2080  0.2085 -0.0297
21214W        W40748  17.845   3.563   2.750  0.2517 -0.1031  0.0854
21215W        W40749   5.649  16.930   3.341 -0.1317 -0.3490  0.0090
21216W        W40750  14.794   5.591  11.123  0.2504 -0.2058 -0.0390
21217W        W40751   8.678   0.754   2.341 -0.1027  0.0509 -0.2290
21218W        W40752  18.505   8.272   0.769  0.0637  0.1349 -0.1733
21219W        W40753   5.907   6.230  10.230  0.0411  0.2678 -0.0908
21220W        W40754   3.849   1.821   9.351 -0.1507  0.2585  0.2518
21221W        W40755  13.929   9.181  14.284 -0.1996 -0.1647  0.0610
21222W        W40756  17.113  15.644  12.931  0.2398 -0.0520 -0.2128
21223W        W40757   5.129  15.140   2.280 -0.0874  0.3126 -0.0346
21224W        W40758  15.471  18.317  12.596 -0.0300  0.1052  0.0083
21225W        W40759   8.009   9.538   0.124 -0.4460  0.0643 -0.0820
21226W        W40760  11.106  12.474  14.180 -0.1009 -0.2821 -0.0076
21227W        W40761   6.157   2.500   3.963  0.1328  0.2602 -0.1369
21228W        W40762   3.663  12.631  11.751  0.1877  0.1544 -0.0158
21229W        W40763  16.568   1.776   0.097  0.0889 -0.0756 -0.0750
21230W        W40764  17.564  16.126  11.931 -0.1877  0.0979  0.1461
21231W        W40765  16.740   3.821   4.411  0.7022 -0.1634 -0.0886
21232W        W40766  18.470  10.401   1.830 -0.1965  0.1921 -0.0664
21233W        W40767   6.633  16.145  11.375 -0.0695 -0.4485 -0.1362
21234W        W40768  16.052   4.763   2.491 -0.0333  0.0292  0.1676
21235W        W40769  12.038   3.917  11.584  0.0227  0.0064 -0.1049
21236W        W40770   0.307   2.688  10.178  0.0631 -0.4481 -0.3471
21237W        W40771   1.584  17.391  13.632  0.1394  0.0558 -0.1605
21238W        W40772   1.815   4.035  13.789  0.0018 -0.3502 -0.0181
21239W        W40773  12.557   5.618  14.232 -0.2997 -0.0482 -0.0671
21240W        W40774   9.181  13.286  14.141 -0.1567  0.0666  0.0184
21241W        W40775   8.900  10.198   3.069  0.1915  0.2171 -0.0523
21242W        W40776   8.934   3.449  11.010 -0.1146  0.0178 -0.0121
21243W        W40777   7.843  16.426  13.670  0.2296  0.0076 -0.0362
21244W        W40778   5.511   8.888  11.411  0.1980  0.1629  0.1529
21245W        W40779   4.349   2.634   0.588 -0.2875 -0.0120  0.2718
21246W        W40780   6.491   0.282   1.317 -0.2405 -0.0801 -0.0040
21247W        W40781  19.347  18.351   3.682  0.3086 -0.0415  0.0553
21248W        W40782  13.128  19.346   4.266  0.2455 -0.0379  0.0252
21249W        W40783   7.147  16.739   3.465  0.2979  0.1960  0.0632
21250W        W40784   1.435  19.536   0.145 -0.1646  0.2824  0.1663
21251W        W40785   9.214  12.052   1.119  0.0726 -0.1476  0.0217
21252W        W40786  19.191   6.604  11.416  0.2807 -0.0499  0.2582
21253W        W40787  15.987   1.864   4.030 -0.0283 -0.1736 -0.1315
21254W        W40788   5.002   5.724  10.256 -0.1567  0.0340 -0.0797
21255W        W40789  14.840  14.736  12.804 -0.0116 -0.1575  0.0148
21256W        W40790   4.782  18.501   3.732  0.0096 -0.1084 -0.0359
21257W        W40791  11.948  11.512   3.491  0.2585  0.1334  0.3269
21258W        W40792   5.963  10.079  11.934  0.1309 -0.0826 -0.2034
21259W        W40793   1.003   8.134  14.199  0.0150 -0.2436  0.0804
21260W        W40794  13.041   4.537   1.625  0.0945  0.1238 -0.1051
21261W        W40795   1.949  11.143   0.621  0.0414 -0.1181 -0.0363
21262W        W40796  18.361  13.863   1.247 -0.1000  0.3433 -0.0385
21263W        W40797  14.063   7.967   2.087 -0.1434 -0.1589  0.2929
21264W        W40798  12.747  18.051  13.050 -0.1449 -0.2095  0.0787
21265W        W40799  15.843   7.595   0.653  0.2087  0.2221 -0.1135
21266W        W40800  19.308  13.287  10.660 -0.0320  0.1691  0.1104
21267W        W40801   1.238  18.420   3.876  0.2504 -0.0284  0.1451
21268W        W40802  16.713   1.539  13.112  0.0226  0.1744  0.1671
21269W        W40803  14.274   9.198  13.714 -0.1972 -0.0599 -0.0458
21270W        W40804   7.540   9.899   3.564 -0.0270  0.2000  0.0537
21271W        W40805  16.798   9.467   1.578 -0.0538 -0.0120 -0.0950
21272W        W40806  12.655   0.649  13.854 -0.2482 -0.3018 -0.0960
21273W        W40807  17.293  11.544  12.922  0.4188  0.0762  0.2476
21274W        W40808  18.956   5.614   0.030 -0.0601  0.0707 -0.5870
21275W        W40809   6.478  11.861   2.967 -0.3606 -0.1431 -0.0958
21276W        W40810  10.412   8.821  13.892  0.1769  0.0459  0.0661
21277W        W40811   9.485   9.863   4.177 -0.3712  0.0672  0.1309
21278W        W40812   3.890  14.588   2.731 -0.0027 -0.2234 -0.3796
21279W        W40813  18.463  11.632  10.460 -0.0046 -0.0639  0.0461
21280W        W40814   7.363   6.067   2.006  0.1174 -0.1943 -0.1115
21281W        W40815  17.937   0.392  12.756 -0.1154 -0.0844 -0.0080
21282W        W40816   9.697  14.334   0.651  0.1005  0.0196  0.0663
21283W        W40817   6.519  14.747   1.007  0.0237  0.1629  0.4258
21284W        W40818   7.766  10.994  12.263 -0.1535  0.1782 -0.0610
21285W        W40819  17.750  14.162   0.029  0.3637  0.0869  0.1998
21286W        W40820   9.257   9.619  12.540  0.1799 -0.0897 -0.1613
21287W        W40821   6.878  19.381   4.008 -0.0419  0.2530  0.0705
21288W        W40822  18.172   3.384  12.613  0.3210  0.0814  0.0114
21289W        W40823  16.107   3.169  13.377 -0.2692 -0.1982 -0.1188
21290W        W40824  13.652  11.102   1.556  0.3435 -0.2791  0.3779
21291W        W40825  18.345   1.171  14.033 -0.0110 -0.2196 -0.1801
21292W        W40826   7.956   7.886  10.992 -0.5199  0.2841 -0.2016
21293W        W40827   1.814  18.372  12.877 -0.3413 -0.3259 -0.0274
21294W        W40828   3.567   8.761   3.029  0.2313 -0.2708  0.1979
21295W        W40829   3.028   2.944  11.618  0.1214 -0.0705 -0.1908
21296W        W40830   4.051  16.392  13.925 -0.5419  0.0155  0.0778
21297W        W40831   9.709   8.964  11.108 -0.0568  0.0358 -0.0020
21298W        W40832  15.799   9.957  10.409  0.2000 -0.0269 -0.1565
21299W        W40833   0.925   9.199   2.526  0.0886  0.1974  0.0138
21300W        W40834  14.375  16.179  11.590 -0.1058 -0.1581 -0.1026
21301W        W40835  15.831  12.177   3.251 -0.0583  0.1718  0.0601
21302W        W40836   0.615  11.143   9.933  0.2929 -0.0201  0.0514
21303W        W40837   0.469  10.038  13.535  0.1837  0.0431  0.3354
21304W        W40838  18.612  11.344  13.806 -0.2997 -0.1626  0.2437
21305W        W40839   8.689   5.362   9.485  0.0193 -0.3217 -0.0260
21306W        W40840  12.103  15.727   2.444  0.0836  0.0892  0.4897
21307W        W40841   7.005   1.367  12.287 -0.1329  0.0424  0.3400
21308W        W40842   8.101   4.796   3.258  0.2857 -0.1447 -0.1618
21309W        W40843  10.676   8.714   0.260 -0.1361 -0.0275 -0.1454
21310W        W40844  14.887  11.503  13.014  0.1181 -0.1082 -0.1180
21311W        W40845  12.398  12.081  12.882 -0.1756 -0.0940  0.1341
21312W        W40846  10.845  14.460  11.106  0.1376 -0.0081 -0.1394
21313W        W40847   0.861  16.477  11.858 -0.0745  0.0992  0.1297
21314W        W40848   9.918  16.954   1.290  0.1327  0.2032 -0.4162
21315W        W40849  11.115   3.778  10.936 -0.0771  0.0994 -0.1874
21316W        W40850  12.934   8.896  12.631  0.2781  0.2057  0.3001
21317W        W40851   1.335   3.409  12.213  0.2401  0.2124  0.3853
21318W        W40852   6.424  11.596   4.334  0.0439 -0.0540 -0.2368
21319W        W40853   2.362  15.651  14.170 -0.2861  0.2066 -0.2125
21320W        W40854  11.750   3.585   2.415  0.1844  0.1546  0.1669
21321W        W40855  18.093  16.884   3.010  0.5537  0.0055 -0.2758
21322W        W40856  17.143  15.554   4.200  0.2414 -0.1928  0.1095
21323W        W40857   8.240   7.127  11.010  0.2607 -0.0035  0.1896
21324W        W40858  12.159  16.591  12.607  0.0788  0.0327  0.1683
21325W        W40859   1.175   2.957  11.296  0.0727 -0.1377  0.0005
21326W        W40860  11.192  10.056  11.924  0.0372 -0.1745 -0.2036
21327W        W40861  10.874   4.799  12.580 -0.0810 -0.0416  0.0636
21328W        W40862   4.476  16.982  12.921 -0.1904  0.3561  0.0354
21329W        W40863  18.194   5.427  10.725 -0.1557  0.0149  0.0878
21330W        W40864   1.869   6.720  11.318  0.0131  0.2274  0.0345
21331W        W40865   4.421  12.127   0.940  0.0068  0.0108  0.0410
21332W        W40866  15.647   2.420  12.285 -0.3291  0.2537  0.1911
21333W        W40867  18.841  19.323   3.005  0.1797 -0.3148  0.5959
21334W        W40868  10.942  12.995  14.143 -0.0681 -0.1577 -0.0706
21335W        W40869  11.844   0.377  14.338  0.2527 -0.1069  0.0815
21336W        W40870   1.112   2.856   2.593  0.3661  0.1640  0.0181
21337W        W40871   5.092  18.426   2.876  0.0807 -0.0097 -0.0968
21338W        W40872   8.872  13.434   2.155 -0.1906  0.0720  0.1189
21339W        W40873  12.286   4.251   0.541  0.0369  0.0436 -0.0100
21340W        W40874  18.117  13.559   2.190  0.1072 -0.1563 -0.1382
21341W        W40875  15.455   8.613   0.779 -0.0257  0.2074  0.0918
21342W        W40876   4.561  17.584   3.540 -0.1132 -0.0938 -0.0402
21343W        W40877   0.603  18.338  11.699  0.1441 -0.2975 -0.4727
21344W        W40878  11.918  12.479   0.432 -0.0131 -0.1803 -0.0175
21345W        W40879  16.059  13.575  14.098  0.0699 -0.2106  0.0205
21346W        W40880   7.593   1.470  11.275 -0.3318 -0.1177 -0.0246
21347W        W40881   8.157   9.898   2.444  0.0679  0.0610 -0.6050
21348W        W40882   2.987   1.659   1.739 -0.0645  0.1644  0.1959
21349W        W40883   9.362  11.023  14.177 -0.0428 -0.0465 -0.2604
21350W        W40884  16.243   6.135   3.721 -0.0529 -0.3864  0.2130
21351W        W40885   0.526   8.269  13.584 -0.2459 -0.0798 -0.1436
21352W        W40886  12.155   4.908  10.596 -0.0304 -0.0289  0.1746
21353W        W40887  10.177  18.004  10.901 -0.1989  0.0760 -0.0830
21354W        W40888   8.426  18.835  14.112  0.0009  0.0016  0.2362
21355W        W40889  17.687  16.366   5.090  0.1612 -0.0309 -0.2060
21356W        W40890   6.611   5.968   3.720 -0.0607  0.2424 -0.0075
21357W        W40891  16.503   4.252   2.401  0.0722  0.0498  0.0785
21358W        W40892  10.652  18.935   0.431  0.4510  0.2899 -0.0795
21359W        W40893   4.947  11.379   3.706  0.3268  0.0299  0.0693
21360W        W40894   4.436  10.694  13.221 -0.0038 -0.0389  0.1097
21361W        W40895   9.629   0.508   1.563 -0.1990  0.0673 -0.1851
21362W        W40896  14.806   2.861   0.623  0.0545  0.0751 -0.2546
21363W        W40897   7.439   0.582  14.213 -0.0611 -0.2216  0.1203
21364W        W40898   5.213   1.670  13.160  0.0247 -0.2567  0.0884
21365W        W40899  14.842   1.056   4.338 -0.0311 -0.1982 -0.1826
21366W        W40900  19.210  17.882   3.393  0.3196 -0.0144 -0.1065
21367W        W40901  18.136   2.678  10.858 -0.1482  0.1939  0.0916
21368W        W40902  13.236  18.877   0.320 -0.0889 -0.1165  0.2887
21369W        W40903  14.202  18.139  12.699 -0.1120  0.0696 -0.0248
21370W        W40904  16.859   3.287   0.424  0.1479  0.2043  0.0385
21371W        W40905  17.962   0.114  12.268 -0.2716 -0.2102  0.0427
21372W        W40906  12.232   9.459  10.507 -0.0590 -0.2485 -0.0521
21373W        W40907  16.440   9.169   1.882  0.2558 -0.1120  0.0740
21374W        W40908  15.255  10.379  11.616 -0.0804 -0.0721 -0.0384
21375W        W40909  10.300   9.888   0.612 -0.0610  0.2764  0.1037
21376W        W40910   7.697  14.522  10.949 -0.0989  0.0083 -0.1588
21377W        W40911  13.809   9.170  10.986  0.2721 -0.3544  0.1690
21378W        W40912   7.631   3.035   2.426  0.3656  0.3417 -0.2090
21379W        W40913   5.446  14.979  12.781 -0.0625 -0.0214  0.0861
21380W        W40914  17.094  15.981  11.093  0.1629 -0.0698 -0.1899
21381W        W40915  15.968  14.404   2.828 -0.3172  0.1064 -0.4269
21382W        W40916   9.363   8.575   0.749  0.3084 -0.2251 -0.0206
21383W        W40917  10.422   7.156  12.786 -0.0798  0.0510 -0.1498
21384W        W40918   3.612  17.690   0.327  0.2821 -0.1070  0.2242
21385W        W40919  10.723  18.615  13.837 -0.0576 -0.1148 -0.0883
21386W        W40920   3.256  15.618  13.145  0.3137 -0.0065  0.2162
21387W        W40921  12.783   2.487   0.183 -0.0117  0.1796  0.2754
21388W        W40922   7.726   1.887   3.480 -0.2878 -0.1212  0.1266
21389W        W40923   4.862  16.130  10.975  0.2311  0.1759  0.1010
21390W        W40924   9.736   9.605  13.119  0.5323 -0.3946 -0.1158
21391W        W40925   5.724   2.252   3.155  0.1521  0.0555 -0.0345
21392W        W40926   2.106  15.832  10.319 -0.3589  0.2993  0.0169
21393W        W40927  11.240  14.710   2.160 -0.1187 -0.4071  0.0769
21394W        W40928  17.432   3.989  10.337 -0.2490  0.4477 -0.0914
21395W        W40929  13.170   4.271   3.309  0.4203 -0.0066  0.0184
21396W        W40930   8.224  11.468  12.925 -0.0673  0.0222  0.0625
21397W        W40931  16.713   3.186   0.957  0.1554  0.0572 -0.0255
21398W        W40932  19.008   8.087   3.157  0.1061 -0.1285  0.0340
21399W        W40933  17.262  13.531   1.791  0.2458 -0.3111 -0.1512
21400W        W40934   2.260   9.465   3.423 -0.1428 -0.2229 -0.0323
21401W        W40935  16.064  17.380  13.468 -0.1230  0.0693 -0.0950
21402W        W40936  17.690  13.868  13.568 -0.0434  0.3077  0.1669
21403W        W40937   9.031  11.470  14.073  0.2046  0.0676 -0.0178
21404W        W40938   4.361  13.844  14.252 -0.1609 -0.1374 -0.1748
21405W        W40939   3.816  18.839  11.895  0.1451 -0.1488 -0.0619
21406W        W40940  12.897   4.038  13.457 -0.0913  0.2150 -0.0420
21407W        W40941   3.785  10.403   9.383  0.2285 -0.4622  0.2046
21408W        W40942  19.071   9.799  10.102  0.1137  0.2899  0.1567
21409W        W40943  15.500  10.763   2.707  0.0234  0.0066 -0.0290
21410W        W40944  13.449   2.442   4.206  0.0057 -0.0287  0.0012
21411W        W40945   1.009  17.121   3.155  0.5566  0.2001  0.0778
21412W        W40946   2.555  11.499   0.259  0.1222  0.0729  0.0856
21413W        W40947  13.947   6.272  12.472 -0.0980 -0.0312  0.2086
21414W        W40948  12.673   2.940   1.730 -0.0892  0.1791  0.1443
21415W        W40949  16.903   3.881   3.660 -0.0625  0.0180 -0.0284
21416W        W40950   8.035   3.713  10.949  0.0638 -0.5292  0.0424
21417W        W40951   9.102  18.341  13.114 -0.2762 -0.0154  0.0232
21418W        W40952  18.614   9.389   3.926  0.1017  0.0851  0.0219
21419W        W40953   9.597  15.364  12.172  0.1469 -0.0035 -0.0037
21420W        W40954   5.874   0.298  10.316 -0.0902  0.1302 -0.0404
21421W        W40955   5.815  10.738   2.221 -0.0466  0.0288  0.2480
21422W        W40956  15.957   6.743  10.586 -0.1371 -0.1387  0.2832
21423W        W40957  18.514  12.550   1.260  0.0298 -0.0940 -0.4755
21424W        W40958   7.693  12.318  14.123  0.0224 -0.1716  0.1687
21425W        W40959   0.796   8.598  12.737 -0.2847 -0.0344  0.2441
21426W        W40960  18.559   7.859  11.085  0.0608 -0.1170  0.0614
21427W        W40961  15.197  17.099   0.996  0.2316 -0.2654  0.1765
21428W        W40962   8.286  17.884  10.369  0.1755 -0.0232  0.2607
21429W        W40963   9.098  11.576   3.420  0.0420 -0.2538 -0.3101
21430W        W40964  14.857  14.594  10.958 -0.0513  0.0609  0.2214
21431W        W40965   6.870   6.440   5.364 -0.3321 -0.0076 -0.1113
21432W        W40966  11.350  18.415  12.522  0.0379 -0.3299 -0.1177
21433W        W40967   0.646  11.966  11.099  0.4641 -0.0273  0.2234
21434W        W40968   1.461  10.271   1.978  0.2786  0.0066 -0.2141
21435W        W40969  16.674  16.139   3.034  0.2693  0.3265  0.1326
21436W        W40970   9.428   1.728  10.616 -0.1487 -0.0762 -0.2414
21437W        W40971   6.092  18.626   4.043 -0.1496 -0.1286  0.1036
21438W        W40972   7.949  14.943   0.892 -0.1966 -0.0677  0.0785
21439W        W40973  12.722  10.918   0.886 -0.0864 -0.1117  0.0036
21440W        W40974   2.639   0.144  13.947  0.2851 -0.0304  0.0338
21441W        W40975  12.512  13.877  10.669 -0.0038  0.1629  0.3628
21442W        W40976  15.136  11.700   9.646 -0.3657  0.3657 -0.0183
21443W        W40977  16.741  11.579   1.245 -0.2540 -0.3391 -0.2377
21444W        W40978   8.801   3.431   0.792  0.1664  0.0466 -0.1060
21445W        W40979  16.991  16.846   9.437  0.1533 -0.1844 -0.0244
21446W        W40980  16.742   6.693   1.280 -0.2946  0.2779  0.2277
21447W        W40981   2.039   2.011   2.791 -0.1656  0.0276 -0.1725
21448W        W40982   6.433  17.056  10.849 -0.2052  0.3570 -0.3495
21449W        W40983   9.550  15.958  13.894  0.2092  0.0100  0.0032
21450W        W40984   1.976  15.020   4.377 -0.2641 -0.1339  0.2801
21451W        W40985  15.935   8.659   4.826  0.1876  0.0659  0.1134
21452W        W40986   1.988   3.899   2.062  0.1845  0.0282  0.0182
21453W        W40987  13.753   3.581   3.995 -0.0763  0.0757  0.3491
21454W        W40988  16.256  17.717   1.239  0.2428  0.0599 -0.0223
21455W        W40989  14.899  10.586   2.066  0.2646  0.0620 -0.0922
21456W        W40990  18.612   3.402   1.816 -0.1140  0.0724  0.1475
21457W        W40991   4.558  10.529   1.521 -0.4620 -0.2531 -0.1078
21458W        W40992   5.985   8.643  12.437  0.1722  0.0919 -0.1731
21459W        W40993  10.657  16.802  12.764 -0.0473  0.2556 -0.0309
21460W        W40994  12.598   4.945   2.717 -0.1239 -0.0593 -0.0836
21461W        W40995   0.957  14.342  11.238 -0.0855 -0.0303 -0.1209
21462W        W40996  16.304   2.523   0.063 -0.1166 -0.0331  0.1791
21463W        W40997   2.443  19.310  12.234 -0.0511 -0.2086 -0.1350
21464W        W40998   1.563   9.541  10.841 -0.3227 -0.4769  0.1409
21465W        W40999   8.513   4.891  14.320  0.0132  0.1027  0.3496
21466W        W41000   8.884  15.695   9.528  0.2579  0.0765 -0.4965
21467W        W41001   4.383  14.128  13.228  0.2415 -0.1198  0.1129
21468W        W41002   0.897  18.566   9.886 -0.3136  0.0952  0.1365
21469W        W41003  15.039  18.132   2.999  0.0200  0.2216  0.1060
21470W        W41004   8.295   9.266  11.631 -0.0284 -0.0943  0.0418
21471W        W41005   8.048   1.295   1.704 -0.3480 -0.3059 -0.0442
21472W        W41006  10.292   8.102  12.206  0.1155  0.0837 -0.1541
21473W        W41007  17.259  16.135  13.300  0.4703  0.1362  0.0243
21474W        W41008  16.390   8.442  13.276 -0.2093 -0.0079  0.0222
21475W        W41009  12.905  12.539  13.732  0.0301 -0.1679 -0.0618
21476W        W41010  16.048  11.970   4.495 -0.2365  0.1601 -0.0182
21477W        W41011   7.893   9.171  12.941 -0.0082  0.1897  0.0732
21478W        W41012   6.024   2.867   1.208  0.0757  0.0890  0.2904
21479W        W41013  11.691  14.793   1.904 -0.1579  0.0667  0.1369
21480W        W41014  18.554  13.792  10.383 -0.0643 -0.1225 -0.1598
21481W        W41015  15.112  16.112  10.374  0.0824 -0.0467  0.1686
21482W        W41016   3.344  12.263   1.187 -0.0748 -0.3337  0.0046
21483W        W41017   0.452   5.791   3.223  0.2051  0.4619  0.0765
21484W        W41018  17.681  18.544  10.327 -0.1108  0.2799 -0.0105
21485W        W41019   0.583  14.028  12.976  0.0902 -0.1462  0.1786
21486W        W41020  18.666  14.375  11.443 -0.0179 -0.1731  0.3448
21487W        W41021  11.673  16.005   2.482 -0.2125  0.2845  0.1371
21488W        W41022   0.348   5.486   2.705  0.0040 -0.1703 -0.0793
21489W        W41023   9.063   7.854   3.106  0.0070 -0.0946 -0.0369
21490W        W41024   4.351   1.348   3.265  0.3583  0.2550  0.0812
21491W        W41025   2.894   5.735  11.739  0.0621  0.0179 -0.0514
21492W        W41026  16.164   6.174  13.293 -0.0912 -0.0997  0.0272
21493W        W41027   0.413   5.517   1.610 -0.2197  0.3456 -0.2026
21494W        W41028  15.274   9.468  10.860 -0.2008  0.1669  0.1291
21495W        W41029   8.221   5.080   1.965 -0.2123  0.1854 -0.1650
21496W        W41030  17.152   0.270   1.396  0.2445  0.2635 -0.0291
21497W        W41031   3.365   3.032   2.802  0.2955  0.1775 -0.0604
21498W        W41032  15.531   4.678   0.312  0.2211 -0.2418  0.1241
21499W        W41033  16.999   2.906   5.329  0.2710  0.0403  0.6006
21500W        W41034  15.066  13.665  11.403  0.2272 -0.0349  0.1070
21501W        W41035   5.332  15.209   0.667  0.1192 -0.1428 -0.1108
21502W        W41036   4.793   5.719  14.025 -0.0878  0.1111  0.0089
21503W        W41037   2.114   3.639   3.184 -0.1131  0.3422  0.1446
21504W        W41038  15.128   5.869   0.787  0.0757 -0.0008 -0.0198
21505W        W41039  16.015  11.516  12.585  0.3480  0.1953 -0.1346
21506W        W41040  17.456   2.729  14.325 -0.0294  0.2672 -0.0085
21507W        W41041   9.982  10.040   1.820 -0.1682  0.0000  0.3951
21508W        W41042  19.042  18.434   4.928  0.0131  0.0755 -0.1078
21509W        W41043  18.949  16.443   2.462 -0.0143  0.0443 -0.2288
21510W        W41044  12.452   0.907  12.606 -0.0083 -0.0705 -0.0541
21511W        W41045   1.157   4.857   1.733 -0.1697  0.3938  0.3290
21512W        W41046  12.256  16.254   1.662 -0.0289  0.3890  0.1394
21513W        W41047   7.227   5.064  11.512  0.1089  0.2356  0.0337
21514W        W41048   9.435  16.613   2.111 -0.0286 -0.1531  0.0204
21515W        W41049  12.718  15.973  12.806 -0.0478 -0.0059 -0.3289
21516W        W41050   9.107   5.036  10.716 -0.2068  0.0565  0.1939
21517W        W41051   9.700  16.230  13.344  0.1160 -0.0895 -0.3784
21518W        W41052   9.325  15.501  12.663 -0.1770 -0.2363  0.0375
21519W        W41053   5.071   8.428   1.214 -0.1860 -0.2697 -0.1895
21520W        W41054  13.071   7.183  10.465  0.0182  0.1910 -0.1924
21521W        W41055  13.065  14.026   2.345  0.0703 -0.0888  0.0651
21522W        W41056  10.771   6.972  11.957  0.1529 -0.2229  0.0986
21523W        W41057  17.804   7.668  12.279  0.0129  0.1347  0.0039
21524W        W41058  17.154   3.291  12.494 -0.1030 -0.0428 -0.0274
21525W        W41059   0.475  15.162  10.742 -0.0050  0.1598 -0.1184
21526W        W41060   9.742  12.303  10.971  0.2592  0.0638  0.1736
21527W        W41061   0.641  16.658   2.442  0.1202 -0.3837 -0.1063
21528W        W41062   5.008  10.735  11.105 -0.0008 -0.2547 -0.0106
21529W        W41063   5.952  14.824   2.332 -0.0854 -0.0974 -0.0431
21530W        W41064   3.917   1.118   2.348 -0.1702 -0.0148 -0.1719
21531W        W41065  14.960  12.846   3.049  0.0400 -0.0820 -0.1188
21532W        W41066   9.545   9.393   3.654 -0.0406  0.1243  0.0418
21533W        W41067  16.694  17.026   2.069  0.2677  0.1757  0.2407
21534W        W41068   3.694  12.681   1.226  0.0735 -0.1959 -0.2614
21535W        W41069   4.024  10.801  10.546  0.1367  0.1633  0.0544
21536W        W41070  15.986   5.173  13.265 -0.2376  0.2156 -0.0794
21537W        W41071   6.713  10.817   1.627 -0.1161 -0.0158 -0.1951
21538W        W41072  16.430   1.930  12.983  0.1409  0.2947 -0.1087
21539W        W41073  14.602   1.832  12.711  0.1685 -0.3624 -0.0040
21540W        W41074  16.472   3.790   2.742 -0.2204 -0.0701 -0.1984
21541W        W41075   5.106  12.349   1.372 -0.0673  0.3163 -0.0992
21542W        W41076  10.149  18.923  12.493  0.4232  0.1618  0.3008
21543W        W41077  13.757  12.476   1.185 -0.0455  0.0616  0.0469
21544W        W41078   8.083   1.211  11.296  0.1457  0.2836 -0.0240
21545W        W41079  18.842  19.360   2.156  0.1434  0.1581 -0.1910
21546W        W41080   3.808  19.230  12.138 -0.0612  0.1491 -0.0410
21547W        W41081  12.623  15.350  12.727  0.3069 -0.1365 -0.1280
21548W        W41082   0.789   5.444   3.497 -0.2568 -0.2407 -0.0465
21549W        W41083   5.113   4.660   4.110  0.0385  0.1793 -0.0675
21550W        W41084  12.486   9.127   1.380 -0.0751  0.2132 -0.0609
21551W        W41085  17.005  12.902   2.776  0.3367  0.1592  0.1430
21552W        W41086  12.945  12.242  10.742 -0.2743  0.0576 -0.0365
21553W        W41087  11.937  12.421  14.274  0.2930  0.1181 -0.1752
21554W        W41088  14.647  14.946  13.276  0.1677  0.0332 -0.2244
21555W        W41089  15.420   5.575   1.955 -0.0304 -0.2168 -0.2053
21556W        W41090   8.085   7.663   1.611  0.0007  0.0772  0.0991
21557W        W41091  16.204   5.553  12.586 -0.2304  0.0271 -0.0815
21558W        W41092  11.975   7.362  13.562  0.1867 -0.0549 -0.0694
21559W        W41093  11.245   8.019   0.375 -0.1628 -0.1074 -0.0244
21560W        W41094  13.554  16.351  14.127  0.0639  0.1269 -0.1470
21561W        W41095   9.802  13.898  10.038  0.0224  0.4345 -0.1664
21562W        W41096  11.013   8.371   0.074 -0.2213 -0.2154 -0.0560
21563W        W41097  19.263   0.340   2.767  0.0329  0.1013 -0.2236
21564W        W41098  19.185   5.078   2.871  0.1751  0.1365 -0.1408
21565W        W41099   6.196  13.499  10.626 -0.0439  0.0831 -0.0389
21566W        W41100   6.967   6.042   3.245 -0.0723 -0.0646 -0.1644
21567W        W41101  12.315   8.556   0.720 -0.0613 -0.0384  0.4716
21568W        W41102   3.107  11.246  12.433 -0.3148  0.0103  0.0405
21569W        W41103  13.981  16.548   0.913  0.2601 -0.0424 -0.0120
21570W        W41104  14.698   3.114   1.784 -0.2656 -0.6350  0.0707
21571W        W41105  12.808  17.965  10.926 -0.0390 -0.1050  0.0500
21572W        W41106  12.179  13.017  13.379 -0.0715  0.0297  0.0450
21573W        W41107   4.744  17.798  12.062 -0.0269 -0.0640 -0.0376
21574W        W41108   6.124   4.150  10.755  0.1531  0.1400 -0.2778
21575W        W41109   3.898   7.173  13.780  0.1501  0.1115  0.2038
21576W        W41110  17.548   7.698   1.569 -0.2278  0.0788  0.0779
21577W        W41111  17.589  18.979   2.328  0.1803 -0.4450 -0.2217
21578W        W41112  10.254   7.639  11.968 -0.1239  0.1232  0.0295
21579W        W41113  15.441  13.925  13.046 -0.3593  0.2075 -0.0512
21580W        W41114  18.898  16.936   1.096 -0.0392  0.2301  0.0283
21581W        W41115   1.029   6.972  11.031  0.1887  0.1095  0.0285
21582W        W41116  11.712   5.723   1.139  0.1924 -0.2185 -0.0273
21583W        W41117   2.532   6.253  13.362  0.0816 -0.1303  0.1120
21584W        W41118  12.397  17.569  13.830  0.1702  0.2667  0.1105
21585W        W41119  15.530   3.707  14.250  0.1608  0.0325 -0.0996
21586W        W41120  14.178  19.140   2.400 -0.0929  0.2157  0.1785
21587W        W41121   7.210   2.628   2.296  0.0208 -0.0708  0.0010
21588W        W41122   3.167   7.961   1.381 -0.3084  0.1610 -0.0197
21589W        W41123  15.289   0.211   0.116  0.0998 -0.2376 -0.0872
21590W        W41124  18.227  15.430  12.684 -0.3686 -0.1410  0.0667
21591W        W41125  14.407  18.181  13.751  0.0671  0.1493  0.2244
21592W        W41126   9.729   5.920   0.121  0.1451  0.2631  0.0324
21593W        W41127   6.040  18.829   0.944 -0.0669 -0.0740  0.0985
21594W        W41128  18.965  18.906   2.410 -0.0787 -0.0576  0.1300
21595W        W41129  17.519   8.830  11.221  0.1610 -0.2791 -0.0065
21596W        W41130  18.723  16.149  12.065  0.1449  0.0762  0.1569
21597W        W41131  16.410   2.391   0.573 -0.0291 -0.3791  0.2910
21598W        W41132   5.674   3.661  11.433  0.0373 -0.1497  0.0853
21599W        W41133   5.930  15.117   3.300  0.1792 -0.1948  0.0543
21600W        W41134   0.501  19.027  11.682 -0.1898 -0.2467 -0.1324
21601W        W41135   9.003  10.184  10.872  0.1676 -0.3295 -0.1845
21602W        W41136   4.741  15.402   2.044  0.0940 -0.1662  0.1345
21603W        W41137   5.422  15.425  10.563 -0.0466 -0.2909  0.3301
21604W        W41138  19.485   8.460  10.452  0.1245  0.1018 -0.1670
21605W        W41139   2.465   9.130   3.749  0.1187 -0.0526 -0.1009
21606W        W41140   8.012  13.302   3.790 -0.0938  0.3877  0.0565
21607W        W41141   7.943  12.754  14.286  0.3466 -0.1342 -0.2582
21608W        W41142   2.012  13.538  11.496  0.2216  0.2713 -0.0021
21609W        W41143  18.151  14.145  13.508  0.0672 -0.1625  0.3045
21610W        W41144  14.672  16.101  10.647  0.1561  0.3290 -0.1802
21611W        W41145   9.987  12.922   2.285  0.2328  0.1627  0.4016
21612W        W41146  14.162   2.830  10.140 -0.0334 -0.0592 -0.1045
21613W        W41147  11.168  14.548   3.124  0.4457  0.3451  0.1577
21614W        W41148  10.384   5.268  11.966 -0.0649 -0.0013  0.4103
21615W        W41149  13.394  16.011  10.726  0.3727 -0.1736  0.3105
21616W        W41150  15.033  15.344   2.336 -0.0075  0.0671  0.1604
21617W        W41151   0.863  18.086   3.761 -0.0578 -0.0016  0.0083
21618W        W41152  19.048  12.500  10.654  0.1643 -0.0845  0.1907
21619W        W41153  10.598   0.391   1.757  0.0388  0.2504 -0.0462
21620W        W41154   1.630   5.449   0.967 -0.1378  0.1456 -0.0881
21621W        W41155   6.402  11.045  11.715  0.3373 -0.2535 -0.0565
21622W        W41156  17.507   8.552  13.471  0.3715 -0.0953  0.1190
21623W        W41157   7.182   1.410   0.603 -0.1530 -0.1551  0.0736
21624W        W41158   9.780   3.470  11.972  0.1806  0.2403  0.4293
21625W        W41159   3.046  10.755  12.471  0.0141 -0.2672  0.1387
21626W        W41160  12.935  15.242  10.380  0.0862  0.1150  0.1438
21627W        W41161   6.168  11.162   1.880  0.0832 -0.3380 -0.0575
21628W        W41162  10.599   5.385   2.226 -0.3162 -0.2346 -0.0645
21629W        W41163  18.955   3.122   3.515 -0.0161 -0.1131 -0.3799
21630W        W41164   4.276   7.612   3.524 -0.5145  0.2326  0.1454
21631W        W41165  17.875  12.924   3.350  0.1265  0.4056  0.0686
21632W        W41166   8.986  16.218  12.442 -0.3325 -0.3553 -0.1406
21633W        W41167  13.782  13.967  11.576 -0.1152 -0.1396 -0.0793
21634W        W41168   9.682  15.105   1.370  0.1499  0.1421 -0.0972
21635W        W41169   2.606  10.141   0.975  0.0756  0.0873  0.2150
21636W        W41170  16.395  19.217   0.938 -0.0298  0.2844 -0.0051
21637W        W41171  12.473  16.198  13.193 -0.0396  0.2265 -0.1022
21638W        W41172  10.711   3.309   9.507 -0.1196 -0.3732 -0.0722
21639W        W41173   5.823  18.019   1.764 -0.3408  0.1878  0.0865
21640W        W41174   2.402   0.553   2.650 -0.0156  0.2523 -0.2362
21641W        W41175   6.171   0.059   9.924  0.1314  0.1005 -0.5114
21642W        W41176  17.118  10.454   3.482 -0.1867  0.0148 -0.1777
21643W        W41177   6.874  17.566   2.054  0.0119 -0.0993  0.2725
21644W        W41178   2.208   6.479  10.834  0.2650  0.1113  0.0283
21645W        W41179  17.182   6.215   3.909 -0.1148  0.0318  0.1693
21646W        W41180   0.482  13.017   0.388 -0.0027  0.0446 -0.0558
21647W        W41181  16.175   8.294  13.735  0.3102  0.0635  0.2154
21648W        W41182  13.086  11.888   1.422  0.3581  0.0572  0.0632
21649W        W41183   2.693  16.530   2.328  0.3434  0.0890 -0.1204
21650W        W41184   2.479  13.177   2.774 -0.2372  0.1279  0.1762
21651W        W41185   4.137   5.082   2.826  0.0928 -0.1072 -0.1372
21652W        W41186   1.229   1.382   1.663  0.3830  0.0592 -0.2542
21653W        W41187   1.155   7.435   2.534  0.0121 -0.0283  0.2003
21654W        W41188  18.457   5.399   9.848 -0.1246  0.2097  0.1037
21655W        W41189   8.711  19.140  11.804  0.0620  0.0174  0.4190
21656W        W41190   1.484  11.885  10.658  0.2503  0.0047  0.1617
21657W        W41191   9.682   6.653   3.857  0.1864  0.1179  0.1901
21658W        W41192   3.049   9.376   2.279  0.3755 -0.0516  0.1187
21659W        W41193  17.902  17.187   9.255  0.4068  0.2168  0.1918
21660W        W41194   7.876   9.683   3.322  0.0762  0.1732 -0.3912
21661W        W41195   2.594   8.619   9.588  0.0023  0.5004  0.0880
21662W        W41196   2.980   4.995   3.734 -0.1359  0.3669 -0.1203
21663W        W41197  17.451  18.188   2.629 -0.0629 -0.1943  0.0952
21664W        W41198  15.798   3.470   2.214 -0.0542  0.1723  0.0265
21665W        W41199   8.130  14.205  11.876 -0.1345  0.1949  0.3163
21666W        W41200   2.106   8.494   1.920  0.2146  0.0848  0.2416
21667W        W41201   2.252  14.017   4.499  0.0961 -0.0444  0.0260
21668W        W41202  13.654   6.154  12.866 -0.0194 -0.2481 -0.0413
21669W        W41203  16.794   1.218   0.530  0.1928  0.0256 -0.1573
21670W        W41204  18.157  18.413  12.828 -0.3418  0.0412 -0.1170
21671W        W41205  11.516   5.856   3.243  0.2841 -0.0730 -0.1369
21672W        W41206   0.831   6.702  14.002  0.1350 -0.2208 -0.1392
21673W        W41207   6.063  12.923  12.325 -0.1719 -0.1183 -0.0983
21674W        W41208  19.258  19.201  10.985 -0.0260 -0.2562  0.1739
21675W        W41209  14.787  17.662   0.314 -0.2630 -0.2436 -0.0377
21676W        W41210   9.560  12.669   1.303 -0.1835  0.2529 -0.1479
21677W        W41211   4.799  13.030  12.325  0.1254 -0.0606 -0.2167
21678W        W41212  15.452  10.106  12.502  0.1458  0.0594  0.1345
21679W        W41213   9.397   0.007   0.489  0.3612  0.2352  0.1299
21680W        W41214   9.684   3.071  14.102 -0.0768  0.2080 -0.0309
21681W        W41215   2.337   3.296   5.341  0.2426  0.2727  0.1929
21682W        W41216  13.879  16.342   1.825 -0.0539 -0.2111  0.1909
21683W        W41217   3.504   2.978   1.305  0.1712  0.0584 -0.0635
21684W        W41218   1.844  14.656  11.480  0.2109  0.3110 -0.0032
21685W        W41219   3.238   3.475  12.411 -0.0417  0.2123  0.0111
21686W        W41220   4.190  11.363   5.003  0.1599 -0.1678  0.1367
21687W        W41221   0.578  11.010  11.468 -0.1834  0.3968  0.1821
21688W        W41222   0.359  11.568  13.839  0.0705  0.1001 -0.0615
21689W        W41223  16.774   4.383  12.019  0.3941  0.0953 -0.0685
21690W        W41224  15.580   9.002  14.252 -0.1451  0.2169 -0.2309
21691W        W41225   0.137   0.375   3.088  0.1296  0.0841  0.2037
21692W        W41226   2.466  13.404  11.373  0.3584  0.1440  0.2194
21693W        W41227   0.037  10.427   0.007 -0.3375 -0.0192  0.2706
21694W        W41228  17.765  18.082  12.795 -0.1659  0.2714 -0.0048
21695W        W41229   3.808  15.098   1.635  0.0257  0.3851 -0.1196
21696W        W41230  15.690  14.170   2.078  0.0877  0.3717  0.3528
21697W        W41231  16.019  13.431  13.668 -0.2172  0.2330  0.0859
21698W        W41232  16.595  13.490  13.786  0.0777  0.2220 -0.0022
21699W        W41233  11.081   1.957  13.663  0.0097  0.3545 -0.1291
21700W        W41234   8.780   6.941  10.614  0.0119  0.1407  0.3353
21701W        W41235   6.118  15.814   2.706 -0.0584  0.0017  0.3499
21702W        W41236  14.506  19.470  10.531  0.0337  0.1085  0.0775
21703W        W41237  13.654   5.507  10.753  0.0062 -0.3474 -0.0239
21704W        W41238  18.448  15.638   1.988  0.0701  0.3033  0.1064
21705W        W41239   2.859  10.799  11.215  0.0033 -0.1904 -0.2885
21706W        W41240   5.416   6.920   2.872 -0.0316 -0.2138 -0.1766
21707W        W41241  15.764  16.185  10.621 -0.1394  0.1366 -0.0030
21708W        W41242  14.041   4.535   3.064 -0.0585 -0.0985 -0.0248
21709W        W41243  16.800   8.639   3.126 -0.0469 -0.0712  0.0707
21710W        W41244  15.894   9.044  11.432 -0.1507  0.0131 -0.1028
21711W        W41245   2.289  10.244  14.028 -0.1086 -0.0448 -0.1283
21712W        W41246  17.552  15.659   4.033 -0.0861  0.2587  0.3220
21713W        W41247   3.734   8.036   0.985 -0.2056 -0.0250  0.1887
21714W        W41248   0.004   7.165   1.124  0.1232 -0.3519  0.2679
21715W        W41249  15.549   8.990  13.092  0.0607 -0.2539  0.0207
21716W        W41250  17.019   7.898  13.132 -0.1156  0.4546 -0.3013
21717W        W41251  14.896  15.163  11.604  0.0189  0.2860 -0.2655
21718W        W41252  16.845   7.560  13.472 -0.1174 -0.1489 -0.0091
21719W        W41253   8.240  11.946  13.955  0.0283 -0.4362 -0.2100
21720W        W41254   1.419  18.720  11.289 -0.2638  0.5184 -0.1282
21721W        W41255   2.575  17.655  11.647 -0.2377  0.0130 -0.1961
21722W        W41256   0.584  13.663  10.468 -0.1315 -0.2715  0.0215
21723W        W41257  12.892  17.515  13.682  0.3040  0.1255 -0.2613
21724W        W41258   6.319  10.369  14.077  0.0726 -0.0086  0.0432
21725W        W41259  16.362  11.220  10.194 -0.0199 -0.1072 -0.0015
21726W        W41260  13.530  11.089  10.291  0.1167 -0.1323  0.0977
21727W        W41261   3.372  11.481  12.786 -0.1400 -0.4631  0.0437
21728W        W41262  16.825   2.847   2.344  0.3200 -0.0121  0.3390
21729W        W41263  12.738   3.521  11.229  0.0154  0.0535  0.0203
21730W        W41264   8.957  16.868   3.468  0.1957 -0.3733 -0.0031
21731W        W41265  15.556   9.609  12.257 -0.0964  0.1700 -0.3165
21732W        W41266  17.967  12.932  10.305 -0.2828  0.1356 -0.1995
21733W        W41267   9.657   8.226  12.452  0.2078 -0.1253  0.1867
21734W        W41268   3.845   5.134  13.129 -0.1562 -0.0774 -0.0588
21735W        W41269  14.333   0.842   2.035 -0.0233 -0.0758  0.0630
21736W        W41270  18.064  10.161   0.885  0.3013  0.2709  0.1686
21737W        W41271  14.311  14.892   4.117 -0.0575 -0.2395 -0.0845
21738W        W41272   6.577  11.830   2.469  0.1750 -0.1078  0.1337
21739W        W41273  15.692  12.297  11.267 -0.2078  0.0988  0.2946
21740W        W41274  18.633   1.268   1.560 -0.1883  0.0114 -0.1420
21741W        W41275   8.946   4.508   2.034 -0.0759  0.0400  0.1162
21742W        W41276   5.618  14.959   0.945 -0.0305 -0.0163  0.0658
21743W        W41277   4.482   7.878  11.995 -0.1736  0.1266 -0.3319
21744W        W41278  14.222   4.303  11.167  0.1278 -0.3411 -0.4294
21745W        W41279   4.899   9.827  11.899  0.2813  0.1533  0.1739
21746W        W41280  17.403  15.689  13.348  0.0160 -0.0138 -0.0737
21747W        W41281  12.285  18.536  13.153 -0.3685  0.1353 -0.0005
21748W        W41282   1.550   3.227   2.464 -0.0641 -0.1194  0.0178
21749W        W41283   5.361  11.695   2.358 -0.0584 -0.2712 -0.2550
21750W        W41284   1.045  10.324   2.387  0.1994  0.1319 -0.0650
21751W        W41285  16.251   6.034  11.005  0.0490  0.0607  0.0421
21752W        W41286   4.514   2.437   2.273 -0.1738 -0.0809 -0.1552
21753W        W41287   1.528   1.498  11.062 -0.2540 -0.3318 -0.1067
21754W        W41288   1.860   5.865  10.757 -0.0374  0.0366  0.0980
21755W        W41289   7.467   1.624  14.086  0.1421 -0.0409 -0.3003
21756W        W41290   9.293   8.216  14.232  0.1732 -0.0639  0.0322
21757W        W41291  10.208  13.324  13.836 -0.0446 -0.1155 -0.2352
21758W        W41292  17.264  14.291  13.534 -0.1751  0.2404 -0.3588
21759W        W41293   8.205  18.695   4.778 -0.0873  0.1590 -0.0784
21760W        W41294   2.427   5.700   2.144 -0.2286  0.1097  0.0633
21761W        W41295  13.807   8.101   0.784  0.1096 -0.1941  0.0587
21762W        W41296  15.040  14.986   9.989 -0.0823 -0.1438 -0.1433
21763W        W41297   8.902  19.108   4.121 -0.0395  0.1577  0.1184
21764W        W41298   3.777   9.062  10.106 -0.0360  0.0058 -0.2606
21765W        W41299  17.083   8.979   1.262  0.1240 -0.2037 -0.1452
21766W        W41300  17.732   7.271   2.373  0.1294 -0.0574  0.3485
21767W        W41301  10.588   5.725  10.695 -0.0065 -0.0272 -0.2591
21768W        W41302   7.854  18.326  10.556  0.2383  0.2033  0.1354
21769W        W41303   7.645  15.186   1.808 -0.2631 -0.0857  0.1094
21770W        W41304  19.066   9.765   1.901 -0.1419 -0.1353  0.2493
21771W        W41305  11.794  13.052   1.533 -0.2202 -0.2637 -0.1431
21772W        W41306  18.781   9.484   0.487 -0.2050 -0.0954 -0.1031
21773W        W41307   8.198  14.914  13.134  0.0640  0.1269 -0.2127
21774W        W41308  14.765   5.669   3.037 -0.1153  0.2178 -0.0978
21775W        W41309   9.054   5.613   1.881  0.2333 -0.3479 -0.5019
21776W        W41310  15.422  11.281   1.439 -0.0153  0.2247 -0.0415
21777W        W41311  10.647   3.291   0.356 -0.2332  0.0543  0.0397
21778W        W41312   5.067  10.127   4.186 -0.2315  0.1339 -0.0851
21779W        W41313   1.144  11.143  11.591  0.1857  0.1415 -0.0207
21780W        W41314  17.763  10.907  11.392 -0.2923 -0.0683 -0.1116
21781W        W41315  19.170  17.264   2.651 -0.0544 -0.0842 -0.1456
21782W        W41316   0.927   3.461   3.082  0.0738  0.1818  0.0566
21783W        W41317  17.471   3.015   5.256 -0.0948  0.2163  0.5792
21784W        W41318  11.012   6.986   1.306  0.2491 -0.2061  0.0514
21785W        W41319   5.040  13.431  12.585 -0.2653 -0.0945 -0.1282
21786W        W41320  11.568   3.359   1.112  0.0789  0.2518  0.0711
21787W        W41321  16.540  16.349   1.850 -0.0145  0.0865 -0.2260
21788W        W41322   7.363   7.127   4.175  0.0589 -0.2563 -0.2186
21789W        W41323   3.933   1.807   4.098  0.1113  0.0937  0.2185
21790W        W41324  15.040  13.885   2.201 -0.1596  0.0613 -0.0674
21791W        W41325  10.079  11.817   1.764  0.0839  0.0340 -0.0735
21792W        W41326   5.249  18.481   9.196 -0.1485  0.1355  0.0534
21793W        W41327   6.301  17.752   0.045 -0.3969 -0.0679 -0.0706
21794W        W41328  13.603  15.505  11.542 -0.2212  0.0164 -0.1726
21795W        W41329   6.320   2.448   2.688 -0.1873  0.3745 -0.4055
21796W        W41330   7.950  13.472   2.606  0.0563 -0.1411  0.0322
21797W        W41331  12.418   6.603   3.651  0.0860  0.1996  0.0862
21798W        W41332  13.563  14.911   4.568  0.0465  0.1199  0.2748
21799W        W41333  18.569   8.894   9.927  0.1628  0.0374 -0.2098
21800W        W41334  15.181  12.505  10.485 -0.1051  0.0068 -0.4905
21801W        W41335   5.152  11.136  14.245 -0.3450 -0.2046 -0.0730
21802W        W41336   5.301   7.331   2.056  0.1022 -0.0030  0.1487
21803W        W41337  16.976   6.807   1.738  0.0225  0.2230 -0.3100
21804W        W41338   0.591   2.439   1.375  0.1879 -0.0259  0.1799
21805W        W41339  18.989  13.958   0.501 -0.2533 -0.2705  0.2542
21806W        W41340   5.943   8.112   2.382  0.2422 -0.1786  0.0757
21807W        W41341  10.293   9.048   3.207 -0.2529  0.0024  0.0514
21808W        W41342   5.393  14.969  13.970 -0.1182  0.1562  0.1733
21809W        W41343   1.922   7.167  13.430  0.0533  0.1460  0.0700
21810W        W41344   9.036  16.097   2.941 -0.2038  0.1445  0.1764
21811W        W41345  18.666   3.276   3.983 -0.0579 -0.0208  0.3147
21812W        W41346   4.396  15.861  10.189 -0.0137  0.0465  0.2618
21813W        W41347  14.757   8.135  13.905 -0.2388  0.2504 -0.2522
21814W        W41348  14.829   9.174  13.446  0.4202  0.0230  0.2471
21815W        W41349  18.821  18.368   4.521 -0.2656 -0.1398 -0.1979
21816W        W41350  19.205  19.421  14.183 -0.1002 -0.0976 -0.0737
21817W        W41351   5.004   2.574   3.643 -0.0699  0.0729 -0.0138
21818W        W41352  12.989   5.204  10.656 -0.1745  0.0977 -0.1942
21819W        W41353   3.923   2.290   2.923  0.0600  0.1317  0.2188
21820W        W41354  17.543   0.188   3.080 -0.0656  0.1156 -0.2653
21821W        W41355   6.541  11.415   2.788 -0.0145  0.0573  0.1271
21822W        W41356   8.553   5.144  12.758  0.0307 -0.0625 -0.5073
21823W        W41357  16.454  18.899  13.628 -0.1499 -0.2518 -0.0250
21824W        W41358   9.934   6.845  13.755  0.0524  0.1695 -0.3125
21825W        W41359  10.570  16.761  11.571 -0.0136 -0.4127 -0.2060
21826W        W41360   0.284   8.135   0.957  0.0027 -0.0392  0.1138
21827W        W41361   6.079   5.834  12.188  0.0591 -0.1652 -0.0756
21828W        W41362  10.711   3.486  12.420 -0.0829  0.2159  0.0008
21829W        W41363   7.657   0.989   0.038 -0.4032 -0.1362  0.1421
21830W        W41364  14.033  17.847  13.581 -0.1377 -0.0043  0.0393
21831W        W41365   2.116   8.070  13.684  0.3864 -0.2468 -0.1114
21832W        W41366   7.120  17.949   1.614  0.1854  0.2815 -0.1521
21833W        W41367   1.189  14.655   0.592  0.0674  0.1437  0.0597
21834W        W41368  14.043  13.215   2.910 -0.0611 -0.2017  0.0691
21835W        W41369   3.813  18.216  13.901  0.0211  0.2278  0.0948
21836W        W41370   0.667   9.809   0.992  0.1638  0.0316 -0.2902
21837W        W41371   8.005  14.018   1.255 -0.0958 -0.0211 -0.0521
21838W        W41372   7.232   6.013   1.463 -0.1094  0.0340 -0.1366
21839W        W41373  12.667  15.616   0.529 -0.0683  0.1219 -0.0905
21840W        W41374   8.021   1.560   2.730 -0.0809  0.0134 -0.2461
21841W        W41375  14.914  15.211   1.464 -0.1110 -0.1417  0.2985
21842W        W41376   0.438   4.205   4.059  0.3297  0.1003  0.2028
21843W        W41377   7.579  11.973   0.110 -0.1939 -0.0604  0.2515
21844W        W41378   8.537  17.829  10.869  0.2665  0.0451 -0.0049
21845W        W41379  19.069  17.594   0.121 -0.0114 -0.1653 -0.0359
21846W        W41380  13.407  18.352   5.157  0.0925 -0.1058  0.2515
21847W        W41381  17.610  16.025  10.076 -0.2623 -0.3319  0.3954
21848W        W41382   8.227   9.477   3.965 -0.3522  0.3231 -0.0769
21849W        W41383  19.094   8.590   1.393 -0.1606 -0.0291 -0.2185
21850W        W41384   5.924   6.286  13.204 -0.3488 -0.4063  0.0781
21851W        W41385  14.394  17.021  11.868  0.0011 -0.5195 -0.0379
21852W        W41386   3.158   6.922  12.964 -0.0931 -0.0778  0.0535
21853W        W41387  16.087  17.109  13.060  0.0208 -0.0818 -0.0846
21854W        W41388   1.158  15.974  14.259  0.2144 -0.0764 -0.2847
21855W        W41389  16.221   5.566  13.058 -0.0778  0.2858 -0.0356
21856W        W41390   5.491  14.138  12.482 -0.0487 -0.2820  0.2877
21857W        W41391  19.402   0.372  14.202 -0.0893 -0.0075  0.1109
21858W        W41392  13.717  16.453  13.688 -0.1064  0.1969  0.1439
21859W        W41393   0.533  15.998   1.790 -0.0541  0.0222 -0.2639
21860W        W41394  13.503  17.232   2.136 -0.0164  0.0549  0.1590
21861W        W41395   7.306   6.822   1.663  0.2002 -0.4526 -0.0005
21862W        W41396   3.894  11.509  13.562  0.3294 -0.4056  0.5098
21863W        W41397  10.256  14.704  11.285  0.0717 -0.3265 -0.1594
21864W        W41398  13.162  15.554   0.291 -0.0412 -0.0463  0.1501
21865W        W41399   8.474   6.990  11.615  0.0518 -0.3018  0.0646
21866W        W41400   9.313   1.687   3.702  0.0507  0.2509  0.1392
21867W        W41401   0.879   9.474   1.780 -0.0808 -0.0918 -0.0120
21868W        W41402   6.367  17.868  12.213  0.0839 -0.0963  0.0681
21869W        W41403   6.875  17.954  11.957 -0.1017 -0.1633  0.1835
21870W        W41404   5.692   2.870   0.472 -0.1913  0.0249  0.1548
21871W        W41405   4.092   1.725   0.955 -0.0441 -0.2181 -0.1018
21872W        W41406  17.639  13.868   1.534  0.1201  0.2369 -0.3381
21873W        W41407  19.251  18.974   3.122 -0.2238 -0.2246 -0.2965
21874W        W41408   6.159  14.695   1.834  0.2353 -0.1099  0.0206
21875W        W41409  10.935  12.585   3.698  0.2607 -0.2623  0.0632
21876W        W41410  18.063   8.584   4.287  0.1225 -0.1645  0.1450
21877W        W41411   8.300   9.179  13.731  0.2848 -0.1987  0.0721
21878W        W41412  12.513   0.213  10.068  0.3044 -0.1152  0.3524
21879W        W41413   2.125   5.355  11.740 -0.0554  0.0501  0.0273
21880W        W41414  16.386  12.057   3.191 -0.1764 -0.1856 -0.1474
21881W        W41415  15.882   9.942  13.266  0.0088 -0.1000 -0.0152
21882W        W41416   1.489  18.939  10.445 -0.0878  0.4146 -0.3174
21883W        W41417   1.493  13.739   3.476  0.0271 -0.1319 -0.1241
21884W        W41418  10.309   1.811   1.035  0.0742  0.1444 -0.1225
21885W        W41419  10.179  14.348   2.406  0.0552 -0.2896 -0.2736
21886W        W41420  19.408   1.241   0.825 -0.2722 -0.1059 -0.0379
21887W        W41421   8.493  10.541  14.322 -0.2740  0.2142 -0.0240
21888W        W41422  16.338  10.546   3.391  0.0989 -0.0522 -0.3208
21889W        W41423   8.262   6.213  10.586 -0.1351 -0.1537  0.0826
21890W        W41424  11.943  15.250   1.806 -0.2704  0.0152 -0.2933
21891W        W41425   4.196   0.867   0.508 -0.0455 -0.1534  0.0227
21892W        W41426  12.177   7.557   3.512  0.0424 -0.0011 -0.0074
21893W        W41427   3.831  17.257  12.882 -0.3956  0.2199  0.1098
21894W        W41428  11.103  10.220   1.004 -0.0855 -0.3192 -0.0328
21895W        W41429  18.822  13.220   0.697 -0.1723  0.0220  0.1075
21896W        W41430   5.034  13.201  13.902 -0.0377 -0.0264 -0.2729
21897W        W41431  19.435   8.739   2.504  0.3518 -0.3316 -0.1889
21898W        W41432   6.737   6.298   0.831 -0.2558  0.0417 -0.1707
21899W        W41433   3.720   1.723   1.620  0.1969  0.1273 -0.0014
21900W        W41434   2.507  17.009  13.152 -0.0387  0.0152  0.1540
21901W        W41435   6.287  12.034  11.023 -0.0807  0.0611 -0.0170
21902W        W41436   5.370   9.995  12.775  0.2288  0.2536 -0.1392
21903W        W41437  15.589  14.110   2.600 -0.1640 -0.0082 -0.4457
21904W        W41438   7.087  15.401  13.421 -0.0869 -0.1231  0.3033
21905W        W41439  15.441  13.115  10.782  0.1397  0.3209  0.0239
21906W        W41440  10.981   4.136  13.816 -0.3127  0.5074 -0.0448
21907W        W41441  17.179  10.383  12.523 -0.1619  0.2199  0.2075
21908W        W41442   4.792  18.498   1.544  0.0443 -0.1621  0.0739
21909W        W41443  19.458  14.267  10.966  0.0098  0.0751  0.1962
21910W        W41444  17.977   1.055   3.334 -0.0394 -0.1331  0.0881
21911W        W41445   0.922  18.512   5.460 -0.3620  0.2034  0.2007
21912W        W41446   1.051   9.938   2.020  0.1666  0.0754 -0.1242
21913W        W41447   0.493  15.867   3.780 -0.3170  0.3189 -0.1639
21914W        W41448   4.468  18.188   0.744 -0.1580 -0.2163  0.1082
21915W        W41449  16.872  12.300  11.835  0.2957  0.0608 -0.0495
21916W        W41450   8.159   8.894   2.094 -0.4018 -0.0572 -0.2101
21917W        W41451  19.211   0.285   1.463  0.4458 -0.0032  0.2849
21918W        W41452   8.356   0.627   3.643 -0.0096 -0.3328  0.0648
21919W        W41453   9.540   6.247  14.135 -0.0683 -0.3588  0.2027
21920W        W41454  10.578  14.760  11.644 -0.1175  0.1886 -0.3136
21921W        W41455   0.758  16.167   2.592  0.0622 -0.2486 -0.5282
21922W        W41456   5.670  13.168  14.298  0.2244  0.1041  0.2825
21923W        W41457  18.300  11.272  10.829 -0.2427 -0.1784 -0.1743
21924W        W41458   2.807   7.146  11.423  0.5011  0.1522  0.3198
21925W        W41459   8.452   4.465   1.250 -0.1180 -0.2242 -0.1674
21926W        W41460   1.659   6.312   0.028  0.1200  0.0099  0.1313
21927W        W41461   7.606  14.892   3.159  0.1594 -0.1058 -0.0744
21928W        W41462   7.452  11.485  10.694 -0.5849  0.0339 -0.0371
21929W        W41463  11.507  18.223   0.883  0.0642  0.1872 -0.2583
21930W        W41464  12.687   6.913   9.720 -0.1291 -0.2618 -0.1426
21931W        W41465   8.353   6.059  13.705 -0.0174 -0.1103  0.1376
21932W        W41466   2.920  15.369   0.217  0.1534 -0.3042  0.2472
21933W        W41467  14.915   0.083  10.967 -0.0381  0.1659 -0.1941
21934W        W41468  10.122   5.005  12.333 -0.0778 -0.2062 -0.0866
21935W        W41469  14.369   6.812  11.830  0.0765 -0.1671  0.1075
21936W        W41470   5.267  17.916   1.911  0.0667  0.3288  0.0288
21937W        W41471   2.468  17.185  10.976 -0.1964 -0.2389 -0.1911
21938W        W41472  12.558  12.895  12.522 -0.1225  0.0933 -0.0697
21939W        W41473   1.345   3.133  10.896  0.0599  0.4463  0.0465
21940W        W41474  16.416  11.604  11.809 -0.0190 -0.3551  0.0582
21941W        W41475  17.359  18.222   0.858 -0.0049  0.3784 -0.0409
21942W        W41476   6.173  16.419  11.396  0.3582  0.2580  0.2322
21943W        W41477  11.276  11.857  12.691 -0.3626 -0.0527 -0.1662
21944W        W41478   5.815  13.427   2.603 -0.1423 -0.1128 -0.1642
21945W        W41479   8.745   5.571   4.195  0.1417  0.5317 -0.0512
21946W        W41480  13.990  10.602   3.619 -0.0718  0.1392  0.0524
21947W        W41481   7.834   0.721   0.747 -0.0557 -0.0191 -0.1126
21948W        W41482   6.986  13.255  13.390 -0.4225  0.1083 -0.0308
21949W        W41483  18.589  13.028  12.761 -0.1356  0.0803 -0.1217
21950W        W41484   5.195  13.461   0.969  0.1743  0.0508 -0.4081
21951W        W41485  12.089  13.716  12.098  0.1261  0.0231 -0.2370
21952W        W41486   8.734   4.037   1.169 -0.2252 -0.0377 -0.0190
21953W        W41487  14.471   1.467  13.384  0.1864 -0.1767 -0.0693
21954W        W41488   8.797   3.939  11.406 -0.3121  0.1901 -0.0212
21955W        W41489   3.258  17.280  13.090 -0.0882 -0.4145 -0.0942
21956W        W41490  17.796  14.421   3.292 -0.2561 -0.2784  0.1426
21957W        W41491   4.846   8.352   0.335  0.0555  0.3467 -0.2074
21958W        W41492   0.973   4.679   2.173  0.0604 -0.1389 -0.1835
21959W        W41493  10.004  12.848  11.722 -0.0094 -0.0003  0.2377
21960W        W41494   0.966   0.725  11.302  0.0524  0.1722  0.1765
21961W        W41495  14.032  10.954  12.010  0.0222 -0.2403 -0.1876
21962W        W41496   1.335   3.259  12.709 -0.0632  0.0098 -0.1279
21963W        W41497  12.827  12.285   0.192 -0.0379  0.3625 -0.2979
21964W        W41498  10.062  11.675   3.001  0.0656  0.1890 -0.0150
21965W        W41499   7.093  13.728  11.216 -0.2682  0.1089 -0.2677
21966W        W41500   3.296   6.517  10.746 -0.1573 -0.2713 -0.2275
21967W        W41501   6.293   0.124   3.499 -0.1171 -0.2120 -0.1091
21968W        W41502  17.063  15.499  12.221 -0.1140  0.1028 -0.1982
21969W        W41503   1.299  12.252  10.171 -0.1131 -0.1528 -0.0003
21970W        W41504   0.797   5.268   3.978 -0.4237  0.2615  0.1613
21971W        W41505   5.749  15.192  13.049  0.1542  0.4170  0.0456
21972W        W41506   9.114  11.977  11.696  0.2809  0.1133 -0.0708
21973W        W41507   1.032  11.453   1.005  0.1756  0.1613 -0.0189
21974W        W41508  18.301  10.948  13.962  0.3115 -0.1469  0.1104
21975W        W41509   9.266  17.790  13.445  0.0022 -0.1892 -0.1284
21976W        W41510   7.436  10.690  13.364  0.2004 -0.0389 -0.2906
21977W        W41511   6.740   2.440   2.397 -0.0980 -0.0279 -0.3169
21978W        W41512   6.136   3.503  10.552  0.4848  0.2637  0.2484
21979W        W41513  13.296   1.757   0.894 -0.0400  0.0198  0.0520
21980W        W41514   0.282   8.760   3.574 -0.0717  0.1048 -0.1324
21981W        W41515  13.990   9.470   2.213  0.1608 -0.2512 -0.0231
21982W        W41516   1.680   6.408   1.903  0.0014 -0.0107 -0.0252
21983W        W41517  15.108   7.076   0.028  0.3134 -0.1885 -0.1629
21984W        W41518   1.153   2.115   2.880  0.1074 -0.1616  0.1547
21985W        W41519   5.269   7.241  11.012 -0.0227 -0.3760  0.1456
21986W        W41520  10.136   1.877   0.244 -0.3879  0.1107  0.2137
21987W        W41521   7.193  16.907   1.936  0.2606 -0.2316 -0.0369
21988W        W41522   9.456   0.431   0.792  0.3454 -0.2552  0.1493
21989W        W41523  17.712  16.925   2.628  0.3787 -0.1273  0.0290
21990W        W41524  13.065   5.581  14.273  0.0891  0.2297  0.0026
21991W        W41525  11.453   9.716  13.903 -0.2314 -0.1128  0.2883
21992W        W41526   2.437   4.037   2.209  0.1796  0.1087  0.0857
21993W        W41527  10.592  18.215  11.892 -0.3112 -0.1540  0.3341
21994W        W41528   2.315  14.694  13.371 -0.2299  0.0470 -0.1162
21995W        W41529   8.217  10.343   1.772 -0.0567  0.1792  0.0364
21996W        W41530  13.490   4.027  10.588  0.2211 -0.1685 -0.1558
21997W        W41531   7.832   2.511   3.346  0.0293 -0.0053  0.1240
21998W        W41532  13.269  16.607  10.823 -0.0145  0.1880  0.3285
21999W        W41533  13.586  11.733  13.816  0.0491  0.0835 -0.1036
22000W        W41534  12.833   9.266  12.025 -0.1796  0.0420  0.1498
22001W        W41535  16.667  15.528   3.882  0.0107  0.2724  0.0626
22002W        W41536   2.159   4.028  11.359 -0.1316  0.1238 -0.4256
22003W        W41537   2.229  16.516  11.173  0.0967  0.1647 -0.0626
22004W        W41538   1.233  19.513   1.434  0.1744 -0.0448  0.2818
22005W        W41539  14.593   5.359   0.841  0.2411 -0.2496 -0.2491
22006W        W41540  16.460  18.526  10.810  0.0876  0.0270  0.1789
22007W        W41541   6.564   5.301  11.724  0.0184 -0.0978 -0.0144
22008W        W41542  10.512   1.254   0.137 -0.0397  0.1108 -0.0085
22009W        W41543   1.535   1.384  12.469 -0.3533 -0.1616  0.0975
22010W        W41544   9.294  14.380  14.000 -0.1890 -0.3297  0.1730
22011W        W41545  17.195  16.918  14.283 -0.1535 -0.1022  0.1067
22012W        W41546  12.948  15.751  10.679 -0.1032 -0.0374  0.0558
22013W        W41547   9.530  12.212   4.101  0.0390  0.0144  0.2070
22014W        W41548  10.648  11.263   3.833 -0.3144  0.0112 -0.2651
22015W        W41549  11.115  12.633  10.867 -0.0027 -0.0619 -0.3901
22016W        W41550  10.787  17.221  13.636 -0.1197  0.2502  0.1502
22017W        W41551   9.138  18.556   0.235 -0.2300 -0.2019 -0.1980
22018W        W41552  10.628   5.251  12.463  0.1055 -0.0610 -0.0144
22019W        W41553  18.972  15.911  13.064 -0.1719  0.0658 -0.1232
22020W        W41554  17.490  19.385  11.347  0.2230 -0.1460 -0.1165
22021W        W41555  11.023  14.861  11.996 -0.1633 -0.2209  0.1170
22022W        W41556   0.886   5.016  12.127 -0.1620 -0.1862  0.2639
22023W        W41557   9.520   6.250  12.421 -0.0654  0.0648  0.1353
22024W        W41558   8.957   7.336  12.416 -0.0437  0.0107 -0.0677
22025W        W41559   1.222   3.230   1.432 -0.2732  0.1829  0.2409
22026W        W41560   8.703   2.832  12.079 -0.0031 -0.0919 -0.3595
22027W        W41561  13.260   0.853  10.898  0.0195 -0.0010 -0.1225
22028W        W41562   8.683  17.997   4.083 -0.1857 -0.2644  0.1957
22029W        W41563   1.014   8.503   4.100  0.1192 -0.1857  0.0276
22030W        W41564   6.196   5.101   4.738 -0.1264  0.1107 -0.1995
22031W        W41565  13.629   2.989  10.770 -0.0104 -0.1568  0.0237
22032W        W41566   9.263   0.539   0.233  0.0144 -0.2907 -0.3376
22033W        W41567   4.660  17.323   4.004 -0.2610  0.0128 -0.0186
22034W        W41568  15.684  13.726   2.902 -0.0835  0.0183  0.0213
22035W        W41569   9.793   5.378   0.604 -0.1046  0.0385  0.0172
22036W        W41570  14.099   9.407   1.740 -0.3963  0.1139 -0.3324
22037W        W41571   3.866  17.486   1.264  0.2075  0.2204 -0.3153
22038W        W41572  12.873   5.041   1.587 -0.1873  0.0981  0.1965
22039W        W41573   1.448  14.790   2.580  0.3747 -0.1589 -0.0227
22040W        W41574  18.019  10.543   1.116  0.0292 -0.1160  0.0900
22041W        W41575   1.375  15.319  11.239  0.1689 -0.0610  0.2253
22042W        W41576   8.958  18.664   3.460 -0.2443  0.0137 -0.0026
22043W        W41577   9.354   1.490  13.749  0.0987  0.1881 -0.1468
22044W        W41578   5.163   1.046  11.653  0.0575  0.2792 -0.1586
22045W        W41579   3.231  12.408  11.983 -0.1574 -0.4902  0.2385
22046W        W41580   1.659   1.845  12.851 -0.0031 -0.0542  0.0144
22047W        W41581   6.344   0.303  14.019  0.0925 -0.4328  0.2640
22048W        W41582   4.385   7.163   4.441  0.0044 -0.0903 -0.0491
22049W        W41583  18.073   0.941   2.450 -0.0628  0.1095 -0.3127
22050W        W41584  16.874   8.453  13.246  0.2014  0.1661 -0.4191
22051W        W41585   4.472   3.625   2.885  0.0138 -0.2515  0.0030
22052W        W41586  14.975   2.725  10.534  0.0510 -0.0843  0.2878
22053W        W41587   2.968   0.067  11.605  0.0071  0.0541  0.0691
22054W        W41588   3.028  18.850  11.722 -0.0403  0.0880 -0.1916
22055W        W41589  13.647   6.862  11.626 -0.0327  0.1332 -0.3419
22056W        W41590   0.952  19.059   9.727  0.3109 -0.0317  0.1352
22057W        W41591   4.756   6.107   0.065 -0.1695  0.1061  0.0564
22058W        W41592   0.272   1.040  13.210 -0.0921 -0.3673  0.2646
22059W        W41593   9.100  15.127   0.074  0.0349  0.1493 -0.2803
22060W        W41594  17.405  16.612   0.297 -0.1113  0.5028 -0.0562
22061W        W41595  13.145  10.136  13.770  0.3330  0.0299  0.1112
22062W        W41596  17.252  11.924  11.510 -0.1650  0.1743  0.1279
22063W        W41597  19.028   8.201   0.626  0.4231  0.1171  0.1449
22064W        W41598  14.533  11.609  11.432 -0.1169 -0.0985 -0.0233
22065W        W41599   9.535   3.581   2.116 -0.1446  0.2632  0.2803
22066W        W41600  11.657   3.541  11.315  0.2251  0.0816  0.0885
22067W        W41601  11.438   0.325  12.399  0.2141 -0.0572 -0.1002
22068W        W41602   6.657   4.997   5.034  0.3367 -0.0505  0.1710
22069W        W41603  10.943  13.789   2.486 -0.0580 -0.0247 -0.1455
22070W        W41604   3.300   1.583  12.101 -0.0561 -0.1483 -0.4777
22071W        W41605  17.540  19.366  12.392  0.0453  0.2255 -0.0698
22072W        W41606   9.406  17.047   3.238  0.0588  0.3585 -0.1525
22073W        W41607  11.156   8.753  11.200  0.0412 -0.1615 -0.1222
22074W        W41608   6.389   3.074   1.476 -0.5632  0.1284  0.1190
22075W        W41609  15.588   3.039  11.950  0.0555  0.0101 -0.2787
22076W        W41610  18.226   4.209   0.734  0.1330  0.2076 -0.0287
22077W        W41611   6.987  14.617   1.276 -0.0326 -0.0803  0.3031
22078W        W41612  18.317   4.226  11.999 -0.0220  0.2636 -0.0766
22079W        W41613   7.558   3.618  12.270  0.0513  0.0367  0.2162
22080W        W41614   0.109   4.938   0.737  0.0803 -0.1343  0.0276
22081W        W41615  10.725   0.866  14.167  0.1634  0.1299  0.3213
22082W        W41616  10.611   9.352   2.960 -0.0062 -0.2867 -0.0093
22083W        W41617  18.677  17.014  14.022 -0.1370  0.1200 -0.0893
22084W        W41618   9.073  12.822   2.754 -0.4009 -0.1424 -0.1709
22085W        W41619   5.402   4.591   9.551 -0.0561  0.0866 -0.2261
22086W        W41620   5.146  15.269  13.684  0.0462  0.0308 -0.3807
22087W        W41621  12.822   4.532  13.730 -0.0500  0.3402 -0.2030
22088W        W41622   4.456  14.417  11.748 -0.0495 -0.2416 -0.0654
22089W        W41623  10.032   5.526   3.890 -0.0632  0.0590 -0.0776
22090W        W41624  11.787  18.808  13.329 -0.0994  0.0604  0.3284
22091W        W41625   7.845   2.607   0.655 -0.0107 -0.0220  0.2855
22092W        W41626  16.706   9.489  13.339  0.2784 -0.1281 -0.0818
22093W        W41627   8.257  16.640   2.586 -0.2433 -0.0084  0.0911
22094W        W41628   0.561   9.789  13.955 -0.1274  0.4073 -0.0551
22095W        W41629  11.876   4.122   1.715 -0.0594  0.0851 -0.0916
22096W        W41630  12.933  10.435   0.278  0.0490 -0.1445  0.1711
22097W        W41631   5.076   6.664   2.604 -0.1910  0.1213  0.5364
22098W        W41632  13.680   9.775  14.317  0.0059  0.5519 -0.2106
22099W        W41633  18.084   2.559   4.232  0.1504  0.1002 -0.0171
22100W        W41634  12.322   0.850   2.132  0.2066  0.1356  0.0827
22101W        W41635   0.315   7.408   0.014 -0.2827  0.1462  0.2009
22102W        W41636   6.440   7.019   3.664 -0.0215  0.0064 -0.0458
22103W        W41637  13.760   1.680   3.657  0.0948 -0.2399  0.0145
22104W        W41638   7.401   3.928  12.703 -0.0162  0.1214 -0.3918
22105W        W41639  11.736  11.813   2.655 -0.0851  0.0830  0.1010
22106W        W41640   2.962   8.942  11.508 -0.1955 -0.1101  0.0569
22107W        W41641   6.522  12.129   2.092 -0.0831 -0.1025  0.1360
22108W        W41642  15.296  15.608   1.370 -0.2367  0.1127 -0.0477
22109W        W41643   0.000  14.626  12.627 -0.1609  0.3064 -0.0812
22110W        W41644   8.735   4.325  12.998 -0.3619  0.0143 -0.1106
22111W        W41645   8.061   4.915   3.829 -0.0061  0.2792 -0.2853
22112W        W41646   8.235   8.615   4.005  0.1843 -0.0334 -0.2474
22113W        W41647  15.584  15.987   0.098 -0.1120 -0.0324  0.3074
22114W        W41648  17.279  14.747   4.267  0.1116  0.1621 -0.1540
22115W        W41649   1.133  16.057  11.782  0.1360  0.0297  0.0976
22116W        W41650   8.203   8.780  13.365  0.0820 -0.0210  0.0925
22117W        W41651  10.054  13.747   2.074 -0.2294 -0.0532  0.0356
22118W        W41652   5.712   4.271  11.055  0.0454 -0.3154  0.1209
22119W        W41653   9.314   4.545  14.138 -0.1863  0.0918 -0.1630
22120W        W41654   3.920   9.673   0.640 -0.1843  0.2499  0.2668
22121W        W41655   3.217  17.548   2.112 -0.0112  0.1077  0.1954
22122W        W41656  19.047  13.291  13.844 -0.2170  0.0717 -0.2675
22123W        W41657  14.979   6.149  13.660 -0.1994  0.0300 -0.2905
22124W        W41658  18.091   3.334   1.817 -0.0253 -0.1194  0.0397
22125W        W41659  14.422   8.681   2.564  0.2043  0.3577 -0.0132
22126W        W41660   0.944   0.887  11.814  0.1838 -0.0445  0.0517
22127W        W41661   4.412  15.520   1.690  0.2891 -0.0937 -0.0990
22128W        W41662  19.112   2.825   3.131 -0.0988  0.0698  0.2539
22129W        W41663  13.744  10.547   4.055  0.1421  0.0210 -0.1423
22130W        W41664  19.189   4.093   4.423 -0.1669  0.2909  0.2313
22131W        W41665  12.443   9.033  12.655 -0.2549  0.0212  0.3089
22132W        W41666  18.495   9.097  10.825 -0.2779  0.0768  0.1761
22133W        W41667  18.364   4.432   4.107 -0.1714 -0.1894  0.0821
22134W        W41668  17.295  10.085   2.143 -0.3290 -0.2702 -0.2615
22135W        W41669   2.923   9.830  12.246  0.3809  0.1221  0.1003
22136W        W41670  15.644  12.266  14.036  0.0563 -0.2074 -0.0364
22137W        W41671  18.319  16.854  13.073 -0.0613 -0.0967 -0.1719
22138W        W41672   8.507  10.100   2.110  0.1975 -0.1947 -0.0811
22139W        W41673   2.809   0.547  12.992  0.3660 -0.0185  0.2066
22140W        W41674   3.811   0.084   3.788  0.0426 -0.1227  0.2875
22141W        W41675  15.871  11.667   0.482 -0.3115  0.1207 -0.0179
22142W        W41676  14.395  17.878   3.563 -0.0233  0.0375 -0.0710
22143W        W41677  15.249   9.711   9.379  0.2985  0.2261 -0.0861
22144W        W41678   5.011  16.363   0.903  0.4549  0.4772 -0.1738
22145W        W41679  15.874   7.706   0.137 -0.0010 -0.2805  0.1475
22146W        W41680   1.315  11.510  10.401 -0.1816  0.0069  0.0663
22147W        W41681  18.390   0.050  11.339  0.1373 -0.2825 -0.0361
22148W        W41682   9.743  17.599  13.479 -0.0412 -0.0179  0.0116
22149W        W41683   9.829  11.340   0.155  0.0951 -0.1576  0.1443
22150W        W41684   6.682   0.538  10.789 -0.0129 -0.2471  0.0486
22151W        W41685   5.534   8.684  11.921  0.0765 -0.0047 -0.3112
22152W        W41686  18.915   0.109   0.898  0.0533  0.0391  0.0430
22153W        W41687   7.101  15.226  10.233  0.0417 -0.2314 -0.0873
22154W        W41688   8.296   2.347  13.261  0.0815 -0.1208  0.0095
22155W        W41689   2.254   9.826   1.798  0.0033  0.0719 -0.1145
22156W        W41690  15.818  18.124   9.846  0.0060 -0.0667  0.5328
22157W        W41691  10.242  18.474  12.396 -0.1970  0.0265 -0.2859
22158W        W41692   5.316   1.024  10.932 -0.0963 -0.0120  0.3451
22159W        W41693  11.151   8.000   0.967 -0.0197  0.0672  0.0202
22160W        W41694  18.251  19.106   3.576  0.2789  0.3373 -0.1890
22161W        W41695   8.999  19.068  10.224  0.0075 -0.4363  0.1951
22162W        W41696   2.954  13.246  10.454  0.1715 -0.0604 -0.0924
22163W        W41697  10.551  18.196   4.670 -0.1779 -0.0921 -0.0664
22164W        W41698  16.520   3.218  11.984 -0.3755 -0.0594 -0.1583
22165W        W41699   4.135  19.528   9.880 -0.0063  0.1425  0.0315
22166W        W41700   3.526  10.480   1.253 -0.0466 -0.0688 -0.0909
22167W        W41701  19.394   8.812  12.270  0.0024 -0.3004 -0.0304
22168W        W41702  13.299   8.285   0.742 -0.0403  0.0635 -0.0384
22169W        W41703  17.380   1.884  14.003  0.0819 -0.0714 -0.3119
22170W        W41704  17.447   1.423   0.028 -0.2525  0.3173 -0.0305
22171W        W41705  13.321   2.137  13.847  0.1089 -0.0566 -0.0156
22172W        W41706  13.118   6.910  13.945  0.0279  0.0137  0.2040
22173W        W41707   5.019   4.973  12.375  0.3502 -0.0905 -0.0123
22174W        W41708   6.770   5.003  13.964 -0.0607  0.2481 -0.1048
22175W        W41709   4.592   6.839   2.304  0.1546 -0.1944 -0.4321
22176W        W41710   5.971   1.338   1.036  0.0828  0.2650  0.0149
22177W        W41711   4.965  15.308  12.699  0.0495 -0.1766  0.2879
22178W        W41712   2.482   9.590  13.923  0.2034 -0.0156  0.2798
22179W        W41713   2.596   0.183   3.069  0.3596  0.2224  0.0439
22180W        W41714  10.757   7.359  10.709  0.2147  0.0127 -0.0621
22181W        W41715   5.375   6.224   1.347 -0.2106  0.0912  0.2919
22182W        W41716  18.053  17.054  10.393 -0.1101 -0.0152 -0.0150
22183W        W41717   5.286  13.801  10.544  0.3325 -0.2888  0.1567
22184W        W41718   6.898  19.475   1.325  0.0021 -0.1088 -0.1030
22185W        W41719  11.315   2.375   1.397 -0.2725  0.0920 -0.2484
22186W        W41720  16.522  10.961  12.171 -0.1208 -0.1021 -0.1650
22187W        W41721   2.052  17.298  12.055 -0.0500 -0.1085 -0.1189
22188W        W41722   7.238  12.782   9.743 -0.0942 -0.0431 -0.2508
22189W        W41723   1.014  13.891   0.203 -0.1370 -0.0789  0.1876
22190W        W41724  15.668   9.563  14.255 -0.2309  0.0099 -0.0321
22191W        W41725   7.139  10.667   2.762  0.4391  0.1576 -0.3516
22192W        W41726  15.088   8.834   1.520 -0.1075  0.0619 -0.1511
22193W        W41727   6.769  12.693   1.852 -0.1548  0.1422 -0.2121
22194W        W41728  14.596  17.109  14.000  0.1806  0.0429 -0.0717
22195W        W41729   7.501  16.214   4.221 -0.2090 -0.1543  0.1837
22196W        W41730   9.225  17.163  12.184  0.1764 -0.0968 -0.2231
22197W        W41731   2.486   0.389   4.347  0.2102  0.0762  0.1284
22198W        W41732  13.528   2.829   3.943  0.1373 -0.1063  0.2398
22199W        W41733   3.603   6.112   1.847  0.2761  0.1425  0.1536
22200W        W41734   3.091   8.178  13.683 -0.0005  0.0263  0.1360
22201W        W41735   9.892  17.489   2.539  0.2117  0.0730  0.5236
22202W        W41736   3.591   7.085   0.482  0.3761 -0.1300  0.1457
22203W        W41737   1.899   7.336   1.162 -0.1215 -0.2669 -0.0103
22204W        W41738   9.763   9.957   0.812 -0.0800 -0.1307 -0.1696
22205W        W41739  11.632   7.471  12.150  0.1017  0.2726  0.4988
22206W        W41740   7.396  10.406   0.995 -0.2144 -0.1717 -0.1666
22207W        W41741  16.453   4.732   3.323  0.1307 -0.1549 -0.0660
22208W        W41742  16.945   1.417   0.042 -0.1504 -0.1784 -0.2336
22209W        W41743   2.198  17.710  11.114 -0.1319  0.1037 -0.1960
22210W        W41744   2.397  17.374   4.400  0.2514 -0.1550  0.1261
22211W        W41745   7.837  16.876   4.719  0.2017 -0.0750  0.2784
22212W        W41746   7.657   8.718   2.408 -0.0853 -0.1086 -0.0462
22213W        W41747  10.995   8.986  10.584  0.0241 -0.0013 -0.2734
22214W        W41748   9.292  11.131   3.211 -0.1260 -0.1801  0.2258
22215W        W41749   7.882  16.074  12.396 -0.1957 -0.0922 -0.2090
22216W        W41750  12.741  14.429  14.255  0.0556 -0.2846 -0.0244
22217W        W41751  15.381   3.113   4.022 -0.1181 -0.1275 -0.0592
22218W        W41752  16.459  16.478  11.554 -0.1318  0.0558  0.0667
22219W        W41753  10.166  16.187  13.219 -0.5774  0.0571 -0.0070
22220W        W41754  12.301  13.313   1.029  0.0260 -0.0817 -0.0425
22221W        W41755  16.006   5.307  11.393  0.3272  0.0801 -0.0951
22222W        W41756   3.250   7.297   2.542  0.1095  0.1493 -0.2292
22223W        W41757   9.094  10.648   2.974 -0.1560  0.2127 -0.0246
22224W        W41758   5.913   1.821   0.840  0.0776  0.2602  0.0074
22225W        W41759  16.710  10.273  13.511 -0.1858 -0.2364  0.1147
22226W        W41760  11.480  12.425   3.614  0.0441  0.0377 -0.1086
22227W        W41761   7.605   3.018  14.102  0.0982  0.1252 -0.0287
22228W        W41762  16.390   7.253  12.149  0.0680 -0.1554  0.2689
22229W        W41763  11.985  18.911  13.773 -0.0518 -0.3165  0.0597
22230W        W41764   0.875   7.941   1.824  0.1595 -0.2804  0.3341
22231W        W41765  11.393   3.669  12.579  0.3040 -0.0300  0.0769
22232W        W41766  16.936   2.847  11.678  0.1410  0.2654 -0.0246
22233W        W41767   2.987   0.726   0.662 -0.0690 -0.2422  0.1220
22234W        W41768  10.494  14.392   1.681  0.5565  0.3242 -0.1391
22235W        W41769  11.300  11.459   1.301 -0.1260  0.4282  0.0252
22236W        W41770  12.218  17.042   3.852 -0.0791  0.2218  0.0810
22237W        W41771  17.855   8.801   0.367  0.1221 -0.0252  0.1083
22238W        W41772   0.528   6.075  13.245 -0.2654  0.1410  0.2118
22239W        W41773   5.997   0.511  12.788  0.0840  0.1238  0.4500
22240W        W41774   3.111  16.707  12.530  0.1645 -0.2443  0.0075
22241W        W41775  14.419   5.185   2.002  0.2079  0.0811 -0.0123
22242W        W41776  11.538  10.936  12.764  0.0080 -0.2004 -0.1167
22243W        W41777   2.751   3.579   3.943  0.0166  0.2247  0.1958
22244W        W41778   0.643   0.421  13.968 -0.3412  0.0155 -0.0600
22245W        W41779  18.903   8.092   1.078 -0.2527  0.2640 -0.0404
22246W        W41780  10.494   3.057   3.877  0.0326  0.3433  0.1933
22247W        W41781   9.232  11.009  11.741  0.2069 -0.1075  0.0562
22248W        W41782  10.615   0.323   3.294 -0.1353  0.1676  0.3368
22249W        W41783  18.718   7.284  10.004  0.1046  0.0786 -0.2432
22250W        W41784  18.732   8.860   3.616  0.0047  0.0818 -0.0555
22251W        W41785  15.513   2.765   2.122  0.3025  0.2014  0.0885
22252W        W41786   9.979  15.667   3.119 -0.0966 -0.2582  0.3201
22253W        W41787  16.910   7.013   2.977 -0.2324  0.0012  0.1555
22254W        W41788   2.218  15.471   1.466  0.0345  0.0141 -0.0825
22255W        W41789  18.461  13.618  12.232  0.0883  0.0011  0.0434
22256W        W41790   4.851  10.797   2.583 -0.5974 -0.0389 -0.2081
22257W        W41791   1.382  18.718   4.242 -0.1284 -0.1432 -0.0137
22258W        W41792  13.705   1.879  11.785 -0.0076  0.0727 -0.0169
22259W        W41793   3.081  19.082   2.115 -0.0917  0.3184 -0.0484
22260W        W41794   1.377   0.484   0.163 -0.2278  0.1360  0.5373
22261W        W41795  16.170  17.248   2.091 -0.2945  0.2608  0.0484
22262W        W41796  10.347   0.744  13.810 -0.1697 -0.2308  0.0345
22263W        W41797  10.684   6.706  10.087 -0.0809 -0.0504  0.1467
22264W        W41798   9.482  15.492  14.323 -0.0371  0.1076  0.2044
22265W        W41799   7.010  16.435   0.100 -0.5158  0.0182 -0.3177
22266W        W41800   4.834  10.683  12.878 -0.0637  0.0823 -0.2572
22267W        W41801  10.826   5.605   0.010 -0.3479  0.0575  0.2278
22268W        W41802   2.807   8.894  12.984 -0.0396  0.2904  0.2226
22269W        W41803   8.458  15.448  12.243 -0.2180 -0.0268 -0.2043
22270W        W41804   4.577   4.798   0.407  0.0015  0.1441 -0.3432
22271W        W41805  13.311  12.424  12.966  0.3456 -0.0386 -0.0847
22272W        W41806   9.694  11.738  12.160 -0.2611 -0.0048 -0.1946
22273W        W41807  17.957  19.134  12.257  0.1026 -0.0316  0.0353
22274W        W41808   9.779   4.666   4.049 -0.5132  0.2094  0.0041
22275W        W41809  13.661   9.849  13.349  0.1245 -0.1188 -0.2655
22276W        W41810   5.621  18.560  13.203 -0.0359 -0.2059  0.0972
22277W        W41811   1.713  11.815  14.250  0.1373 -0.0142  0.2110
22278W        W41812  11.843   2.276  12.315 -0.4422 -0.2840 -0.1953
22279W        W41813  11.118  10.673   0.218 -0.3326  0.2775  0.2972
22280W        W41814   7.527  10.668  11.258  0.1574 -0.2887  0.1083
22281W        W41815  14.429   4.207   2.159  0.0929 -0.0636 -0.0018
22282W        W41816  15.099   0.261   4.311  0.0859  0.2812  0.0166
22283W        W41817  14.167  17.802  10.978 -0.3183 -0.4174  0.1886
22284W        W41818  18.827  14.032  12.860  0.4612  0.1688 -0.0727
22285W        W41819   4.260  14.001  11.535  0.0776  0.1386 -0.0658
22286W        W41820   7.131  11.471   0.971 -0.1303  0.2103 -0.0235
22287W        W41821   1.923   4.079   1.564  0.1223 -0.1754  0.3264
22288W        W41822   7.667  11.668   1.720 -0.2993  0.3656  0.1865
22289W        W41823   0.617  14.799   3.742  0.0539  0.2133  0.1077
22290W        W41824  12.154  10.073   0.516 -0.1081  0.2917 -0.0578
22291W        W41825  10.237  16.547  14.199 -0.1067  0.1754 -0.0234
22292W        W41826   0.924   5.851  10.751  0.0440 -0.1984  0.2682
22293W        W41827   5.238   8.856  14.342  0.0440 -0.1078  0.0072
22294W        W41828   6.788  15.583  14.326 -0.2689 -0.2218  0.1487
22295W        W41829  12.596   2.882   0.378 -0.0845 -0.2602  0.2052
22296W        W41830  16.487  16.320  12.561 -0.1724  0.1520  0.0700
22297W        W41831  16.624   8.949   0.798 -0.1598  0.0385  0.1705
22298W        W41832  11.871   0.501   5.742 -0.2727  0.0602  0.3761
22299W        W41833   3.528  14.134  14.345  0.0336 -0.0201  0.1311
22300W        W41834  17.744   6.434  13.687 -0.2720 -0.1319  0.0770
22301W        W41835  13.418   3.318   0.227 -0.2786  0.1448  0.5136
22302W        W41836   8.198   4.874   1.466  0.1586 -0.2075  0.1348
22303W        W41837  12.272   6.364  12.490  0.1407 -0.1128  0.0427
22304W        W41838  15.362   5.004  13.281  0.1872  0.0294  0.1534
22305W        W41839   5.594  10.828  11.803  0.1270  0.1215 -0.1213
22306W        W41840  14.185  15.068   2.294 -0.1194  0.1989  0.1773
22307W        W41841  18.167   8.254  12.158  0.0936 -0.0565 -0.1426
22308W        W41842  15.115  15.101   2.972 -0.0103 -0.1911  0.1439
22309W        W41843  12.804  11.421   2.274 -0.3357 -0.0068  0.1300
22310W        W41844   7.025   3.812  10.984  0.3109 -0.2375  0.1753
22311W        W41845  11.013   8.574  13.942  0.3252 -0.2907 -0.1170
22312W        W41846   4.498   7.364  10.500  0.2022 -0.2414  0.1120
22313W        W41847   2.036  11.835  10.933  0.0890  0.1402  0.0354
22314W        W41848   8.036   8.445   2.243 -0.2339  0.1071 -0.1604
22315W        W41849  10.472   0.887  12.016  0.0897  0.0696 -0.0876
22316W        W41850  11.916   9.515  13.594  0.2170 -0.0665  0.0431
22317W        W41851  15.984  14.127   0.436  0.0461  0.0208  0.0134
22318W        W41852   3.706  15.182   0.603  0.1180 -0.1587  0.0412
22319W        W41853  13.939   1.700   4.225 -0.3035  0.2999  0.0384
22320W        W41854   5.428  12.535   2.900  0.1091 -0.0140 -0.0837
22321W        W41855  18.846   2.399  13.923  0.0886 -0.0793  0.0612
22322W        W41856  16.555   1.817   1.779 -0.1156  0.1185 -0.2024
22323W        W41857  19.223  18.771  11.353 -0.1163 -0.1540 -0.0340
22324W        W41858  15.083   6.587  12.566  0.1265  0.0428 -0.1069
22325W        W41859  12.853  13.929   9.432 -0.1982 -0.1925 -0.1415
22326W        W41860   5.466   9.761  11.753 -0.0366 -0.1947  0.0260
22327W        W41861   1.452  16.472   1.395 -0.1093 -0.2433 -0.1899
22328W        W41862   0.485  16.020  12.627 -0.1612  0.2470  0.0110
22329W        W41863   0.615   7.115   3.145  0.1973  0.1545  0.1335
22330W        W41864  17.876  13.617  13.158  0.0250 -0.0682  0.3913
22331W        W41865   8.574   8.737   1.895 -0.0546  0.4119 -0.4411
22332W        W41866   9.783   6.150  11.343 -0.0734 -0.5667  0.0440
22333W        W41867   3.437   7.305   3.957  0.1246 -0.0561  0.1493
22334W        W41868  19.204   1.902   9.601  0.1457 -0.2052  0.0698
22335W        W41869   8.528   3.706  11.058 -0.1347 -0.1428 -0.0473
22336W        W41870   8.635  14.468  10.963  0.0588 -0.1789 -0.1583
22337W        W41871   6.430   6.141  13.046  0.0303 -0.0529 -0.1701
22338W        W41872   1.183  10.610   0.617  0.1145 -0.0223  0.0546
22339W        W41873  14.141  12.748   0.882  0.5431 -0.1701 -0.2352
22340W        W41874  10.875  13.865  13.623  0.2162  0.0036 -0.0815
22341W        W41875   7.704  12.864  12.225 -0.0882 -0.1783  0.1619
22342W        W41876   8.472   8.084   1.531  0.3295 -0.0120 -0.2361
22343W        W41877  10.623   4.841   3.826 -0.4870  0.3907 -0.0605
22344W        W41878  15.844   9.473   1.224  0.1206  0.0491  0.1980
22345W        W41879  10.986   2.989  11.595  0.2706  0.2200 -0.0350
22346W        W41880   0.871  11.482   1.509 -0.3412 -0.0170 -0.0276
22347W        W41881   8.174  12.454  13.788 -0.0658  0.0785 -0.0289
22348W        W41882  10.753   5.925  11.340  0.1038 -0.1648 -0.0447
22349W        W41883   3.290  16.190   3.526  0.0748  0.0362 -0.3925
22350W        W41884  15.630   4.668   3.261 -0.0189 -0.0565 -0.1864
22351W        W41885   0.646   2.955  14.328 -0.1515  0.2696 -0.0208
22352W        W41886   6.621  15.753  11.026 -0.1330  0.1390  0.0318
22353W        W41887  15.550   4.073  11.812 -0.3124  0.1217 -0.0229
22354W        W41888  10.521   2.914   0.907  0.1662  0.0385  0.1546
22355W        W41889   5.352  14.250   1.375 -0.3438 -0.2249 -0.1751
22356W        W41890  13.173   3.973   5.062  0.0841  0.0072  0.1278
22357W        W41891  19.380   7.004  12.741 -0.2417 -0.2171  0.4532
22358W        W41892   7.451   1.517   3.228  0.0253 -0.2075 -0.1687
22359W        W41893  15.049  13.536   3.733  0.2906 -0.1801  0.1222
22360W        W41894   0.081  18.388  12.417 -0.1107  0.0068 -0.3433
22361W        W41895  12.211   9.551   0.594 -0.2997 -0.2733 -0.1218
22362W        W41896  16.746  13.770   2.900 -0.0463 -0.1317 -0.2394
22363W        W41897  18.554  13.610   0.445  0.2011 -0.4078  0.3767
22364W        W41898  16.716   7.810   2.587 -0.2230 -0.1298 -0.2389
22365W        W41899  12.385   5.733   2.342  0.0351  0.1348  0.2047
22366W        W41900  15.743   2.536  14.227 -0.1427  0.1141 -0.1615
22367W        W41901  13.635  19.130  11.147  0.2734  0.1603 -0.0436
22368W        W41902  14.444   2.384   4.583  0.0161 -0.2537 -0.1137
22369W        W41903   8.348   6.931  13.647 -0.0081 -0.1124  0.1036
22370W        W41904   7.783   9.598  10.614  0.2256 -0.0725 -0.0430
22371W        W41905   5.381   2.672  14.038 -0.1155  0.1541  0.2419
22372W        W41906   9.715   3.940   3.669 -0.1043  0.1765  0.1309
22373W        W41907   1.045  11.046  13.915  0.0209  0.0768  0.1834
22374W        W41908   2.776   7.025   1.453  0.1117 -0.0012 -0.0266
22375W        W41909   8.508   1.516   1.925  0.1862 -0.3198 -0.0003
22376W        W41910  13.114  16.615   0.075  0.2971 -0.0851 -0.1879
22377W        W41911   6.221   9.733   0.609  0.0113 -0.2835  0.0491
22378W        W41912   1.930  17.512   3.490 -0.0427 -0.1904  0.2328
22379W        W41913  12.251  15.752  11.909  0.0894  0.4812 -0.0203
22380W        W41914  18.969  18.139   1.438  0.1257 -0.0007  0.0133
22381W        W41915   6.576   7.648   1.068 -0.1100 -0.1360  0.2118
22382W        W41916  12.464   0.550   0.277  0.1217 -0.2690 -0.1633
22383W        W41917  12.260   9.281   3.371  0.1125  0.0659 -0.2328
22384W        W41918  11.572   7.865   2.900  0.2712  0.0005  0.0222
22385W        W41919  14.453   5.646   1.740 -0.1486  0.0806 -0.0634
22386W        W41920   9.691  18.492   0.640  0.2060 -0.0902  0.0080
22387W        W41921  10.461  12.386   0.464  0.0445 -0.1087 -0.3193
22388W        W41922   4.932  19.302  12.523 -0.1171  0.1641 -0.3540
22389W        W41923  18.495   4.132  13.863  0.0279  0.3006  0.1086
22390W        W41924   1.304  16.433  14.034  0.2559  0.0023 -0.1890
22391W        W41925   9.302   6.360   1.717  0.0427 -0.1470 -0.1070
22392W        W41926   7.083  17.579  13.952  0.3215 -0.2987  0.4543
22393W        W41927  17.926  17.258  11.156 -0.0854  0.1781  0.1899
22394W        W41928  13.696  10.964  13.722 -0.0328 -0.1593  0.4271
22395W        W41929  13.682   3.527   1.087 -0.5008  0.3308 -0.1703
22396W        W41930   1.344   9.064  14.126 -0.4351  0.3607  0.0024
22397W        W41931  14.736   4.006   4.058  0.0717  0.3776 -0.0725
22398W        W41932   6.539   7.911  11.956  0.0139 -0.2497 -0.1505
22399W        W41933   6.581   9.374   2.930 -0.0680 -0.1578  0.0483
22400W        W41934  12.036  13.444  14.305 -0.3341 -0.0150 -0.1336
22401W        W41935  19.469  12.312  14.291 -0.2217  0.1697  0.2365
22402W        W41936   0.379  18.355   1.268 -0.3307 -0.1145  0.0406
22403W        W41937   5.454   8.198   2.487 -0.0578 -0.2864  0.0027
22404W        W41938  10.061   2.564  10.467  0.1215 -0.0130  0.0223
22405W        W41939  17.669   6.986  11.392 -0.0165 -0.2180 -0.0651
22406W        W41940   3.287   3.788  14.073  0.5164 -0.1809 -0.3377
22407W        W41941   6.983   7.255   0.834 -0.0332  0.0267 -0.0145
22408W        W41942   9.754  12.672   4.777 -0.2344  0.0008 -0.2262
22409W        W41943   7.097   1.624  12.829  0.1603  0.0428  0.0012
22410W        W41944   6.687   7.119   0.345  0.1307 -0.0510  0.0544
22411W        W41945   8.406  10.608   0.770 -0.1645 -0.1029 -0.3033
22412W        W41946  19.417  18.662   4.063 -0.0308  0.0693  0.0575
22413W        W41947  11.974   3.627   1.933  0.6143  0.2268  0.3568
22414W        W41948   1.213   9.177  10.586  0.0794  0.3166 -0.2359
22415W        W41949   0.117  19.078   1.441 -0.0553 -0.2708 -0.1842
22416W        W41950   5.600   6.026  12.794 -0.0720  0.1900 -0.0107
22417W        W41951  13.697   5.194  11.545  0.3174  0.1154 -0.1438
22418W        W41952   5.914   0.377   3.282 -0.0841 -0.0386 -0.3265
22419W        W41953  18.956   3.689   3.535 -0.1483  0.1284  0.1829
22420W        W41954  11.926   6.346   0.636  0.0755 -0.2731  0.2728
22421W        W41955  12.602  12.328  10.394 -0.0358 -0.1062  0.3140
22422W        W41956   0.362  11.414  11.828 -0.1742  0.1051  0.3384
22423W        W41957   0.653   6.381   2.558  0.0615 -0.1045  0.0093
22424W        W41958  13.980  16.029   3.697  0.0001  0.0416 -0.0866
22425W        W41959   4.755   2.005   0.217 -0.0153  0.1969  0.0519
22426W        W41960  10.606   6.135   3.440 -0.0628  0.2289  0.1465
22427W        W41961   6.102   0.209   1.935 -0.0817 -0.1382  0.0952
22428W        W41962   0.938   0.575   4.527  0.0082  0.0629  0.0621
22429W        W41963   6.794  16.296   1.395 -0.0327  0.0127  0.0616
22430W        W41964   9.646   6.775   0.446  0.0188 -0.2048  0.2398
22431W        W41965   3.863   0.147  12.714 -0.1501 -0.0662 -0.2149
22432W        W41966   0.483  19.100   4.427  0.1299  0.1819  0.1655
22433W        W41967  17.724  19.273   0.092 -0.2891  0.1535  0.1045
22434W        W41968  19.316   7.296  11.934  0.0797  0.0625  0.1892
22435W        W41969  13.112  16.886   1.183  0.1889  0.4183  0.0353
22436W        W41970  12.909   0.325  12.021 -0.0973  0.0799 -0.0203
22437W        W41971  12.591   5.826  13.079 -0.0904 -0.0379  0.0836
22438W        W41972  17.618   2.121   3.742  0.1951  0.4670  0.0384
22439W        W41973  17.731   2.821   4.019  0.0582  0.0621  0.2763
22440W        W41974  11.291   8.889   2.482 -0.0654 -0.1878  0.1112
22441W        W41975  17.326  13.419  12.428 -0.1265  0.3658  0.2750
22442W        W41976  11.482  11.247  12.014 -0.2528  0.0323 -0.3512
22443W        W41977   6.774   6.681   1.419 -0.4045  0.0365 -0.0736
22444W        W41978  10.652   4.518  10.932  0.0650  0.5765  0.3101
22445W        W41979   9.529   7.983   0.703  0.1128  0.2598 -0.2084
22446W        W41980   7.348   6.656   3.595  0.0264  0.1109  0.0427
22447W        W41981  14.158   4.970  11.232  0.1405 -0.0178  0.0809
22448W        W41982  18.165   6.703   3.474  0.0314 -0.1270  0.1562
22449W        W41983   6.090   7.724  10.838 -0.0501  0.0721  0.1650
22450W        W41984  14.493  15.400   4.561 -0.2003 -0.1697 -0.0492
22451W        W41985   9.745  18.439   1.336  0.0889 -0.0145 -0.2208
22452W        W41986  18.842   9.590   3.230  0.2392  0.2826  0.2092
22453W        W41987   1.787  17.976   0.397 -0.1304  0.3074  0.2837
22454W        W41988  17.636   2.940   0.912 -0.2779 -0.2170  0.2598
22455W        W41989  15.416   4.066  10.696  0.2110  0.0004 -0.0907
22456W        W41990   9.174   5.826  12.577 -0.2575  0.3353 -0.0473
22457W        W41991  14.951  10.219   1.714  0.0571  0.2552 -0.2336
22458W        W41992  11.295  10.677  11.469  0.3181 -0.2045  0.3631
22459W        W41993   2.927  16.910  12.062 -0.2534 -0.1168  0.0810
22460W        W41994  13.290   1.565   3.610 -0.1778  0.0417 -0.0001
22461W        W41995   9.115   8.970  11.125  0.2553 -0.3595 -0.0785
22462W        W41996  14.752   3.570   2.423 -0.1302  0.5309  0.1074
22463W        W41997  14.048   9.017   0.535 -0.2641 -0.1706 -0.1469
22464W        W41998   1.758  11.180  12.345 -0.2685  0.2323 -0.1197
22465W        W41999  14.486  12.189  12.227 -0.2381  0.3062  0.0042
22466W        W42000  18.584  15.412  13.986 -0.0318  0.2019  0.3381
22467W        W42001  18.923   9.959   3.682  0.1661 -0.1890 -0.3760
22468W        W42002   1.040   1.903  12.496 -0.0986  0.2804  0.0742
22469W        W42003   7.084  11.414  13.883 -0.0694  0.1281 -0.1403
22470W        W42004  16.742   4.948  11.924 -0.1971 -0.2236 -0.2498
22471W        W42005  13.672  11.749  10.967 -0.1189 -0.0730 -0.5177
22472W        W42006  11.281   2.871  12.902 -0.1724  0.4738  0.0376
22473W        W42007   6.416  12.101  12.028 -0.2373  0.0610  0.0262
22474W        W42008  16.006   9.191   3.269 -0.1157  0.0569 -0.1459
22475W        W42009  10.423  17.564   1.942 -0.1402  0.0030 -0.2269
22476W        W42010   3.056   0.377  13.769 -0.0380 -0.4087  0.0192
22477W        W42011   7.094  15.642   2.346 -0.2195  0.1436  0.2218
22478W        W42012   5.871  12.071   3.592  0.0585  0.1063 -0.1387
22479W        W42013   9.281   1.105  10.680 -0.0624  0.0707 -0.0260
22480W        W42014   0.860   2.324  12.175  0.3331 -0.0588  0.0164
22481W        W42015   5.486   4.385  12.957 -0.0698  0.0288  0.1523
22482W        W42016  12.653   7.874   1.555  0.1932 -0.0874  0.2540
22483W        W42017  10.258  17.814  14.048 -0.1289 -0.0714 -0.3625
22484W        W42018  18.041   4.066   3.158  0.2156  0.1502 -0.2151
22485W        W42019   8.902   7.781  13.174  0.0487 -0.1395 -0.1394
22486W        W42020  13.734   0.062  14.132  0.0564  0.0380 -0.1271
22487W        W42021  11.239   1.062   4.361 -0.1501  0.0439  0.0451
22488W        W42022  16.128   2.093  14.267 -0.2416  0.1005 -0.0868
22489W        W42023   3.843  15.781  11.914  0.2317 -0.2441  0.1474
22490W        W42024   6.079  15.901  11.427  0.2860 -0.1874 -0.3347
22491W        W42025   3.871   4.232   3.637  0.2909  0.0479  0.0130
22492W        W42026  11.478  11.349  13.182  0.0537 -0.0165 -0.0508
22493W        W42027  17.228   1.483  12.018  0.1290  0.1939 -0.2822
22494W        W42028   7.824   1.943  14.119 -0.0426 -0.2338  0.1025
22495W        W42029  16.385  10.924  14.233  0.0492 -0.2068 -0.2440
22496W        W42030   7.192  12.868   0.395  0.0865  0.1151  0.0069
22497W        W42031   1.071  10.345  11.125 -0.2547  0.1559  0.1086
22498W        W42032  12.514  14.813  10.336  0.1537 -0.1423  0.1236
22499W        W42033  18.681   1.169   9.395  0.0110  0.2969  0.3698
22500W        W42034  10.576   2.217  13.812  0.3927  0.2110  0.0392
22501W        W42035   0.987   2.559   0.224  0.0879 -0.0122  0.2494
22502W        W42036  12.634  10.210  14.319 -0.1871  0.2745  0.1991
22503W        W42037  12.127  15.000   1.054  0.1399  0.0138 -0.0236
22504W        W42038  15.183   0.768   2.054  0.2828 -0.2303 -0.2417
22505W        W42039  10.795   6.217  10.910  0.3787 -0.3474  0.0993
22506W        W42040   3.280  11.057   3.881  0.0701  0.0016 -0.0252
22507W        W42041   0.278   4.991   1.444  0.0570 -0.0099  0.1391
22508W        W42042  13.431   4.465  10.334  0.0128  0.0398  0.2504
22509W        W42043  16.514  12.272  14.000  0.0135 -0.0843 -0.1118
22510W        W42044   0.678  16.825  10.657 -0.1243 -0.1699  0.1578
22511W        W42045  18.567   1.121  11.456 -0.2634  0.0059 -0.1081
22512W        W42046  10.937   4.474  14.215 -0.1229  0.0011 -0.0483
22513W        W42047   5.231   6.782  10.746  0.1551 -0.0517  0.1258
22514W        W42048  10.851  13.048  11.052  0.2880  0.0207 -0.1627
22515W        W42049  12.390   8.275   1.598  0.1018  0.0926 -0.0801
22516W        W42050   3.334   7.171  14.320  0.0255  0.1371 -0.0351
22517W        W42051  13.114  19.379   2.033 -0.4577 -0.1789 -0.1052
22518W        W42052  11.726   4.056  12.708 -0.2126 -0.1435  0.0108
22519W        W42053  11.159   3.664   1.138  0.0341 -0.1261 -0.2681
22520W        W42054  11.016  13.860  12.642  0.0483  0.3877 -0.1444
22521W        W42055  11.737   6.977   2.014  0.2153 -0.1086  0.2140
22522W        W42056   9.490   3.303   5.387  0.1805 -0.2006 -0.0331
22523W        W42057  18.223   3.956   4.350 -0.1499 -0.1601  0.0838
22524W        W42058  14.329   0.374  12.287 -0.0107  0.3823  0.2278
22525W        W42059  10.013   2.128  12.055  0.1903 -0.0905  0.1556
22526W        W42060   3.819   5.485  13.812 -0.0190  0.0148 -0.3807
22527W        W42061  17.512   7.494   0.418  0.0307 -0.0309 -0.1356
22528W        W42062  12.229   6.069   1.800  0.4409 -0.3278 -0.2203
22529W        W42063  16.260   7.916   3.170  0.1222 -0.0749 -0.2687
22530W        W42064   5.511  11.143  10.438  0.0819  0.0417  0.3278
22531W        W42065  12.432  18.272   2.113 -0.0088 -0.0747 -0.4231
22532W        W42066   3.408  12.399  11.457 -0.2495  0.0473  0.2045
22533W        W42067   6.981   1.805   0.999  0.0688 -0.1270  0.3008
22534W        W42068   0.837   1.404   3.235  0.1473  0.2766 -0.0179
22535W        W42069   7.185  14.857   3.797  0.0458  0.1315  0.0216
22536W        W42070  12.116   8.952   1.013 -0.0596 -0.1778  0.0818
22537W        W42071  12.608  11.024   3.178  0.1351  0.1597 -0.1024
22538W        W42072  17.644  19.208   2.836 -0.2162 -0.2924 -0.2091
22539W        W42073   8.708   3.622  10.573  0.2628  0.0325 -0.0177
22540W        W42074   6.979  12.380   2.356  0.3179  0.0248 -0.0927
22541W        W42075   2.800  13.167  12.680  0.1346 -0.1152 -0.3055
22542W        W42076  12.101   2.454  13.741 -0.1662 -0.0246  0.3108
22543W        W42077  13.395   2.088  13.338 -0.0294 -0.0822 -0.0644
22544W        W42078   3.512   6.250   1.019 -0.0697  0.0554 -0.1817
22545W        W42079   7.573  10.541  10.526 -0.0402  0.2168 -0.1847
22546W        W42080   2.632   0.639  10.698 -0.2066  0.0541 -0.2758
22547W        W42081   8.363  19.303  12.699  0.2147  0.0423  0.3438
22548W        W42082   0.100  10.810  10.659  0.0543 -0.3039 -0.3978
22549W        W42083  10.356  12.528  12.543  0.1812  0.0540 -0.1891
22550W        W42084   6.301  18.813  14.234  0.0119  0.0100 -0.1430
22551W        W42085   8.945   3.924   0.677  0.3758  0.0623  0.5219
22552W        W42086   7.186  17.122   0.676 -0.3423  0.0543  0.3917
22553W        W42087   3.818  10.998   0.572  0.2935 -0.1021 -0.0356
22554W        W42088  13.059  16.928  11.179 -0.1979 -0.4327  0.0099
22555W        W42089   5.460   6.579  13.289  0.0232 -0.1673  0.2244
22556W        W42090  16.792   4.026  13.140 -0.1993 -0.3658  0.1954
22557W        W42091  15.090   9.986  13.834  0.2657  0.0475  0.1076
22558W        W42092  15.340   7.063   2.975  0.4905 -0.6040 -0.0323
22559W        W42093   3.693   5.622   0.281 -0.2113 -0.1179 -0.0210
22560W        W42094  13.651   5.350  12.998  0.0998  0.0271  0.1959
22561W        W42095  10.197   1.368  12.215 -0.0135 -0.1107  0.0502
22562W        W42096  11.208  13.693   0.327  0.1248 -0.1176 -0.2127
22563W        W42097  13.017  12.845   1.626 -0.0865 -0.0897 -0.0909
22564W        W42098  10.717   0.079   0.807 -0.1040 -0.1032 -0.3001
22565W        W42099  15.464  18.109  11.522  0.0143 -0.0753  0.0639
22566W        W42100  16.858   0.777   1.760 -0.5145 -0.3296  0.2888
22567W        W42101   9.940   6.803   4.299  0.3133 -0.2175 -0.1363
22568W        W42102  18.801   5.375   4.026  0.1027 -0.1406 -0.0475
22569W        W42103  16.221  11.833  10.757 -0.1348  0.0205 -0.0535
22570W        W42104   2.075   5.072   3.651  0.0273  0.1161  0.3827
22571W        W42105  13.620   3.697   2.005  0.3309 -0.0351 -0.0311
22572W        W42106   3.667   4.703   0.040  0.1078  0.0162 -0.2264
22573W        W42107   1.060  14.697   2.892  0.3831  0.0581 -0.3228
22574W        W42108  15.624  10.677  11.671  0.1288  0.2323 -0.0436
22575W        W42109   1.576   3.996  13.016 -0.0973 -0.2137 -0.1146
22576W        W42110  17.754   4.170  11.207  0.3389  0.3093 -0.0836
22577W        W42111  12.901   3.180  13.839 -0.2881 -0.2961  0.1950
22578W        W42112   8.763   5.889  10.728 -0.0886 -0.2118  0.2193
22579W        W42113  19.159  17.720   0.962  0.2329 -0.4042 -0.1422
22580W        W42114   5.714   3.254   0.822 -0.0972  0.4023 -0.0057
22581W        W42115   5.985   5.538  10.435  0.0126  0.2930 -0.0702
22582W        W42116   4.270   9.027   4.182 -0.0043  0.0433  0.0338
22583W        W42117  14.704  11.718  12.109 -0.2563 -0.3193  0.0715
22584W        W42118  10.470   3.991  13.700 -0.0884  0.0598  0.1379
22585W        W42119   7.026   9.715   1.230  0.1493  0.0769  0.0609
22586W        W42120   5.998  12.965   3.879  0.1743  0.0415  0.1615
22587W        W42121   1.698   7.822   4.203  0.0976 -0.2030  0.0530
22588W        W42122   2.973   0.970  13.114  0.3257  0.1313  0.2900
22589W        W42123   7.085   6.915   5.326  0.2417 -0.0315 -0.2907
22590W        W42124   1.966   5.242  10.410 -0.4442  0.0358  0.0391
22591W        W42125  13.195   3.512   1.684 -0.1031 -0.0377 -0.1258
22592W        W42126   6.584  12.255   1.550  0.0823  0.2441 -0.1783
22593W        W42127  14.524  13.599   1.388 -0.3716  0.0449  0.0097
22594W        W42128  13.193  13.905  11.595 -0.1455  0.2128 -0.0881
22595W        W42129   2.624  11.010  12.272 -0.0391  0.3379  0.0729
22596W        W42130  14.357   4.179  10.726 -0.0694 -0.0927 -0.0747
22597W        W42131   8.066  14.241  10.823  0.0273 -0.1709 -0.4068
22598W        W42132   0.644   8.435  11.029 -0.0244 -0.1223 -0.3393
22599W        W42133   0.125   0.492  11.089 -0.0611 -0.0637  0.1855
22600W        W42134  19.258   9.582  11.223 -0.0651  0.0325  0.1139
22601W        W42135  17.443  15.089  13.616  0.3001  0.2703  0.1092
22602W        W42136  13.732  11.491  10.564 -0.0861  0.2142 -0.0159
22603W        W42137   5.502  15.438  14.043  0.1569 -0.2621 -0.0596
22604W        W42138   7.582  16.327  11.073 -0.2689  0.1366  0.3093
22605W        W42139  19.528   2.255  12.994  0.1932 -0.0657 -0.1604
22606W        W42140  13.255   7.821   2.578  0.2503 -0.0811  0.2596
22607W        W42141  13.589  19.370  13.562 -0.0728 -0.0584 -0.2335
22608W        W42142  12.581  17.008  11.362 -0.1777  0.0299 -0.0506
22609W        W42143  18.560   1.626   0.903 -0.0575  0.0742 -0.1048
22610W        W42144  13.512  15.167   3.613  0.1651  0.1473 -0.0246
22611W        W42145  13.339   0.113   3.462  0.0377 -0.0102  0.1963
22612W        W42146  10.800   5.056  11.785  0.1067  0.3595  0.0488
22613W        W42147  15.665  13.257   2.310  0.0477 -0.4461  0.3440
22614W        W42148  15.577  11.300  12.456  0.2789  0.2987  0.0840
22615W        W42149   7.736   0.793  13.775  0.0876 -0.2425  0.1350
22616W        W42150   9.042   1.001  11.718 -0.2071  0.1152  0.3458
22617W        W42151  13.337  10.237   1.317 -0.1891  0.1194  0.1390
22618W        W42152   5.553  11.010   1.959 -0.0933 -0.1001 -0.0494
22619W        W42153  14.798  19.219   2.058  0.0705  0.1996 -0.0578
22620W        W42154   7.201  12.230  14.151 -0.0022  0.0392 -0.0452
22621W        W42155   8.815  13.887   4.236 -0.0700  0.0583 -0.0950
22622W        W42156   3.573  16.668  10.302  0.0843  0.1919  0.0935
22623W        W42157  15.162   5.302  12.923 -0.1014  0.1104  0.2528
22624W        W42158  16.908  17.365   1.340 -0.1019 -0.2054 -0.0775
22625W        W42159   5.033  18.584  13.246  0.0623  0.0024  0.0165
22626W        W42160  11.464  18.603  11.105  0.0504 -0.4426 -0.1266
22627W        W42161  10.283   7.987   1.795  0.1602  0.1363 -0.2171
22628W        W42162   7.635   6.997   2.024  0.0549 -0.1725 -0.0072
22629W        W42163   0.297   1.464   0.280 -0.2059  0.2722  0.3323
22630W        W42164   2.649   7.133  10.345 -0.2770  0.5548  0.0245
22631W        W42165   6.742   3.887   1.480 -0.0555 -0.0889 -0.0733
22632W        W42166  19.276   7.961  13.443  0.1068  0.0914  0.0504
22633W        W42167   5.679   7.302   3.287 -0.1279  0.2142  0.1312
22634W        W42168   6.676  18.928  13.935 -0.3592 -0.2942 -0.1844
22635W        W42169  15.674   5.265  13.663 -0.0319 -0.2902  0.3528
22636W        W42170   7.459   0.231   5.046 -0.2434 -0.0983 -0.1540
22637W        W42171   5.968   4.189  13.951  0.0001 -0.0902 -0.0439
22638W        W42172  10.014  10.051  12.003 -0.1722 -0.2054 -0.0894
22639W        W42173  13.034  14.065   4.498  0.1338 -0.0614 -0.0756
22640W        W42174   5.648  19.428   1.974  0.0625  0.2233  0.0766
22641W        W42175   0.377  15.190   0.134  0.1076  0.0883 -0.2940
22642W        W42176   8.197   5.180  13.611  0.1320 -0.0873  0.1744
22643W        W42177   1.144   1.415   2.770  0.2387  0.1102 -0.2921
22644W        W42178   5.102  18.196   3.990 -0.3911  0.0339  0.0573
22645W        W42179   3.324   2.189   4.110  0.0972  0.0332  0.2586
22646W        W42180  17.512  16.995   3.642 -0.1513  0.2834  0.2326
22647W        W42181  10.689   8.530  12.935 -0.0388  0.1499 -0.2168
22648W        W42182   3.567  15.001   2.621 -0.1338  0.0564  0.2539
22649W        W42183  10.169  15.039   0.182  0.0686 -0.0431  0.2725
22650W        W42184   1.768   7.857  12.252 -0.0011 -0.2625 -0.0156
22651W        W42185   8.355  13.339  11.033 -0.0406 -0.1285  0.0140
22652W        W42186  14.312   8.326   0.859 -0.0098 -0.2858 -0.0213
22653W        W42187   4.890  12.594  11.622  0.1898  0.1683  0.1867
22654W        W42188  12.093   6.892  12.688  0.0391  0.1864  0.3074
22655W        W42189   6.885  10.633   9.905 -0.1618 -0.2167 -0.0977
22656W        W42190  18.332  16.665  14.146  0.0374 -0.3266 -0.0850
22657W        W42191  14.785   4.492  12.866  0.2450  0.2069  0.1871
22658W        W42192  13.977  16.069   9.535  0.1690 -0.0414 -0.0233
22659W        W42193   6.466  13.866  12.529  0.0382  0.1877 -0.1992
22660W        W42194  19.249   3.650  11.178 -0.0906  0.2386 -0.0363
22661W        W42195  15.125   8.642  11.754 -0.0360  0.1863 -0.2351
22662W        W42196   6.511   9.628  13.573  0.0123 -0.2673 -0.0317
22663W        W42197   5.168  11.510  10.583 -0.1063  0.1860 -0.2452
22664W        W42198   7.880  17.704  12.284 -0.0412 -0.0569 -0.0482
22665W        W42199   2.700  15.173   2.316 -0.1050  0.2101 -0.0849
22666W        W42200  11.003   3.277  13.819 -0.0106 -0.0041  0.2854
22667W        W42201   9.084  17.358   2.577  0.3147 -0.2317  0.0812
22668W        W42202  12.583   8.528  12.738 -0.0875  0.1787  0.2702
22669W        W42203  10.183  14.877  13.010  0.1341  0.1232  0.0677
22670W        W42204  17.321   4.914  13.242 -0.0764 -0.0666  0.0890
22671W        W42205  12.775  11.669  10.424  0.0211  0.0900 -0.2407
22672W        W42206   6.286  15.339   2.261 -0.3655 -0.3754 -0.1143
22673W        W42207  12.237  14.513   9.931 -0.2377  0.2367 -0.0179
22674W        W42208   8.773  18.682   2.999 -0.0026 -0.0235 -0.1045
22675W        W42209   7.540  13.497  11.363  0.2010  0.3007 -0.0590
22676W        W42210  15.854  13.517  11.450 -0.1048 -0.0176 -0.1156
22677W        W42211  19.235  11.961   2.762 -0.1969  0.2019  0.1591
22678W        W42212  13.908  19.460   4.188  0.4499 -0.4101  0.1755
22679W        W42213   5.542   4.627   0.355  0.2690 -0.2415  0.0297
22680W        W42214  15.372   9.816   1.369 -0.0437 -0.0750 -0.1100
22681W        W42215   3.730   2.108   3.320  0.1045  0.0572  0.3389
22682W        W42216  12.304   1.536  12.861  0.1135 -0.0798 -0.0356
22683W        W42217   4.768  16.302   0.131  0.1437 -0.0422  0.1261
22684W        W42218   2.781  18.235   2.424 -0.0586  0.2784  0.2126
22685W        W42219  18.449   9.348  13.781 -0.1495 -0.0511  0.1330
22686W        W42220  19.028  14.486   1.532  0.3849 -0.0957 -0.0038
22687W        W42221  18.215  17.333   4.988 -0.2731  0.3331  0.0410
22688W        W42222   3.314  13.365  13.999  0.2926 -0.2502 -0.2786
22689W        W42223  13.642  17.432  13.368  0.0077 -0.1680 -0.0009
22690W        W42224   7.063  17.823   2.438  0.0133 -0.0997 -0.0041
22691W        W42225   6.058  12.019  12.384  0.1347 -0.2379 -0.0776
22692W        W42226  12.853  11.200  13.819  0.0467  0.1059 -0.0408
22693W        W42227   2.335  19.043   4.565 -0.2751  0.0948 -0.4243
22694W        W42228   5.583   7.626  11.143 -0.1485  0.1925  0.0080
22695W        W42229  15.341   6.566   1.560 -0.1952 -0.0460  0.1037
22696W        W42230  19.044   9.433   2.553 -0.1781 -0.0713  0.1621
22697W        W42231  19.240   3.020  13.243  0.0939 -0.1745  0.0043
22698W        W42232   3.225   2.137   3.461 -0.0120 -0.1068  0.3934
22699W        W42233   6.757   8.847  14.096 -0.1331 -0.2566  0.2262
22700W        W42234   7.724   1.668  12.893 -0.1666  0.2040 -0.0659
22701W        W42235   0.556   0.171   3.238 -0.0699 -0.1044  0.2680
22702W        W42236   8.846  10.203   4.671  0.2875 -0.1098 -0.0985
22703W        W42237  12.308   2.343  10.653 -0.1147  0.0137 -0.2095
22704W        W42238   3.614   9.028  12.265 -0.1723 -0.1455 -0.0232
22705W        W42239  16.291   4.364  13.081 -0.0562  0.3192  0.2738
22706W        W42240   2.924   5.876   0.247  0.5779  0.1286  0.0958
22707W        W42241  19.111  18.235   0.936 -0.1866 -0.1576 -0.1031
22708W        W42242  14.442  10.922  10.714  0.0318  0.1032 -0.0969
22709W        W42243   1.757  17.376   2.988 -0.2209  0.2781 -0.2684
22710W        W42244  15.276   3.166   9.196 -0.2572  0.0512 -0.1862
22711W        W42245   5.051  10.812   3.589 -0.0998  0.1479  0.1628
22712W        W42246   2.508  16.254   1.123 -0.1045  0.2393 -0.1469
22713W        W42247  16.069  13.863   1.326 -0.1827  0.4303 -0.1948
22714W        W42248  16.408  10.222  11.400 -0.2220 -0.2078  0.0313
22715W        W42249  17.329   4.729   0.522 -0.2407  0.0158  0.1697
22716W        W42250  18.586  10.303  12.715  0.0559  0.1195  0.4680
22717W        W42251  15.039   0.979   0.614  0.0253  0.1004 -0.1326
22718W        W42252  12.805  14.776   2.421 -0.0271  0.0891 -0.1456
22719W        W42253  16.804  11.434  13.483 -0.0616 -0.2418 -0.1886
22720W        W42254  16.031   2.942   3.346  0.0771  0.3040  0.1417
22721W        W42255   9.958  17.922   3.968 -0.0333 -0.0681 -0.1399
22722W        W42256  17.558  18.719   9.075 -0.1156  0.1778 -0.0155
22723W        W42257   7.393   2.215   4.236 -0.1987 -0.2686  0.2140
22724W        W42258   4.019  14.293  14.184 -0.0097  0.2554 -0.3338
22725W        W42259  14.385  11.019  14.345  0.0046 -0.1061 -0.0457
22726W        W42260  11.691  16.724   0.918 -0.0655 -0.3800 -0.1393
22727W        W42261   2.133   1.021   1.152 -0.0870  0.1543  0.2083
22728W        W42262  14.379   0.826  14.015 -0.0051 -0.0220  0.2533
22729W        W42263   9.895  13.155  10.198 -0.1833 -0.3457 -0.2337
22730W        W42264  13.618   3.661   0.547 -0.4058  0.1224 -0.1890
22731W        W42265   9.924   5.578  11.016 -0.1096 -0.1040  0.1587
22732W        W42266   7.773  16.995   1.949  0.2075  0.1737 -0.2180
22733W        W42267  13.103   5.881   0.681  0.2164  0.1508 -0.0367
22734W        W42268  19.351  11.201  10.506  0.0869  0.3363 -0.1489
22735W        W42269  15.240   6.032   2.149 -0.0551 -0.0137 -0.0707
22736W        W42270   0.509  16.017   1.241  0.1162 -0.0221 -0.1263
22737W        W42271   2.771  11.684   2.693  0.1515 -0.1166  0.0652
22738W        W42272  13.843   4.138   1.219 -0.2031  0.0830 -0.0104
22739W        W42273   9.666   1.556  12.254 -0.2408  0.0887  0.1150
22740W        W42274  10.208  16.905  12.455 -0.0017  0.0300 -0.0466
22741W        W42275   0.508   3.009  11.817  0.2305 -0.1190 -0.1390
22742W        W42276  19.080   3.497   2.536 -0.0885  0.2503  0.1485
22743W        W42277   5.330   5.278  11.179 -0.2416 -0.0773  0.2514
22744W        W42278   5.692  12.388  10.492  0.0247  0.0438  0.3420
22745W        W42279  12.726   9.050   2.737 -0.1406  0.1971  0.0182
22746W        W42280   5.912  14.522   4.590 -0.0301  0.0846 -0.0739
22747W        W42281  14.117  15.021  12.279  0.2677  0.2148 -0.1862
22748W        W42282   5.565   4.516  12.030 -0.2377  0.0128 -0.1354
22749W        W42283  15.154   8.094  12.003 -0.0932  0.1412 -0.3505
22750W        W42284   5.008  10.602   1.121  0.1129  0.3452 -0.3476
22751W        W42285   3.977  13.781  11.035 -0.2766 -0.0140 -0.1917
22752W        W42286   9.398  17.164   1.312  0.2019 -0.2050 -0.4373
22753W        W42287   7.362  18.874   1.775  0.1650  0.4118  0.3507
22754W        W42288   4.329  16.827   4.229  0.0994  0.1076  0.2187
22755W        W42289   6.786  11.620  10.101 -0.1995  0.2193  0.1600
22756W        W42290   2.707   8.994   4.246 -0.0328 -0.1877  0.1946
22757W        W42291  19.082  10.365  12.839 -0.0765 -0.0054 -0.3445
22758W        W42292  13.651   4.392   2.749  0.0498  0.1037 -0.2024
22759W        W42293   8.630  17.488   0.753 -0.0429 -0.1864  0.1560
22760W        W42294   8.043  16.674  14.052  0.1309  0.1721  0.0850
22761W        W42295  16.537  15.078  13.111 -0.0610 -0.2348 -0.3123
22762W        W42296   6.446  10.747   0.594 -0.1172  0.0700 -0.0240
22763W        W42297   5.835  17.977  11.421  0.1814 -0.0066 -0.0977
22764W        W42298  12.439  13.963   0.566 -0.2735  0.2122  0.0591
22765W        W42299   2.421  15.393  10.554 -0.0951 -0.1586  0.1885
22766W        W42300   7.659   8.946  13.438  0.0411 -0.2373  0.2526
22767W        W42301  17.855   2.232  10.764 -0.0011  0.0848 -0.0356
22768W        W42302  19.092   8.139   2.494 -0.2482 -0.0487  0.0120
22769W        W42303  15.086   9.547   3.183 -0.0558  0.0152  0.0971
22770W        W42304  11.772   7.526   3.206  0.0530 -0.4738 -0.1714
22771W        W42305   4.276  10.532   3.387  0.0937  0.3019  0.1907
22772W        W42306  19.160   5.015   4.148  0.4566  0.0428  0.2138
22773W        W42307  11.444   0.314   3.913 -0.2082  0.0708  0.2075
22774W        W42308   1.561  18.277   3.110 -0.0599 -0.0168 -0.0705
22775W        W42309  17.456   0.637  10.671  0.0750 -0.2038  0.2841
22776W        W42310  10.275   4.666  11.173 -0.1712 -0.0426  0.2813
22777W        W42311   3.376   8.042   2.561 -0.0218  0.2419 -0.0908
22778W        W42312   7.947   4.432  12.665  0.1029 -0.0193 -0.0599
22779W        W42313  14.974  12.092   1.402 -0.2732 -0.1674 -0.0440
22780W        W42314  11.614  18.388   1.381  0.2455  0.1149 -0.1333
22781W        W42315  12.699   8.771  12.213 -0.0041  0.1198 -0.1375
22782W        W42316   9.851   1.598   1.180  0.4231 -0.2858  0.2869
22783W        W42317  12.221  15.981  12.348  0.1527 -0.3616 -0.1222
22784W        W42318   5.954   1.570  13.836  0.1308  0.0313  0.0026
22785W        W42319   5.257  10.287  11.019 -0.0089 -0.0314 -0.0560
22786W        W42320   4.908   7.010   2.909 -0.1864 -0.4531  0.0013
22787W        W42321  13.197   9.848  12.515 -0.1845  0.0065 -0.1130
22788W        W42322   5.455  15.051   3.028  0.1410 -0.0870 -0.3722
22789W        W42323  13.408   0.965  12.647 -0.2061  0.1292 -0.0807
22790W        W42324   6.366  19.372   4.195 -0.2340  0.1088  0.0029
22791W        W42325   6.206  18.541   2.611  0.0868 -0.0126  0.1453
22792W        W42326  18.096   8.501   2.969  0.1890 -0.1801  0.0161
22793W        W42327   0.954   5.332   0.473 -0.0549 -0.2822  0.0118
22794W        W42328   0.415   6.729   1.165 -0.1538 -0.1991  0.1681
22795W        W42329  13.922   3.307   1.780  0.2913  0.1612 -0.0215
22796W        W42330   1.626   3.510  10.589 -0.1846  0.2706 -0.2793
22797W        W42331  14.370  11.624   4.505  0.1181 -0.0448 -0.0695
22798W        W42332   7.376  15.008  14.314  0.2714  0.2034  0.2941
22799W        W42333  10.409   7.762   3.507  0.1846 -0.4186  0.1671
22800W        W42334   4.755   2.412  14.005 -0.1179 -0.2607  0.0276
22801W        W42335  16.300  14.437  13.882 -0.0833  0.0645  0.1462
22802W        W42336   7.828   6.469  10.721  0.0715  0.1932  0.1785
22803W        W42337   1.663  11.690   2.553  0.1253 -0.3373 -0.2824
22804W        W42338  11.621  15.923  10.383  0.0677 -0.0089  0.0059
22805W        W42339   5.813  13.268  12.135 -0.0348  0.4397  0.1207
22806W        W42340   0.131  18.459   0.866 -0.0684  0.1335 -0.4910
22807W        W42341   5.972   2.367   2.299 -0.1664  0.0542 -0.0327
22808W        W42342   3.692  16.995  13.826 -0.2380  0.0106  0.1959
22809W        W42343  18.386   7.349  11.714  0.1799 -0.1849  0.1187
22810W        W42344   0.444  18.246  14.345 -0.1547 -0.1160  0.0934
22811W        W42345   5.507  11.235  12.003  0.1759 -0.0001 -0.1757
22812W        W42346   0.317   8.223  11.388 -0.1744 -0.3542  0.2395
22813W        W42347  18.546   4.810  13.197 -0.2096  0.2159  0.2761
22814W        W42348   9.817  14.605  11.593  0.2650  0.1777  0.2087
22815W        W42349  16.646  10.130   2.608 -0.0887 -0.0828  0.0691
22816W        W42350   5.528   3.073  12.641 -0.1498 -0.0614 -0.1133
22817W        W42351  11.364  14.747  13.798 -0.0118  0.1357 -0.0648
22818W        W42352   6.098  10.030   2.799  0.1514 -0.1328  0.2248
22819W        W42353   2.960  18.049   1.108  0.1754  0.0575  0.5174
22820W        W42354  17.830   8.640   2.458 -0.1743 -0.1136  0.2663
22821W        W42355  12.013   8.713   1.868  0.1827 -0.2624  0.1032
22822W        W42356  18.060   5.684  12.647  0.0991  0.2689 -0.1782
22823W        W42357   2.897  13.885   3.401  0.1968  0.1709 -0.3379
22824W        W42358   6.760  15.071  11.704 -0.2162  0.0269  0.0233
22825W        W42359  19.222  17.011   0.269 -0.0960 -0.0545  0.0923
22826W        W42360  11.092  17.607  11.387 -0.2134  0.0557 -0.3522
22827W        W42361  15.303   6.652  10.001 -0.0292 -0.1310 -0.0480
22828W        W42362  12.142   3.289  12.369  0.2742 -0.0897 -0.0256
22829W        W42363  19.014  12.627   1.862 -0.3347 -0.0834 -0.1557
22830W        W42364  15.627  17.760   2.108  0.3432 -0.0762 -0.6267
22831W        W42365   8.388  18.182   1.394 -0.0558  0.1830  0.1815
22832W        W42366  16.477  18.293   0.588  0.2089  0.0087  0.1858
22833W        W42367  12.191  13.162   3.200  0.1370  0.0976 -0.0371
22834W        W42368   8.793  13.694   1.641 -0.0584 -0.2957  0.2065
22835W        W42369   8.974  14.185  13.176 -0.1197  0.0022  0.0819
22836W        W42370   2.353  14.363   0.421  0.1882  0.0656 -0.0111
22837W        W42371   9.493   7.616   3.977 -0.1804  0.2011 -0.0325
22838W        W42372   2.877   3.277  10.503 -0.2303 -0.1694  0.2449
22839W        W42373   4.728   8.452   4.341 -0.2157 -0.2097 -0.1564
22840W        W42374  16.348  11.109   3.427 -0.2464 -0.1222  0.1405
22841W        W42375  15.231  15.078  13.009 -0.2811 -0.1742  0.1603
22842W        W42376  11.825   9.129   3.254  0.0484  0.2296 -0.0782
22843W        W42377  12.869  14.113   0.340 -0.1602 -0.1807  0.0797
22844W        W42378  16.544  14.101  11.576  0.1580  0.1010 -0.1827
22845W        W42379  10.982  13.860   2.005 -0.0913 -0.0018 -0.3320
22846W        W42380  10.079  11.352  14.084 -0.0888 -0.0739 -0.0213
22847W        W42381   3.307   7.319   3.068 -0.1333  0.1062  0.0852
22848W        W42382   0.601   7.534   1.702  0.0086  0.2004  0.0114
22849W        W42383   4.717  16.287  11.443 -0.1436  0.3213 -0.1168
22850W        W42384   6.891   5.176  10.600  0.2753  0.2595 -0.2968
22851W        W42385  15.016  14.191   0.268  0.0215 -0.0917 -0.2809
22852W        W42386   5.747  11.321   1.587  0.0376  0.1856  0.1303
22853W        W42387   1.847  12.775   0.447 -0.0976 -0.0647  0.2520
22854W        W42388   6.733   4.697   1.815 -0.2969  0.1324 -0.0676
22855W        W42389  11.261   3.991  14.213  0.2903 -0.0485  0.1027
22856W        W42390   9.521  13.657   2.287  0.3188 -0.0317 -0.2064
22857W        W42391   8.585  16.512  12.282  0.1975  0.1287  0.2528
22858W        W42392  14.527  12.028   3.318  0.0836  0.0495 -0.1400
22859W        W42393  17.510   0.219  11.763  0.0270  0.2156 -0.1966
22860W        W42394  14.623   0.166   2.931  0.0626 -0.1936  0.0985
22861W        W42395  15.563  17.820  10.470 -0.1137 -0.4137 -0.1753
22862W        W42396  13.146  18.597   2.540  0.3292  0.2518 -0.2177
22863W        W42397   1.183   3.117   0.226  0.0590  0.2448  0.3614
22864W        W42398   2.525   3.121   2.227 -0.0185 -0.0257 -0.0070
22865W        W42399  10.176  11.264  10.755 -0.1197  0.1145 -0.0002
22866W        W42400   4.280   2.797  13.060 -0.1186  0.0874  0.3593
22867W        W42401   6.812  18.983   9.686 -0.1031  0.1517  0.2668
22868W        W42402   2.531   2.853   2.818 -0.2093  0.1409 -0.3221
22869W        W42403  18.260  19.500   1.200 -0.0450  0.3409 -0.1198
22870W        W42404  12.164   4.367  11.721 -0.1040  0.2049  0.1429
22871W        W42405   2.528  10.425  12.587  0.2408  0.1285 -0.0886
22872W        W42406   1.525   6.172   3.496 -0.0293  0.2480  0.0429
22873W        W42407   8.439  19.071   0.217 -0.1194 -0.3134  0.2516
22874W        W42408   3.061  19.529   2.338 -0.0353  0.1418  0.1282
22875W        W42409  15.282   9.500  13.922  0.4197 -0.0313 -0.0648
22876W        W42410  13.286  12.682  10.980 -0.2065 -0.1032  0.0710
22877W        W42411  14.117   8.000   3.179 -0.2609  0.4574 -0.2002
22878W        W42412   9.350   2.852  13.424 -0.3590  0.0048 -0.0742
22879W        W42413   2.886   5.050  12.319 -0.6041 -0.1362 -0.0055
22880W        W42414  19.247  12.498   3.105 -0.0235 -0.4215  0.0612
22881W        W42415  18.512  14.058   0.711 -0.1035  0.0044 -0.1564
22882W        W42416   5.978  11.188  12.013  0.0484  0.2620  0.1257
22883W        W42417   0.164   3.598   0.003  0.1301 -0.1238 -0.0422
22884W        W42418  12.867   3.787  12.526 -0.4606  0.0710 -0.0448
22885W        W42419  14.021  14.043  13.889 -0.1307 -0.0666 -0.0862
22886W        W42420   3.017  18.284  10.922 -0.1854 -0.0713  0.0094
22887W        W42421  16.195   7.672  13.940  0.1281 -0.0423  0.0850
22888W        W42422  15.707   7.344   9.304  0.1808 -0.0399 -0.0256
22889W        W42423   3.363  19.424  12.305 -0.4089 -0.3465 -0.0099
22890W        W42424   6.574  18.603  12.999 -0.0507  0.0137 -0.0792
22891W        W42425  15.870   4.756   1.898  0.1051  0.5516 -0.2913
22892W        W42426  12.880  13.086   3.825  0.1974  0.0426  0.4452
22893W        W42427  11.962  16.852   3.379 -0.0033 -0.1908  0.0720
22894W        W42428  18.690   3.695  14.064 -0.0393 -0.0376  0.0488
22895W        W42429   7.089   1.904  12.374  0.1132 -0.0874  0.0728
22896W        W42430   4.944   9.338   1.066  0.2221 -0.1587 -0.2167
22897W        W42431  12.812  18.075   9.879 -0.1699 -0.0257 -0.2032
22898W        W42432  12.530  12.123   3.954  0.2186 -0.2039 -0.0485
22899W        W42433  11.079   7.010  13.151  0.1460  0.0592 -0.3035
22900W        W42434   7.377  19.100  11.482 -0.1170  0.0259 -0.2353
22901W        W42435   9.956   3.158   3.018  0.1056  0.1809  0.1127
22902W        W42436  18.561   5.958   1.899 -0.0728  0.2925 -0.0067
22903W        W42437   3.092   3.615  10.939 -0.1455  0.1193 -0.0248
22904W        W42438  13.853   7.268   2.402 -0.1130 -0.1031  0.0441
22905W        W42439   9.502   8.891   3.519 -0.4092  0.0739  0.0570
22906W        W42440  12.148  14.227  13.145  0.0362 -0.1911 -0.2075
22907W        W42441   6.886   6.286   2.799 -0.2200 -0.0686 -0.1913
22908W        W42442   9.828   4.132   4.133  0.2263 -0.2307  0.3088
22909W        W42443  11.650   3.878  10.241 -0.1652 -0.0440 -0.4833
22910W        W42444  16.598   1.190  12.702  0.0803  0.2513  0.0533
22911W        W42445  16.042   0.421   2.366  0.2380  0.4971 -0.1544
22912W        W42446  16.356   5.107   1.892 -0.0281 -0.0931 -0.0242
22913W        W42447  17.446  18.001   0.417 -0.1577 -0.2075 -0.0222
22914W        W42448  17.814  15.041   1.335 -0.0484 -0.1336  0.2549
22915W        W42449   3.236   7.505  11.444  0.2496  0.4120 -0.3513
22916W        W42450   5.909   0.107   2.433  0.0012  0.0400 -0.0631
22917W        W42451  13.412   2.712   1.168  0.0377  0.1373 -0.0036
22918W        W42452  15.694   8.001  13.103  0.0976 -0.1743 -0.1150
22919W        W42453   9.937   6.168  13.838  0.2619  0.0586 -0.2865
22920W        W42454   4.566   9.677  13.223  0.1270  0.0764 -0.0510
22921W        W42455  14.341  13.047  12.346 -0.0300  0.2393 -0.2881
22922W        W42456   5.410  12.726   1.062 -0.2081  0.0463  0.1081
22923W        W42457   1.997   1.678  10.640 -0.1780  0.0967 -0.0409
22924W        W42458   9.300   3.338   0.902  0.0769 -0.3113  0.1113
22925W        W42459   0.936  19.324  11.839  0.2248 -0.0820  0.3487
22926W        W42460   4.819   8.104  11.187  0.2128  0.1005 -0.2221
22927W        W42461  14.343   5.903   4.497  0.2020  0.0634  0.0129
22928W        W42462   2.533   1.802  13.284  0.2862 -0.1163  0.0459
22929W        W42463   2.691  15.884  13.787  0.0748  0.3179 -0.2692
22930W        W42464  13.585   0.522   3.096 -0.0901  0.0742 -0.1015
22931W        W42465   4.370  12.963   0.667  0.1613  0.1179  0.1793
22932W        W42466  14.017   6.425  12.955  0.0749 -0.0160 -0.1280
22933W        W42467  17.624  14.508   1.479  0.0477  0.0675  0.0603
22934W        W42468   8.102   8.554   3.504  0.4255 -0.1078  0.3120
22935W        W42469  17.614   3.949   1.351 -0.3245  0.1077 -0.0952
22936W        W42470  10.276   2.634   4.120 -0.4565  0.0597 -0.1392
22937W        W42471   9.082   4.994   1.842  0.1502 -0.0815  0.1544
22938W        W42472   8.757   2.357  11.777  0.0239 -0.1403 -0.0509
22939W        W42473  12.633  15.257   2.797  0.2533 -0.1389 -0.2200
22940W        W42474  15.169  19.107  10.836  0.1895  0.0683  0.1898
22941W        W42475   2.404   5.902  13.926  0.1106 -0.0078 -0.0369
22942W        W42476   0.057   5.544  13.266 -0.1620 -0.0302 -0.0721
22943W        W42477  12.905   2.421  11.311 -0.0829 -0.0410 -0.2147
22944W        W42478   2.690  12.412   0.279  0.1019 -0.0449  0.0262
22945W        W42479   4.473   5.334   3.077  0.1429  0.0389 -0.1121
22946W        W42480   7.388  17.684   2.777  0.0565  0.2143 -0.0279
22947W        W42481   9.299  12.399   3.669 -0.0404  0.1080 -0.0839
22948W        W42482  16.413  16.036  11.259 -0.3643 -0.1809 -0.1812
22949W        W42483  19.364   5.911   2.370  0.2028  0.0458 -0.0095
22950W        W42484   0.869  18.677  11.408  0.1041 -0.3424 -0.0650
22951W        W42485  12.335   5.132   3.110 -0.0398 -0.0205  0.2013
22952W        W42486  14.465  16.544   4.145  0.0535 -0.1418 -0.3001
22953W        W42487  11.670  17.819   3.429 -0.1811  0.2358  0.2214
22954W        W42488   2.865  12.766   4.206 -0.0515  0.1585 -0.0991
22955W        W42489  15.503  12.992   1.371 -0.1647 -0.4833 -0.3107
22956W        W42490  17.850   7.654   2.018 -0.1651  0.1276 -0.0627
22957W        W42491  18.523   7.454   0.317  0.0104  0.0572  0.2428
22958W        W42492  12.202   9.949  13.767 -0.1491 -0.2144  0.2214
22959W        W42493  17.045   5.829   1.500  0.0034 -0.2130 -0.1621
22960W        W42494   8.750   5.747  14.157 -0.0094  0.0587 -0.2570
22961W        W42495  19.439   4.314   2.914  0.2603  0.2830  0.1934
22962W        W42496  16.625  17.049   2.582 -0.1049 -0.0537  0.0042
22963W        W42497   3.710   9.717   3.955  0.1790  0.0180  0.1101
22964W        W42498   6.251   7.094  10.572 -0.2001 -0.1165  0.1875
22965W        W42499  14.169  14.474   0.409  0.1073  0.0042  0.0274
22966W        W42500  10.150  14.651   1.393  0.1649 -0.0901  0.0874
22967W        W42501  13.571  11.892   1.794  0.1824 -0.3262  0.1038
22968W        W42502  13.949  10.813  12.553 -0.0544  0.0104 -0.4207
22969W        W42503  14.957  15.571  13.986  0.1254 -0.2236 -0.3734
22970W        W42504  11.743  12.796  13.060  0.1630  0.2363 -0.1124
22971W        W42505  10.844   6.380   0.231  0.2776 -0.0755  0.1369
22972W        W42506   3.506   7.662   2.284 -0.0605  0.2429 -0.0026
22973W        W42507   6.492  14.380  11.100  0.0065 -0.1589 -0.0090
22974W        W42508  10.588   8.862   1.853 -0.0907 -0.2433  0.0649
22975W        W42509   2.467  17.142  13.686 -0.1404 -0.0934  0.1208
22976W        W42510  14.654   7.259  11.003  0.1414 -0.0954 -0.2395
22977W        W42511   3.614  16.060  13.742  0.0629  0.2358  0.2353
22978W        W42512   0.231   1.843  12.761  0.1488 -0.0604  0.4941
22979W        W42513   4.181  13.471  13.625  0.1881 -0.2030 -0.2551
22980W        W42514  13.012   1.875   3.138  0.1295 -0.0648 -0.1351
22981W        W42515  11.413  15.672   4.062  0.2190  0.0992 -0.1165
22982W        W42516  14.820   3.519   1.462 -0.0440 -0.2038 -0.1738
22983W        W42517   8.451   0.929  12.693 -0.3539  0.0167  0.0548
22984W        W42518   3.988  15.379  12.686 -0.1997 -0.0529  0.1352
22985W        W42519  18.196  18.656  14.049 -0.1048  0.1927  0.3367
22986W        W42520   7.983   1.229  12.766 -0.0689  0.1088 -0.0788
22987W        W42521  11.626   9.029   0.169 -0.3174 -0.0615 -0.0167
22988W        W42522   7.464  10.565   3.777 -0.1336 -0.5452  0.1301
22989W        W42523   5.181   4.828   3.065 -0.0259 -0.1203  0.0190
22990W        W42524   0.483  17.532  12.259  0.3548 -0.2393  0.0463
22991W        W42525   2.289  16.240  13.769 -0.0778 -0.0700  0.2465
22992W        W42526   7.394  18.301   0.995  0.1703 -0.2346 -0.0579
22993W        W42527   5.010  18.981   3.750  0.0207 -0.0499 -0.1690
22994W        W42528  13.620   1.245   1.088 -0.2971 -0.2064  0.2800
22995W        W42529   1.026  19.424  12.770  0.0357  0.0294 -0.0863
22996W        W42530  10.466  16.277  11.873 -0.1008  0.1199 -0.5611
22997W        W42531   5.305   4.079  12.591  0.1180 -0.1127 -0.1555
22998W        W42532   1.089  12.267  13.674 -0.3529 -0.2340 -0.1401
22999W        W42533  12.310   6.391   0.952  0.2580 -0.0811  0.3406
23000W        W42534  16.701   8.765  10.492  0.0106  0.0152  0.0544
23001W        W42535   3.718   0.905  14.237  0.0279 -0.1314 -0.2806
23002W        W42536   6.897   0.071  12.749  0.1272  0.1253 -0.2887
23003W        W42537   2.293  17.171   2.986  0.2691 -0.1321 -0.2491
23004W        W42538   0.742   6.622   0.715  0.2173  0.1445 -0.1940
23005W        W42539  11.771  13.994   2.645  0.1005 -0.0128  0.0768
23006W        W42540   4.124   0.891   1.384 -0.0931 -0.0764 -0.1204
23007W        W42541  18.736   0.477  10.922  0.1276  0.2621  0.1883
23008W        W42542  10.914  12.050  10.180 -0.1920  0.1469  0.0847
23009W        W42543   6.975   2.329  14.041  0.1212 -0.3978  0.1465
23010W        W42544   2.292  13.833  11.820 -0.2928  0.3219  0.2307
23011W        W42545  17.657  18.543  12.602 -0.2724 -0.3196  0.0600
23012W        W42546  15.412   4.544   5.018 -0.0495 -0.3765  0.1213
23013W        W42547  16.021  16.209  13.553  0.2258  0.0908 -0.0786
23014W        W42548  10.877  18.289   3.188  0.2772 -0.0395  0.2114
23015W        W42549   2.675  17.395  12.201  0.0714  0.2058  0.1024
23016W        W42550   5.892   4.632  10.693 -0.2220  0.1653  0.1433
23017W        W42551  16.758  13.189  11.753 -0.2089 -0.0628  0.0470
23018W        W42552  12.227   4.331   1.270  0.1108 -0.1281 -0.2812
23019W        W42553  12.924  17.888  12.607  0.2159  0.2282  0.0305
23020W        W42554   4.290  12.848  13.619 -0.3141  0.2253 -0.0011
23021W        W42555  14.897  14.487  10.136  0.3579  0.2363  0.0785
23022W        W42556  16.832   6.007   2.075  0.0444  0.0907  0.0534
23023W        W42557   5.489   3.977  13.903 -0.1037 -0.1208 -0.1417
23024W        W42558   1.853  18.446   0.169  0.2705  0.1953  0.2432
23025W        W42559  16.408  17.873  12.642  0.4225  0.2621  0.0865
23026W        W42560  10.872   6.189  12.821  0.0740  0.0557  0.1733
23027W        W42561   4.004  15.113   3.011  0.0923 -0.0908  0.1340
23028W        W42562  17.924   6.914   1.045 -0.3022 -0.0978 -0.0879
23029W        W42563  14.542   1.334   3.628 -0.1453  0.3041 -0.0659
23030W        W42564   7.598   7.309  12.587 -0.0849 -0.4476  0.0533
23031W        W42565  14.365  14.912   0.358 -0.0694 -0.0422  0.0343
23032W        W42566  19.159   2.085   1.762 -0.0574  0.1572  0.1626
23033W        W42567  13.215  14.739   3.481  0.1700  0.1866  0.0887
23034W        W42568   3.836   4.728   2.646  0.2644  0.2283  0.1436
23035W        W42569   9.106  15.147  13.461 -0.0018 -0.4691 -0.0193
23036W        W42570   0.352  17.117  11.941 -0.1042 -0.4715 -0.2240
23037W        W42571  11.392   8.578  10.316 -0.2214 -0.0912  0.2935
23038W        W42572   9.093  14.526  11.398 -0.2879 -0.2727 -0.1741
23039W        W42573   1.103   2.470   1.198  0.1371 -0.2764  0.1070
23040W        W42574   1.149  14.076   3.454 -0.1855  0.0361 -0.1563
23041W        W42575   2.701   5.663   1.710  0.0804  0.0906 -0.1337
23042W        W42576   9.354  19.233  11.241  0.2283  0.1613  0.3165
23043W        W42577  11.196   0.061   3.472 -0.1012  0.1607 -0.1933
23044W        W42578  11.053  18.710   0.243  0.0795 -0.1266 -0.0650
23045W        W42579  19.017  13.357  13.331 -0.0072  0.0022 -0.0700
23046W        W42580   2.802  11.597  10.407 -0.0101 -0.1813  0.1663
23047W        W42581   1.819  17.975  12.307 -0.1827  0.3941 -0.1327
23048W        W42582  17.300  11.155   2.817  0.3166  0.0691 -0.1075
23049W        W42583  12.489   4.025  13.033 -0.0879  0.1509  0.1071
23050W        W42584  10.344   8.313   0.313  0.0019 -0.1170  0.3347
23051W        W42585   8.719  17.151  13.043 -0.2896  0.0437  0.1815
23052W        W42586  16.630  15.919   1.520 -0.1872 -0.1063  0.1275
23053W        W42587  11.487   7.923  11.446 -0.1397  0.1307 -0.1411
23054W        W42588   1.773  19.274  10.670  0.0980 -0.1976  0.0320
23055W        W42589   9.623  17.018  11.011  0.0318 -0.0066 -0.1262
23056W        W42590   0.581   8.789   1.137 -0.1650  0.0768  0.2779
23057W        W42591   0.152   8.021  11.926  0.0923 -0.2250  0.0641
23058W        W42592   6.746   8.380  11.822  0.0233 -0.1197  0.1525
23059W        W42593  19.316  17.078  11.128 -0.2667  0.1561  0.1855
23060W        W42594   1.657   5.804   0.072  0.3257  0.0500  0.0262
23061W        W42595  11.221   9.690  10.420  0.2760  0.1461  0.0662
23062W        W42596   4.540   7.994   1.202  0.4224 -0.0686  0.0566
23063W        W42597  10.035   8.984  13.568 -0.0790  0.1811  0.5075
23064W        W42598  10.480  14.032   2.110 -0.3629 -0.3417  0.1643
23065W        W42599  14.856   7.049  13.834  0.0787 -0.1664  0.1890
23066W        W42600  14.282  13.179   1.606  0.1886 -0.4265 -0.0812
23067W        W42601  12.296  12.743  11.331 -0.0805  0.1103  0.1386
23068W        W42602  18.930  17.324   2.162 -0.1341  0.1241 -0.0574
23069W        W42603  14.197   5.904   2.425 -0.2154 -0.1062  0.0496
23070W        W42604  16.976  17.840  11.287 -0.0196 -0.3410 -0.1699
23071W        W42605  12.427  16.757   9.935  0.2893  0.3850 -0.1602
23072W        W42606   2.613   4.648  12.244  0.0084  0.2298  0.1827
23073W        W42607  18.504   3.763   3.525  0.1697  0.2488 -0.1261
23074W        W42608   4.653   8.434   3.291  0.0969 -0.1019  0.1041
23075W        W42609  16.775   7.723   3.364 -0.0324 -0.0755 -0.1499
23076W        W42610  11.391  17.663  14.254  0.1270  0.0348 -0.0932
23077W        W42611  19.236  18.824  13.610  0.0192  0.3008  0.2636
23078W        W42612   6.047  19.079   3.310 -0.3383  0.0848 -0.2835
23079W        W42613   3.552  15.586  11.474  0.0446  0.0103 -0.3399
23080W        W42614   1.404   6.320  13.474 -0.0306  0.1839 -0.1335
23081W        W42615  10.708   0.777  12.830 -0.0607  0.1131 -0.0521
23082W        W42616   1.967   8.820  12.220 -0.0113 -0.2156  0.0231
23083W        W42617  15.877  18.148   2.482 -0.0552  0.3734 -0.0310
23084W        W42618  12.413   5.338  10.828  0.0438  0.0859  0.0463
23085W        W42619   5.051  12.217  12.381 -0.0434  0.0411  0.0592
23086W        W42620  11.730   8.273   3.809  0.1606 -0.0033 -0.0500
23087W        W42621   8.550   0.889   0.011 -0.2662 -0.0900  0.1261
23088W        W42622  12.820  12.227   2.808 -0.0718 -0.0457 -0.0188
23089W        W42623  12.962  13.816  14.285  0.2281  0.1262 -0.1976
23090W        W42624  12.092   3.160   2.411  0.1424  0.0049 -0.3229
23091W        W42625  10.273   9.719   2.067 -0.1833  0.1716  0.0139
23092W        W42626  14.837  14.004   1.672  0.0584  0.2599  0.1770
23093W        W42627  18.045  10.086  12.675 -0.1226  0.0472 -0.3907
23094W        W42628   5.124  19.157  12.001  0.2318  0.2283  0.1777
23095W        W42629   8.239   6.545  13.300 -0.0173  0.1104 -0.0496
23096W        W42630   7.020  11.815   2.333  0.2029  0.2838 -0.0899
23097W        W42631  18.159   0.327   3.994 -0.1104 -0.1544 -0.3771
23098W        W42632   7.255  19.096  13.198  0.0558  0.0489  0.2842
23099W        W42633   0.412  11.586   2.888  0.2251  0.1193 -0.0178
23100W        W42634   3.524   5.112  13.629 -0.2017  0.0208 -0.0208
23101W        W42635   9.067   3.628   1.213 -0.3151 -0.4841  0.1816
23102W        W42636  18.939   2.005   2.740  0.2366 -0.2419  0.0060
23103W        W42637   3.056  10.137   2.521  0.0003 -0.1465 -0.0010
23104W        W42638  17.735  12.085   1.598 -0.1674 -0.2604  0.0930
23105W        W42639   4.836   3.224  13.751 -0.2592  0.2365 -0.4696
23106W        W42640   6.237  11.224   0.883  0.3544 -0.0302 -0.1526
23107W        W42641  12.320  18.808  10.659  0.0578  0.2135 -0.1351
23108W        W42642   1.043  16.890   3.583  0.4780  0.1389 -0.0057
23109W        W42643   3.799   0.691   0.942  0.3145 -0.1355  0.1323
23110W        W42644  10.007  10.664  13.743 -0.1191 -0.1840  0.0629
23111W        W42645  16.186  14.081  12.320 -0.5374 -0.1516 -0.4067
23112W        W42646   7.514  14.692   0.822 -0.1155  0.1290 -0.2447
23113W        W42647  18.257  12.998  10.798 -0.0018 -0.3337  0.0916
23114W        W42648  12.327   5.428  12.854 -0.0229  0.1476 -0.1137
23115W        W42649  11.750  12.327   2.249 -0.2280 -0.0468  0.1889
23116W        W42650   8.608   9.104  11.121  0.0805  0.0933 -0.0812
23117W        W42651   9.448  11.828   3.756 -0.0989  0.0510 -0.2675
23118W        W42652  12.063   9.686  11.567 -0.4009  0.1580  0.4700
23119W        W42653  12.871   9.545   5.033 -0.3373 -0.0855  0.1654
23120W        W42654   3.616   2.864  13.579 -0.1483 -0.2636 -0.0685
23121W        W42655  16.653   0.685  13.679 -0.0416 -0.0869  0.2027
23122W        W42656  13.178   2.628   2.888  0.0905  0.0835  0.1099
23123W        W42657   8.775   5.235   2.739 -0.0139  0.1855  0.1802
23124W        W42658  16.317  17.338  11.111  0.0030  0.1227 -0.0526
23125W        W42659   0.275  19.535   4.115 -0.1135 -0.1481 -0.2385
23126W        W42660  14.474   1.678   0.790 -0.0564 -0.0405 -0.0700
23127W        W42661   8.611  10.767   3.705 -0.0250 -0.2168  0.0814
23128W        W42662  11.137  14.521   0.619 -0.3411  0.1548  0.0164
23129W        W42663   8.681  11.326   3.215  0.5742  0.1447  0.0225
23130W        W42664  10.281   9.145   1.511  0.0913 -0.0824  0.0939
23131W        W42665   6.650  16.568   1.837 -0.1152  0.0204  0.0356
23132W        W42666  15.358   3.623  10.524  0.0952 -0.3166 -0.1362
23133W        W42667   7.365   1.220   2.775  0.4843  0.2984  0.0534
23134W        W42668   2.331  15.810   3.143  0.3472  0.1900 -0.1127
23135W        W42669   2.244   6.332  11.405  0.1894  0.2518  0.0910
23136W        W42670  16.166   6.637   0.536 -0.2284 -0.4555 -0.0588
23137W        W42671  12.531   7.531  12.396 -0.0496  0.1049  0.0397
23138W        W42672  13.352  11.327  10.955 -0.1473 -0.1166 -0.1005
23139W        W42673  17.448  16.919   0.761  0.0744 -0.2276 -0.2461
23140W        W42674   2.536  10.305  11.650  0.0295  0.0757 -0.0692
23141W        W42675   9.969   8.046   0.017  0.0505 -0.2941  0.2727
23142W        W42676   9.644  13.400   0.551  0.2675 -0.0673  0.2044
23143W        W42677   1.834   7.344  10.727 -0.0147 -0.1973 -0.0453
23144W        W42678   0.388  10.318  13.933 -0.0936  0.0572 -0.3481
23145W        W42679   6.452  15.449  12.252  0.0718 -0.3544  0.1268
23146W        W42680  19.010   9.551   4.166 -0.2125 -0.0644  0.0018
23147W        W42681  15.025  13.837  10.384  0.0402 -0.1023 -0.0459
23148W        W42682   3.129  16.107  10.319 -0.3501  0.1551  0.1809
23149W        W42683   3.494   8.375   1.260  0.2122  0.2423  0.2380
23150W        W42684   8.255   9.494  12.721  0.1280  0.1876  0.0259
23151W        W42685  10.910   2.491  10.718 -0.2354  0.0787 -0.3456
23152W        W42686   5.064   0.174   1.338  0.1705 -0.1612 -0.5582
23153W        W42687   9.842   9.986  10.906 -0.1172  0.0205 -0.1139
23154W        W42688   8.738   7.385   1.565 -0.0881  0.0659 -0.0813
23155W        W42689   0.853  12.201  13.212  0.0542 -0.1037 -0.1612
23156W        W42690  12.679   9.356   3.169  0.3142 -0.2368  0.0076
23157W        W42691  17.715   1.902  11.099  0.0321 -0.0590  0.1117
23158W        W42692   1.004  16.735   2.109 -0.2121  0.1991  0.1329
23159W        W42693  16.215   2.740   0.958  0.0948 -0.0840 -0.1088
23160W        W42694   8.144  17.575   2.680  0.0282 -0.1467  0.0388
23161W        W42695  11.235  15.162   2.482  0.4405  0.0985  0.2677
23162W        W42696   3.115   3.224  10.079  0.2293  0.4169  0.2528
23163W        W42697   5.266   2.459   5.336 -0.1806  0.0092  0.0914
23164W        W42698   8.868  16.555   2.706  0.0399 -0.1827  0.0615
23165W        W42699  16.168  14.552  13.362 -0.2024 -0.1028 -0.1674
23166W        W42700   5.694   6.968  10.436 -0.4250 -0.1352 -0.3809
23167W        W42701   7.480  13.009  14.250  0.2053 -0.0075 -0.0979
23168W        W42702  14.072  11.832   2.606 -0.0455  0.0167 -0.0519
23169W        W42703  15.665  17.697   2.663 -0.0857  0.3857 -0.3495
23170W        W42704  16.053  13.590   9.175 -0.0102 -0.1096 -0.1086
23171W        W42705   0.396  15.572  12.333 -0.2174 -0.4375 -0.0436
23172W        W42706   4.596   5.389   3.601  0.0588 -0.1608 -0.2903
23173W        W42707  13.851  19.071   3.907 -0.0399 -0.0331 -0.0076
23174W        W42708   0.913   8.928   0.733 -0.1667  0.4472  0.0599
23175W        W42709  16.328  12.536   2.667  0.0075 -0.3143 -0.0443
23176W        W42710   6.109  12.295   1.173 -0.1583  0.3842  0.0561
23177W        W42711   2.281   9.187   0.950 -0.0030  0.1797  0.3162
23178W        W42712  18.525   1.968  11.909  0.2446 -0.0951 -0.1057
23179W        W42713   2.327  19.427   1.195  0.2088  0.0610  0.1812
23180W        W42714   8.544  17.534  14.041  0.1162  0.1509 -0.0393
23181W        W42715   1.974  14.048   0.370 -0.0697  0.0232 -0.0273
23182W        W42716  11.147  15.166  13.645 -0.0969  0.0719  0.0827
23183W        W42717  14.471   6.663   2.748  0.1634  0.0369 -0.2376
23184W        W42718   2.776  10.729  11.870 -0.1899  0.1165  0.2468
23185W        W42719   1.659  14.156  12.530 -0.0629  0.2572 -0.0976
23186W        W42720  16.581   7.916  13.781  0.2744 -0.0411  0.0633
23187W        W42721   2.145   6.377   1.720 -0.0407 -0.0017  0.0473
23188W        W42722   3.461   5.502   1.038  0.5210  0.1870 -0.1170
23189W        W42723   8.646  16.660   4.211 -0.2622  0.0497  0.0216
23190W        W42724  18.483   4.965   3.983 -0.1371 -0.0865  0.0027
23191W        W42725   6.662  12.863   4.343 -0.0250  0.0619 -0.1190
23192W        W42726   7.718   8.874   3.526 -0.0229  0.1357  0.0030
23193W        W42727  18.131  15.243  13.890  0.1777 -0.0031  0.3201
23194W        W42728  17.902  10.887  10.649  0.0191 -0.0222  0.0200
23195W        W42729   9.786  15.265   4.863  0.2733 -0.2994 -0.0682
23196W        W42730  11.459   2.968   0.717  0.1809  0.0828 -0.1593
23197W        W42731  18.631   0.335   1.476  0.2647 -0.0743 -0.0900
23198W        W42732  17.316   0.733   3.862 -0.1436  0.1562 -0.0520
23199W        W42733   6.126   6.962  14.219 -0.1263  0.1452 -0.3055
23200W        W42734   5.934   8.227   2.898  0.0781  0.5018 -0.0193
23201W        W42735  16.930   8.620  12.405  0.2165  0.2030  0.1812
23202W        W42736   2.048   9.943   1.350 -0.0758 -0.0236 -0.0671
23203W        W42737  17.768   8.718   0.889 -0.2087 -0.1863 -0.1122
23204W        W42738   0.390   3.255   3.541 -0.1273  0.0053 -0.0660
23205W        W42739  14.158  16.380   2.880  0.0985 -0.0074 -0.1038
23206W        W42740  15.424  11.549  13.407  0.1722  0.1158 -0.0341
23207W        W42741   6.091  14.187   1.956 -0.2231  0.1334 -0.3221
23208W        W42742   9.855  11.377   4.534  0.0765  0.1843 -0.0387
23209W        W42743   4.651  12.018  13.661 -0.3537 -0.1395  0.1315
23210W        W42744  16.486   9.706  11.747 -0.2510 -0.1275  0.0787
23211W        W42745   7.916  19.329   2.785  0.0261  0.1622 -0.0109
23212W        W42746  13.588  17.576   1.734  0.0948  0.2499 -0.1178
23213W        W42747  15.309   5.156   0.121  0.2229 -0.0652  0.0574
23214W        W42748  17.031   3.217  13.536 -0.0265 -0.1190 -0.0019
23215W        W42749   1.295  15.378   3.596  0.1231 -0.0835  0.1855
23216W        W42750   5.552   5.758  10.512 -0.2705  0.0763  0.0544
23217W        W42751   5.201  11.470  11.697 -0.1818 -0.0245 -0.3931
23218W        W42752  19.364  12.182  12.436 -0.0070  0.1031 -0.1092
23219W        W42753   8.787   3.716  12.334  0.0555  0.1728  0.2478
23220W        W42754  11.992   8.152   2.716  0.1075  0.2288 -0.4423
23221W        W42755   9.209  14.006  10.572 -0.1279 -0.0321  0.0284
23222W        W42756  10.921   8.446   1.886 -0.1965 -0.3219 -0.1131
23223W        W42757   1.144   4.658  12.391  0.0132  0.1031  0.2875
23224W        W42758  12.805  11.855   2.513  0.1910  0.2657 -0.1004
23225W        W42759  10.498   6.914  10.458 -0.0871  0.1952 -0.3734
23226W        W42760  16.066   4.271   0.957  0.1235  0.0098 -0.2315
23227W        W42761  13.170   2.920   0.413  0.3459 -0.2886 -0.0009
23228W        W42762  15.360   4.033   0.773 -0.0252 -0.0590  0.2557
23229W        W42763   3.110  11.799   9.718  0.0477 -0.0384 -0.0589
23230W        W42764  11.922   0.376   0.462  0.3573  0.2122  0.0104
23231W        W42765   4.682   3.947  13.259  0.2046 -0.1293  0.2388
23232W        W42766  12.799  15.001  14.219 -0.0576 -0.0473 -0.0192
23233W        W42767  11.760   1.543  12.737 -0.0633  0.1008 -0.0445
23234W        W42768   3.657  15.923  10.910  0.1036  0.3962  0.1427
23235W        W42769   7.209   8.987  11.183  0.0570  0.0366 -0.1125
23236W        W42770   2.876   1.016  12.614 -0.2747 -0.0045 -0.2440
23237W        W42771   1.508   0.506   2.117 -0.3375  0.2518 -0.1529
23238W        W42772  13.708  19.526  11.423  0.1440 -0.3375  0.0944
23239W        W42773   1.293  12.510   2.886  0.0166  0.0667  0.2680
23240W        W42774  13.902   5.090   3.991  0.2222  0.1481 -0.1170
23241W        W42775   2.924   4.551  11.857 -0.3489 -0.0448 -0.2033
23242W        W42776   3.294   0.274   1.412  0.0706 -0.0373 -0.0127
23243W        W42777   8.823  14.291   3.300 -0.2190  0.0972  0.1686
23244W        W42778   7.049   5.788  13.383 -0.0788 -0.0321 -0.0000
23245W        W42779  13.360  17.813  13.570 -0.0966 -0.3640 -0.0949
23246W        W42780   3.493  16.084  13.212  0.1170 -0.0066  0.0576
23247W        W42781   6.378  14.262  11.653 -0.0708  0.0850 -0.0753
23248W        W42782   3.484   4.752   1.888 -0.0958 -0.2658 -0.0513
23249W        W42783   5.740  18.288   2.711 -0.2477  0.0883  0.0015
23250W        W42784   9.632  12.748   1.893  0.2959  0.1627  0.0855
23251W        W42785   4.108   7.920  14.129 -0.3595 -0.0223 -0.0241
23252W        W42786   7.786  10.628  11.713  0.0472  0.1386  0.2068
23253W        W42787  10.610   1.212  13.599 -0.0371 -0.1649 -0.0438
23254W        W42788  11.647  18.193   2.021  0.1106 -0.1926 -0.0165
23255W        W42789  18.052   1.757  12.006 -0.2057 -0.3573  0.0953
23256W        W42790  17.129  18.212  14.002 -0.0412 -0.0484  0.1832
23257W        W42791   6.266  16.810  12.446  0.0461 -0.0875  0.1232
23258W        W42792   0.562   3.942  10.835  0.1133 -0.1242  0.0167
23259W        W42793  13.468   7.425  11.671 -0.2518  0.0369  0.1953
23260W        W42794  19.382   9.798   2.722 -0.0534 -0.1017  0.1012
23261W        W42795   3.603   5.520   1.717  0.0137  0.1787  0.3539
23262W        W42796   1.139  10.704  14.282 -0.2560  0.1662 -0.2346
23263W        W42797   7.371   2.000   1.498 -0.1203  0.0073  0.1437
23264W        W42798   2.823   7.201   0.075 -0.0374  0.0815 -0.0510
23265W        W42799   0.613  11.121  12.903  0.2418  0.1606 -0.0722
23266W        W42800   8.017   3.252   0.141 -0.2810 -0.1059 -0.1661
23267W        W42801   5.588   8.069   0.919 -0.2023  0.0317 -0.0948
23268W        W42802   2.579   7.203   0.670  0.0046 -0.0268  0.2283
23269W        W42803  17.764   5.529   1.037 -0.0339 -0.4887 -0.1115
23270W        W42804  10.301   1.877  11.070 -0.2679  0.0088  0.0485
23271W        W42805   5.601  19.449  13.197  0.0052 -0.1492 -0.0054
23272W        W42806   9.537   4.691   2.821 -0.3490 -0.1488 -0.1307
23273W        W42807   1.067   0.585   1.708  0.1377  0.2372  0.0054
23274W        W42808   1.383   6.703   1.570  0.0138 -0.2509 -0.1271
23275W        W42809   3.432   6.019  10.777  0.2568 -0.2889  0.1893
23276W        W42810   3.491   6.503  13.078 -0.5720 -0.2141 -0.1842
23277W        W42811   6.395  17.399   1.957  0.0228 -0.1099  0.2050
23278W        W42812  19.364  15.801  10.570 -0.3291  0.2807 -0.1307
23279W        W42813   0.902  10.690  10.718 -0.1900 -0.0052 -0.1071
23280W        W42814  12.543  19.306  12.454 -0.2251 -0.0356  0.2377
23281W        W42815  11.047  19.111  11.469  0.3056 -0.2831  0.3006
23282W        W42816   3.893  19.334  13.562  0.3602  0.0186 -0.1362
23283W        W42817   9.559  11.262   0.683 -0.3099  0.2251  0.0094
23284W        W42818  15.358  10.446   2.297 -0.2679 -0.1616 -0.1899
23285W        W42819   4.543  18.656   1.998 -0.2236  0.0356  0.2369
23286W        W42820  10.909   0.038   2.661  0.0938 -0.1098  0.2409
23287W        W42821  14.477   6.096   1.989 -0.2204 -0.1032  0.0413
23288W        W42822   6.239  13.364   2.247  0.1600 -0.0062 -0.1087
23289W        W42823   7.524   6.753   9.487 -0.1513 -0.0517  0.3643
23290W        W42824   1.751  13.732   1.984  0.4536 -0.0809  0.3325
23291W        W42825   2.890  11.811  12.900 -0.2707 -0.2434 -0.0511
23292W        W42826  18.522   6.994   9.647  0.1117  0.3434  0.3457
23293W        W42827  19.083  12.331   0.486 -0.0760 -0.4845 -0.0969
23294W        W42828   0.155  17.032  11.461 -0.1145 -0.0189 -0.0374
23295W        W42829   7.213   2.770  10.096  0.2676 -0.2245 -0.2452
23296W        W42830  16.925  16.197  13.734  0.1792 -0.1520 -0.1292
23297W        W42831  13.382   7.539  13.544  0.2071 -0.2500  0.0855
23298W        W42832  14.927  15.440   9.467  0.1816  0.0067  0.0391
23299W        W42833   2.153   7.726   3.527 -0.0055 -0.2205  0.2913
23300W        W42834   2.923  17.185  13.453 -0.0478  0.1331 -0.1817
23301W        W42835  19.102   2.257   3.168  0.2238  0.1052  0.0158
23302W        W42836  12.598  15.576   2.258  0.1580 -0.2002 -0.0042
23303W        W42837   2.806   7.301   2.313 -0.0656 -0.1231 -0.1303
23304W        W42838  18.094   9.729  11.460 -0.1459  0.2420 -0.2368
23305W        W42839  11.615   1.876  10.868 -0.0808  0.0348  0.3608
23306W        W42840   4.039   3.413   3.089 -0.1580  0.0311  0.3100
23307W        W42841   3.568   3.576   1.359 -0.0743 -0.3818 -0.0582
23308W        W42842  10.229   1.506  10.361  0.3320  0.0313 -0.1871
23309W        W42843  11.720  16.505  10.518 -0.1009  0.2120  0.1095
23310W        W42844   0.130  14.666   4.367  0.0260  0.1796  0.0913
23311W        W42845  14.208   9.366   9.983 -0.1402 -0.0197  0.1674
23312W        W42846   7.619   1.784   0.276  0.3165 -0.0611 -0.1809
23313W        W42847  12.129   0.201   2.368 -0.0760 -0.1013  0.2326
23314W        W42848   4.095  19.315  10.884 -0.3577  0.3351  0.1697
23315W        W42849  15.367   1.194  11.387 -0.2704  0.1466 -0.0102
23316W        W42850   2.691   5.198  13.408 -0.2093 -0.1506  0.1470
23317W        W42851   7.260   7.914   3.496  0.0950 -0.0170  0.1296
23318W        W42852   6.450   1.284   1.209  0.3704  0.1375 -0.3117
23319W        W42853  18.061   9.806  13.507 -0.1127 -0.4064  0.0827
23320W        W42854   4.239  18.808   1.622  0.0233 -0.0099  0.0134
23321W        W42855   2.789   0.449   3.535  0.0074 -0.1198 -0.2077
23322W        W42856  17.738   7.597  10.552 -0.0109  0.0967  0.0769
23323W        W42857  14.846   1.329  12.435  0.0138  0.0060 -0.2307
23324W        W42858  15.004  16.457   3.809  0.3173 -0.1289  0.2024
23325W        W42859   9.079   6.974   1.465 -0.2489 -0.0649  0.0828
23326W        W42860  16.479   8.363   1.798  0.2704 -0.0730  0.2959
23327W        W42861  10.548   4.840  12.184  0.3101  0.0614 -0.3324
23328W        W42862  13.314   4.265   1.337  0.1209  0.1151  0.1159
23329W        W42863  10.846   9.643  13.245 -0.0379  0.1474 -0.0788
23330W        W42864   1.591  13.458   3.997  0.2697  0.0702 -0.2916
23331W        W42865  10.494  12.942   9.704  0.0638 -0.1723  0.0547
23332W        W42866  11.852   2.990   3.570  0.0188  0.0700 -0.1398
23333W        W42867  18.824  13.939   9.958  0.0028  0.1362 -0.1212
23334W        W42868   0.173  17.773  13.729  0.1941  0.0970  0.0140
23335W        W42869  17.061   2.400  14.223  0.1636 -0.0667  0.3387
23336W        W42870   4.585   2.400  13.511 -0.0149  0.1341 -0.0209
23337W        W42871   0.251  16.635   2.830  0.1295  0.2043 -0.1259
23338W        W42872  16.384  11.308   3.894  0.2246 -0.3277 -0.0651
23339W        W42873  14.965  12.245  12.237 -0.1318  0.1437  0.1944
23340W        W42874  18.508  14.777   4.768  0.0867 -0.1231 -0.2932
23341W        W42875  12.744  19.080  14.149 -0.0542  0.2536  0.0170
23342W        W42876  12.344   6.817   1.274  0.2421 -0.0237 -0.1584
23343W        W42877   9.950  15.851  13.609  0.2711 -0.1401  0.2270
23344W        W42878   4.411   6.720  12.798 -0.0155 -0.0305  0.0327
23345W        W42879  18.270   5.541   0.609 -0.1941 -0.1243 -0.2101
23346W        W42880   7.876  10.569  10.133 -0.2623  0.1037 -0.1181
23347W        W42881   7.750   5.493   1.875 -0.1674 -0.0075  0.1747
23348W        W42882  11.047  13.049   0.951  0.2659  0.2870  0.2177
23349W        W42883  17.582   1.656  10.676 -0.3522 -0.1506 -0.0926
23350W        W42884  13.148  18.872   2.086  0.0492  0.2625  0.5292
23351W        W42885   1.409   7.120  13.344  0.1179 -0.1958 -0.0904
23352W        W42886   2.579  16.873  14.222  0.0154 -0.3337 -0.1338
23353W        W42887  17.888  18.290   3.331  0.2442  0.3898  0.0534
23354W        W42888  19.213   0.181   2.170  0.0188  0.1124  0.0863
23355W        W42889   2.680   5.107   0.854  0.4110 -0.0954  0.0114
23356W        W42890   7.768   6.955  10.886 -0.4565 -0.1875 -0.0001
23357W        W42891   6.497  18.431   2.212  0.3975 -0.0033 -0.0270
23358W        W42892  16.145   9.581   1.965  0.2403 -0.1303  0.0586
23359W        W42893  17.276   1.006   1.502  0.1280 -0.3348  0.0265
23360W        W42894   5.750  10.847  12.967  0.1375 -0.1295  0.0771
23361W        W42895   5.245   4.234   2.565  0.0413  0.0411  0.0829
23362W        W42896   2.538  16.346   1.663 -0.0964  0.0332  0.0397
23363W        W42897  13.241   9.453   1.977  0.1685 -0.0834 -0.3300
23364W        W42898   0.193  12.527  12.178  0.1865 -0.1088  0.5176
23365W        W42899  17.365   3.454  13.070  0.0627  0.2466 -0.3100
23366W        W42900  15.898   5.832   1.654  0.0949  0.1979 -0.0331
23367W        W42901   0.477   4.777  13.554  0.1152 -0.0404 -0.1640
23368W        W42902   7.160  19.348  10.584 -0.0090 -0.1893  0.0276
23369W        W42903   5.023  14.049  11.016  0.0648 -0.0995  0.3312
23370W        W42904  13.082  16.016   1.282 -0.1925 -0.3132 -0.1883
23371W        W42905   5.931  16.665   2.981 -0.1448  0.0154  0.3302
23372W        W42906   8.051   5.890  11.042 -0.1914  0.2106  0.1351
23373W        W42907   7.537   5.691   2.934 -0.1057  0.0520  0.2537
23374W        W42908  10.058   1.439   4.551 -0.0637 -0.1105  0.2974
23375W        W42909  12.588  13.255  11.664  0.2838  0.1904 -0.0604
23376W        W42910   8.523   4.486   0.239 -0.0753 -0.3956 -0.3057
23377W        W42911  14.232  16.061   4.122 -0.1786 -0.0566  0.0199
23378W        W42912  16.800   2.460   5.081 -0.1834  0.0631  0.1859
23379W        W42913   3.803  13.879  11.641  0.0459 -0.0274 -0.2255
23380W        W42914  11.533  11.138  11.469 -0.0772  0.0703  0.1330
23381W        W42915  13.537   7.141   1.248 -0.0055 -0.2158 -0.3904
23382W        W42916  14.713   3.959   1.828  0.0679  0.1404 -0.0714
23383W        W42917   9.105   8.467  10.857 -0.0332  0.0611 -0.1078
23384W        W42918  11.196  18.522  13.974  0.0415  0.1857 -0.1673
23385W        W42919  18.923  19.212  10.607 -0.1584  0.0474  0.0802
23386W        W42920  16.696  15.962   4.107 -0.1838 -0.3758 -0.2880
23387W        W42921   7.519  15.643  13.360 -0.0468  0.0660  0.1536
23388W        W42922   6.511   0.255   4.390 -0.1812  0.1107 -0.0400
23389W        W42923  15.340   4.009   3.699 -0.1886 -0.0163 -0.3113
23390W        W42924  10.409  14.995   9.900 -0.1067  0.1973  0.0523
23391W        W42925  17.811   1.741  14.168  0.0902  0.0290  0.0059
23392W        W42926  12.320   6.080   3.536  0.2086 -0.0075 -0.1516
23393W        W42927  14.124  17.372   2.239  0.2060 -0.0023  0.0622
23394W        W42928   8.862   2.566   3.071  0.0658  0.0795  0.0260
23395W        W42929  15.354   3.689   1.196  0.2058  0.0614 -0.0977
23396W        W42930  10.163  14.862  12.474  0.1040  0.1660 -0.0679
23397W        W42931  19.229  15.569  12.782  0.0800 -0.4330  0.0925
23398W        W42932  11.506  10.037   1.846  0.1040  0.1574  0.2162
23399W        W42933  19.454  10.347  10.713 -0.0216 -0.2603 -0.0650
23400W        W42934  10.247   0.116  11.655  0.0241  0.0967 -0.3894
23401W        W42935  18.807   2.768   3.904  0.0603  0.1159  0.3174
23402W        W42936  12.117  15.522   2.969 -0.0158  0.1620  0.2472
23403W        W42937   3.329  11.553   2.763 -0.1256  0.0036 -0.2103
23404W        W42938  14.715   0.377  14.039  0.0605  0.0365  0.0083
23405W        W42939   2.382   0.526   0.410  0.1631 -0.1470  0.1841
23406W        W42940  12.117   0.251   1.782 -0.0646  0.1156  0.3988
23407W        W42941   7.725   6.102   9.710  0.1488  0.2325 -0.3113
23408W        W42942   3.088   3.039  11.096 -0.2470  0.2316  0.1004
23409W        W42943   7.970  13.091   1.720 -0.0001  0.1053  0.0895
23410W        W42944  15.670  18.525  12.063  0.3396  0.2108 -0.0395
23411W        W42945  11.137  17.990  13.895 -0.4028  0.3316 -0.1185
23412W        W42946   7.308  17.002  12.147 -0.1039  0.2055  0.0134
23413W        W42947   3.737  18.183  12.878  0.0673 -0.1129  0.0202
23414W        W42948  17.084  13.764   3.780  0.0942  0.0308  0.2907
23415W        W42949   4.027   0.280   3.363 -0.3505 -0.1030 -0.2333
23416W        W42950  11.377  11.336  10.052 -0.0359  0.0029  0.1525
23417W        W42951   4.087  12.883  11.728 -0.1560  0.2159 -0.3019
23418W        W42952  12.325  17.947   0.884 -0.0844  0.0599  0.1865
23419W        W42953   7.934   6.396  12.939 -0.2374  0.4098 -0.0794
23420W        W42954   7.094   3.210  11.971 -0.4802 -0.0028  0.0583
23421W        W42955  18.735   8.716  12.608 -0.1563  0.1524  0.2068
23422W        W42956   4.273  11.522   2.984 -0.3218  0.0390  0.1461
23423W        W42957   3.242   1.380  10.989  0.0401 -0.1234 -0.3649
23424W        W42958   0.991   4.093  13.746  0.1335 -0.2601  0.0542
23425W        W42959   2.427   1.676  12.386 -0.2784  0.0945  0.1242
23426W        W42960  10.592   1.988   2.077  0.1250 -0.1065  0.2094
23427W        W42961  10.605   9.465   3.568 -0.1308 -0.0663 -0.0042
23428W        W42962   3.191   3.551  13.573 -0.0738 -0.1589 -0.1023
23429W        W42963  15.683   8.883  11.008  0.0166 -0.3205 -0.0184
23430W        W42964  17.811   1.918   2.620  0.0002  0.3792  0.2286
23431W        W42965  11.663  15.083  13.553  0.0925 -0.3327 -0.2057
23432W        W42966   2.514  11.302   2.164  0.2687 -0.0046 -0.0605
23433W        W42967   2.360  15.962   2.671  0.0090 -0.2080 -0.0290
23434W        W42968   7.408   3.965   2.089 -0.4299 -0.0508  0.2368
23435W        W42969   3.305   5.150  12.698  0.2237  0.2255 -0.1242
23436W        W42970   2.511  15.804   0.482 -0.0494  0.0143 -0.0930
23437W        W42971   3.413  18.308   4.037 -0.3119  0.0783  0.3060
23438W        W42972  11.533  19.269   1.618  0.1350 -0.0737 -0.0104
23439W        W42973   7.396  17.322  13.439 -0.0848  0.1605  0.2479
23440W        W42974  13.887   4.604   4.039 -0.1639  0.1864  0.1039
23441W        W42975  11.558  15.397  10.291 -0.1343  0.0609 -0.0552
23442W        W42976   6.901  17.929  11.111 -0.2175  0.1903 -0.0253
23443W        W42977   7.996   3.461   3.191  0.0063  0.0769 -0.0805
23444W        W42978  11.430   9.400   0.487  0.0478 -0.2382 -0.0068
23445W        W42979  14.253   5.399   3.027 -0.1571 -0.1348  0.2039
23446W        W42980  13.674   3.693   0.019  0.2380 -0.1638  0.2036
23447W        W42981  10.915  13.564  13.219  0.2171 -0.0877  0.1523
23448W        W42982   8.821  18.223   2.811 -0.0323 -0.1929 -0.1673
23449W        W42983  18.274   0.585  12.360 -0.1782  0.2158 -0.0102
23450W        W42984  17.597  11.059   2.302 -0.1000  0.0567 -0.1418
23451W        W42985   0.024  12.281   0.503  0.0270 -0.1735  0.0187
23452W        W42986   8.012   2.510   1.565  0.1324 -0.1527  0.1304
23453W        W42987  13.941  11.504   1.751 -0.0955  0.0700 -0.0410
23454W        W42988   4.437   5.859   1.368  0.1774 -0.0304 -0.1174
23455W        W42989  13.045   5.010   4.918 -0.2963  0.0774 -0.1646
23456W        W42990   8.668  11.643   3.896  0.0414 -0.0337 -0.0119
23457W        W42991   1.150   2.982   3.951 -0.1769  0.1021 -0.0906
23458W        W42992   7.191   2.689  12.009 -0.2946  0.0447 -0.2359
23459W        W42993  17.286  14.540   0.644  0.1666 -0.3092 -0.0153
23460W        W42994   5.698  16.671  13.208  0.1226  0.2335 -0.1107
23461W        W42995  18.298   4.621  13.717  0.0064 -0.0314 -0.1462
23462W        W42996   8.993   6.087  12.987 -0.0956 -0.1470 -0.3489
23463W        W42997   0.153   0.424  11.629 -0.3527  0.0519 -0.4741
23464W        W42998   8.307   3.475  14.080  0.2089  0.2689 -0.1738
23465W        W42999  18.005   4.203  14.043 -0.0727  0.4607 -0.0061
23466W        W43000  15.271   1.016   9.030 -0.1990  0.0407  0.1399
23467W        W43001   3.967   3.243  11.367 -0.0045  0.1384 -0.0851
23468W        W43002   1.182   2.742   0.760  0.0253 -0.1527  0.0687
23469W        W43003   8.475  18.665   1.723 -0.0314 -0.0729  0.0481
23470W        W43004  12.241   1.765  10.771 -0.5103  0.1981 -0.1690
23471W        W43005  13.786   7.922   3.573  0.0078 -0.3076 -0.1090
23472W        W43006   4.170   6.042   3.209  0.3439 -0.1558  0.2656
23473W        W43007  16.820  15.673   1.107 -0.2988 -0.4057  0.0329
23474W        W43008   2.965   8.024  12.854 -0.0487 -0.1123 -0.2378
23475W        W43009  19.032   9.933   2.375 -0.0625  0.0190 -0.0377
23476W        W43010  15.816  17.581  10.812 -0.3062 -0.1367  0.3032
23477W        W43011   6.592  14.282   1.775  0.0100 -0.1213  0.0178
23478W        W43012  10.632  14.213   3.654 -0.1498  0.3131 -0.1417
23479W        W43013  14.875   6.193  12.841 -0.1639 -0.2333 -0.3053
23480W        W43014  13.001  11.497   8.957 -0.2655 -0.4124 -0.1628
23481W        W43015  13.777   6.380  11.638  0.0677 -0.1765 -0.3505
23482W        W43016  17.695  13.570  11.420  0.1177 -0.0285 -0.0321
23483W        W43017   0.934   0.406   0.619  0.3162  0.1082 -0.3910
23484W        W43018  10.857   6.031   1.045 -0.0668  0.1493 -0.0548
23485W        W43019   1.311   6.595   4.992  0.0595  0.1724  0.0965
23486W        W43020  15.030  13.112   0.556  0.2251  0.1870 -0.1993
23487W        W43021   2.889   9.578   2.706  0.0884 -0.3211 -0.0891
23488W        W43022  16.175  15.787   3.810  0.3053  0.1766 -0.1831
23489W        W43023   0.917  12.249   2.127  0.0418 -0.3625  0.1220
23490W        W43024  13.817  13.488   0.906  0.0466  0.1229 -0.1557
23491W        W43025  15.764  15.804  12.847  0.0988  0.0883  0.2616
23492W        W43026  12.215  18.036  13.006  0.0108 -0.1683  0.4133
23493W        W43027   9.685   1.932  11.187  0.1278  0.0096 -0.3863
23494W        W43028   4.819  17.879   0.935 -0.1089  0.1954  0.0241
23495W        W43029  14.675  17.966   2.087  0.0835 -0.0217  0.1520
23496W        W43030  11.412  17.975   3.021  0.2851 -0.0437  0.0617
23497W        W43031  13.175   8.912  13.640  0.3791 -0.0436  0.2523
23498W        W43032  17.822   2.118  13.805  0.0628 -0.0129  0.0239
23499W        W43033   2.641  18.855  12.108  0.3308 -0.2637 -0.1232
23500W        W43034  11.765   1.729   0.066  0.2072 -0.2990 -0.0234
23501W        W43035  15.110   2.495   2.372 -0.5150 -0.0158 -0.0533
23502W        W43036   2.647   0.393  13.450 -0.2538  0.2032 -0.0293
23503W        W43037   3.544  17.079  11.244 -0.0124 -0.0345  0.4052
23504W        W43038   2.243   5.434  13.298 -0.1048  0.1058  0.0565
23505W        W43039   1.139  10.255   3.417  0.1723 -0.2494  0.0468
23506W        W43040  12.579  14.899  13.786 -0.1398 -0.0716 -0.4440
23507W        W43041  14.030  18.970  13.355 -0.0521  0.3784 -0.0736
23508W        W43042   3.835   4.711   3.557 -0.1726 -0.1707  0.3276
23509W        W43043  15.781  18.093   3.590 -0.2388  0.0367  0.3575
23510W        W43044   0.829   0.574   0.097  0.0925 -0.0896 -0.1287
23511W        W43045  10.147   1.309  13.912 -0.2813  0.0911  0.2293
23512W        W43046   8.642   7.832   3.753  0.1003 -0.1919 -0.2414
23513W        W43047  15.970   8.462  12.304  0.0607  0.0801 -0.2030
23514W        W43048  16.389  18.959  10.012 -0.1295  0.1202  0.0072
23515W        W43049  18.032   6.655   2.417  0.0776  0.0961 -0.1790
23516W        W43050  13.678   6.593   2.085  0.3877 -0.1776 -0.2601
23517W        W43051   3.980   7.148  12.093  0.1506 -0.0292 -0.1322
23518W        W43052  18.154   5.022   0.534  0.2075 -0.2794 -0.1772
23519W        W43053   3.124   4.042   0.508 -0.0352  0.1114 -0.0479
23520W        W43054  17.123   4.841  10.849 -0.2924  0.1765 -0.1516
23521W        W43055   4.790  15.846   2.967 -0.1178 -0.2129  0.2742
23522W        W43056   1.817  13.798   2.894 -0.0419 -0.1375  0.0829
23523W        W43057  14.758   5.246   3.829  0.3858  0.2107 -0.0804
23524W        W43058  17.186   2.736   3.997  0.0774  0.0411  0.1433
23525W        W43059  11.479  10.987   2.548  0.1869  0.0945 -0.0541
23526W        W43060  13.685  18.830   2.785 -0.1574 -0.0204 -0.1461
23527W        W43061  12.932   0.657   1.397 -0.0854  0.0177  0.1564
23528W        W43062   5.211  11.170  12.795 -0.0871 -0.1368  0.0666
23529W        W43063  19.520  16.020  12.729 -0.1057  0.0097 -0.3088
23530W        W43064  12.440   6.574  13.430 -0.0220  0.1620 -0.1727
23531W        W43065  12.092  16.959   0.009 -0.0888 -0.1934 -0.1446
23532W        W43066  13.539   2.944  13.258  0.1029 -0.0336  0.0222
23533W        W43067   5.347  16.248  10.993 -0.1592  0.0409 -0.0037
23534W        W43068  19.116  15.080   2.212 -0.1757 -0.0311  0.1599
23535W        W43069  11.713   3.225  12.673  0.0462  0.1541  0.1423
23536W        W43070  17.107  16.065   3.297 -0.0852  0.1404  0.2011
23537W        W43071  18.578  10.869  13.550 -0.0009  0.0183 -0.1673
23538W        W43072  18.982  18.413   2.425  0.1861  0.0162  0.1950
23539W        W43073   4.396   4.273  12.966  0.0062  0.0963  0.2300
23540W        W43074   2.947   1.529  12.502 -0.2434  0.1377 -0.2422
23541W        W43075   6.785   6.389  10.049  0.0046 -0.1023 -0.1134
23542W        W43076  17.706  12.512   1.199 -0.0757 -0.2184 -0.1534
23543W        W43077  13.620  14.566   0.292 -0.2355  0.2083 -0.0930
23544W        W43078   1.571  16.545  10.246  0.3335 -0.1346 -0.4213
23545W        W43079   6.684   7.299   4.114  0.4555 -0.2450 -0.1685
23546W        W43080   5.541  10.658   1.012  0.4284 -0.1283  0.2264
23547W        W43081   2.736  17.781   4.520  0.1071 -0.1137  0.0691
23548W        W43082   8.140  15.946   4.599 -0.0536  0.1692 -0.0505
23549W        W43083   4.397   3.394  10.985 -0.2694 -0.0234 -0.0388
23550W        W43084   4.865   1.701   1.502  0.0939  0.0698  0.1444
23551W        W43085  14.264  18.195  11.655  0.1548 -0.0509 -0.0837
23552W        W43086   7.400  13.106  12.896  0.0429  0.4074 -0.0625
23553W        W43087   8.766   6.399   3.596 -0.0875 -0.0269  0.0858
23554W        W43088   0.403  13.446   1.641  0.1751 -0.1546  0.0503
23555W        W43089   3.866   8.354  11.329 -0.1277  0.4060 -0.2111
23556W        W43090  14.426   9.050   1.513  0.1262  0.1546  0.4928
23557W        W43091  14.873   0.768  10.619 -0.0250 -0.2458 -0.0524
23558W        W43092  18.439  19.340   1.675  0.0556 -0.0926  0.0163
23559W        W43093   0.024   7.752  12.618  0.2301 -0.0705 -0.1998
23560W        W43094  16.391  16.193  14.029  0.0380 -0.1582  0.0451
23561W        W43095  13.455  16.143  12.185 -0.0987 -0.1159 -0.0081
23562W        W43096   0.927  16.103  13.357 -0.2593 -0.1073  0.2708
23563W        W43097   8.507   2.818  10.005 -0.0786 -0.0978 -0.3977
23564W        W43098   9.289   8.033  10.992  0.1618 -0.2168  0.0162
23565W        W43099   4.519   9.208  13.682 -0.3077  0.1396 -0.3568
23566W        W43100  18.663   9.435   2.038 -0.2477  0.1759  0.1651
23567W        W43101  11.447   3.593   1.930  0.0003 -0.0325 -0.0979
23568W        W43102  12.953  10.493  14.062  0.3252  0.3042  0.0256
23569W        W43103  11.754   6.930  11.664  0.1423  0.3347 -0.0391
23570W        W43104  18.359   4.974   0.065 -0.1726  0.0956 -0.1982
23571W        W43105   0.505   2.733   1.806  0.1508 -0.1889 -0.0560
23572W        W43106   5.336   8.167   2.007  0.0686  0.0131 -0.4063
23573W        W43107   8.410  10.103  12.258 -0.1355  0.0287  0.3562
23574W        W43108   0.646  19.012  14.098  0.1464  0.0629 -0.0378
23575W        W43109  14.122   3.642  12.779 -0.1063 -0.0169 -0.2400
23576W        W43110  17.955  10.239  13.268  0.1485 -0.0135  0.2911
23577W        W43111   9.303  13.769   1.394  0.0735 -0.0818  0.0788
23578W        W43112  16.128  15.032  13.398  0.1372  0.3415 -0.0559
23579W        W43113  15.223  18.602   1.143 -0.0137 -0.1274 -0.2727
23580W        W43114   3.695  15.528  10.303 -0.0433 -0.1533 -0.2556
23581W        W43115  10.226  13.088   3.116 -0.0801  0.0059  0.0853
23582W        W43116   3.719   0.181   0.713  0.0920  0.1362 -0.0755
23583W        W43117   6.578   9.266   0.631  0.0682  0.1253 -0.1458
23584W        W43118   6.525   0.491  12.134  0.0155  0.1280  0.1802
23585W        W43119  12.277  19.100   3.020 -0.0951 -0.1677 -0.3225
23586W        W43120  14.092   7.063   3.741  0.2946 -0.0475  0.0490
23587W        W43121  13.280  15.663  10.275 -0.0793 -0.0093 -0.2924
23588W        W43122  10.702   6.931   3.318  0.0087  0.0739 -0.2222
23589W        W43123  13.018   9.242  14.009  0.2523  0.0405 -0.4035
23590W        W43124  19.125   6.655   1.643  0.0338  0.2321 -0.2533
23591W        W43125  15.067  18.354  12.221  0.2636 -0.0422 -0.0543
23592W        W43126   7.806  11.504  10.219  0.1277  0.1972 -0.1234
23593W        W43127   5.034   0.566  11.698 -0.1824 -0.1769 -0.0484
23594W        W43128  13.049  13.176  12.631  0.2633  0.1001  0.0421
23595W        W43129   6.027   1.293  14.259  0.0511  0.0278  0.1319
23596W        W43130  11.956  16.138   2.029 -0.1214  0.1183  0.0238
23597W        W43131  11.085  17.131  11.566  0.1267 -0.1389  0.3320
23598W        W43132   8.148   8.569  10.679  0.2212 -0.0311  0.0568
23599W        W43133  18.830  13.677   3.947 -0.0616 -0.1056  0.1864
23600W        W43134   8.836   9.416  12.899 -0.3238 -0.0986  0.3840
23601W        W43135   2.008  12.481   3.544  0.1483  0.0340 -0.2120
23602W        W43136   1.324   1.260   3.229  0.1440 -0.0416  0.1930
23603W        W43137   7.974   1.763  10.513 -0.0127  0.2296  0.2944
23604W        W43138  15.412  12.443   0.073 -0.0473 -0.0487 -0.2378
23605W        W43139   8.748   0.516  11.877 -0.0321 -0.0854 -0.1352
23606W        W43140   6.418  18.963   2.318  0.1261  0.5595  0.2553
23607W        W43141  11.762  10.263   0.723 -0.2055  0.1216  0.3013
23608W        W43142   8.589   0.995  12.004 -0.1351  0.0342  0.1965
23609W        W43143   2.378  13.186   0.241  0.2536 -0.1281 -0.1041
23610W        W43144  14.098   6.396   4.279 -0.1483 -0.1082  0.0919
23611W        W43145  13.137   4.542   0.233  0.0987  0.0149  0.0017
23612W        W43146   2.610   3.647  10.704 -0.0529  0.2544 -0.1165
23613W        W43147   1.433   7.148   0.131 -0.0002  0.0565 -0.1553
23614W        W43148  11.640  16.939   2.732 -0.2202  0.0037  0.0546
23615W        W43149   6.740   5.769   0.976 -0.0559  0.2476 -0.1357
23616W        W43150  12.537   7.839   4.728 -0.0280 -0.5554 -0.0992
23617W        W43151   1.618   9.357   0.139 -0.0381 -0.0869 -0.3017
23618W        W43152  13.216   4.423   0.692  0.2661  0.0271 -0.1507
23619W        W43153   9.384   5.027  12.778 -0.3845 -0.0758  0.0820
23620W        W43154   2.807  10.287  12.122 -0.1304 -0.1914 -0.1593
23621W        W43155  10.693   2.057  11.374  0.0731 -0.2995 -0.0890
23622W        W43156   8.503  11.523  12.464  0.3314 -0.0809 -0.0629
23623W        W43157   8.441   0.407  11.372 -0.3163  0.0840 -0.1151
23624W        W43158  15.819   0.868   1.206 -0.2805  0.3281  0.0254
23625W        W43159  13.986  15.947   0.275  0.3115 -0.1981  0.1248
23626W        W43160  11.368   1.551  13.953 -0.1434 -0.1125  0.1051
23627W        W43161  14.088   2.917   5.361  0.0177  0.0306 -0.2920
23628W        W43162   6.315   7.115  13.247 -0.1022 -0.4470  0.1350
23629W        W43163  10.782   8.992  14.131  0.1798  0.0637  0.1648
23630W        W43164  12.580   1.316   4.000  0.3222  0.1120 -0.1272
23631W        W43165  17.092  12.068  10.981  0.1179  0.1057 -0.2237
23632W        W43166   4.143  15.536   2.222 -0.2035  0.0935 -0.0399
23633W        W43167   7.574   5.191  11.106 -0.1662 -0.0014 -0.0123
23634W        W43168  12.842  15.055   1.184  0.1741 -0.1673  0.1429
23635W        W43169  12.555   1.581  13.994 -0.1052 -0.2249  0.1147
23636W        W43170  17.857   1.392  10.297 -0.0388 -0.3111  0.0651
23637W        W43171  16.387  16.637   2.236 -0.2472  0.0047 -0.1800
23638W        W43172   7.245  11.838   4.037  0.0192 -0.0346  0.0924
23639W        W43173   4.482   1.135  13.342  0.1095 -0.0551  0.2719
23640W        W43174   6.915   0.427   1.058  0.1025 -0.0937 -0.1682
23641W        W43175  19.067  18.965  14.093  0.3278 -0.0918  0.1307
23642W        W43176  19.033   2.279   0.534 -0.1480 -0.1151  0.3556
23643W        W43177   8.741   7.608   0.726  0.1606 -0.1722 -0.1139
23644W        W43178   7.224   4.583  11.641  0.3246  0.0967  0.0806
23645W        W43179   4.031  11.672   2.189  0.2913 -0.0745 -0.1476
23646W        W43180   3.619  14.411  10.496  0.0043 -0.1281 -0.2222
23647W        W43181  18.789   3.827  10.839  0.2125  0.0058  0.0400
23648W        W43182  14.448   2.305  13.331  0.1750  0.0811  0.1045
23649W        W43183  18.818  11.899   0.671 -0.1393  0.0096 -0.1081
23650W        W43184  11.550  14.376  10.181  0.1445  0.3281  0.0721
23651W        W43185   8.217   3.416   2.040 -0.1010 -0.1407  0.1598
23652W        W43186  10.755   2.979  10.742  0.1985 -0.3250 -0.0469
23653W        W43187  14.659  14.048  13.590 -0.1179  0.3015  0.1685
23654W        W43188   1.767  18.293  13.995  0.0719  0.0966  0.1231
23655W        W43189   1.319   2.312   0.530 -0.2694 -0.1846 -0.0567
23656W        W43190  19.492  11.267  12.590  0.1276  0.3201 -0.0056
23657W        W43191   9.275   4.822   4.090 -0.0327  0.0986  0.0875
23658W        W43192  18.484   9.363   0.884 -0.0556 -0.2496  0.2375
23659W        W43193   9.328   4.614   3.273  0.4644 -0.2492 -0.1068
23660W        W43194   6.631  13.426   0.151 -0.3882 -0.1030 -0.1675
23661W        W43195  12.670  10.414  10.772  0.0734 -0.0690  0.2848
23662W        W43196   7.422   0.725  12.924 -0.3139 -0.0078  0.2360
23663W        W43197  14.434  10.521   9.711 -0.0257 -0.1517 -0.0303
23664W        W43198   9.112   2.231  13.907  0.1498  0.2517 -0.2351
23665W        W43199  16.488  15.009  10.312  0.0866 -0.1302 -0.1129
23666W        W43200  17.978   0.845   1.600 -0.2208 -0.1777  0.0991
23667W        W43201   4.598  14.635  13.362  0.1018  0.2125 -0.0323
23668W        W43202   2.429  16.851   2.613  0.2247 -0.1888 -0.2989
23669W        W43203   5.253  10.730   0.628  0.4626  0.0392  0.0992
23670W        W43204  12.712   7.474  10.651 -0.1503  0.2208  0.2927
23671W        W43205  18.543   7.897   1.353  0.1094  0.3385  0.1619
23672W        W43206  18.694   1.904  13.811  0.1051 -0.0213 -0.1790
23673W        W43207   1.645   1.222   2.856 -0.3131 -0.1235  0.1530
23674W        W43208  13.977   7.429  11.422  0.1641 -0.1120  0.0792
23675W        W43209   4.245  11.235  10.915 -0.1745  0.0200 -0.1617
23676W        W43210   4.084   0.193  13.317  0.2541 -0.0044  0.2342
23677W        W43211  15.280   8.235   2.446 -0.2264  0.0327 -0.0379
23678W        W43212  13.076  18.558  12.238  0.1603  0.0410 -0.0807
23679W        W43213   5.173  15.952  11.387 -0.0740  0.0094 -0.0967
23680W        W43214  17.292   3.253   0.009 -0.1339  0.0635  0.2262
23681W        W43215  15.783  17.259   2.893  0.1115  0.1170  0.3532
23682W        W43216  11.967   2.280  13.182  0.1494  0.0889  0.0633
23683W        W43217  16.852  18.558   0.790  0.4184  0.1399  0.0184
23684W        W43218   6.782  12.340  13.868 -0.1792 -0.3295  0.0577
23685W        W43219   6.522  11.380   3.827 -0.2175 -0.0483  0.1684
23686W        W43220   4.259   2.442   1.403  0.2866 -0.1494 -0.1735
23687W        W43221  18.354   4.728  12.352  0.1423  0.0958  0.0878
23688W        W43222  17.506  13.858   3.471 -0.1306 -0.0143 -0.0491
23689W        W43223   1.177   6.147   9.415  0.2602  0.3375  0.2880
23690W        W43224  17.677   3.022  12.834 -0.0391  0.2798 -0.2659
23691W        W43225   8.410  12.316  11.948 -0.2389 -0.1016 -0.0786
23692W        W43226  11.237   6.555   2.596 -0.1166 -0.1896 -0.0252
23693W        W43227   3.866   4.089  11.212 -0.2740  0.0718  0.0432
23694W        W43228  17.993  12.150  12.632 -0.0373  0.2440 -0.0213
23695W        W43229  10.206  10.361   4.391 -0.3592  0.0628  0.1447
23696W        W43230  17.013  18.912   1.585  0.5887 -0.1189 -0.0744
23697W        W43231  18.393   4.245   3.645  0.0010 -0.0206 -0.0682
23698W        W43232   1.152  11.604  11.479  0.0341  0.0680  0.2033
23699W        W43233  19.471   4.142   5.446 -0.0639  0.0360  0.3662
23700W        W43234  13.157   5.265  11.142  0.0989 -0.1825 -0.1197
23701W        W43235   8.861  15.348   1.240  0.1469 -0.0743  0.0960
23702W        W43236   0.678  18.388   1.715 -0.2083 -0.1440 -0.2073
23703W        W43237  12.769  15.779  10.188 -0.0623  0.2399 -0.1776
23704W        W43238  13.050   3.710  10.865  0.1249 -0.2289  0.0071
23705W        W43239  15.224   9.825  13.348 -0.0166  0.0483 -0.3043
23706W        W43240  15.959   6.459   0.923  0.1179 -0.2335 -0.3098
23707W        W43241   9.597   2.102   4.138  0.1897  0.0236  0.0507
23708W        W43242  15.794   8.087   2.444  0.4124 -0.2469 -0.0595
23709W        W43243  14.388  13.236   2.130 -0.0407  0.2248  0.1175
23710W        W43244   0.285   7.256   2.026  0.0244  0.1167 -0.1444
23711W        W43245   5.286   0.872  12.193  0.0104 -0.4031  0.0051
23712W        W43246  13.040  14.317   2.743 -0.3319  0.0865 -0.2010
23713W        W43247  14.404   9.343   0.639  0.1473 -0.0119  0.0057
23714W        W43248   0.340  16.656   0.818 -0.2330  0.2830 -0.4049
23715W        W43249  18.549   4.349  11.396  0.3367  0.1497 -0.0275
23716W        W43250  17.560   9.283  10.449 -0.1096 -0.1445  0.2032
23717W        W43251   2.195   2.749   0.347 -0.0868 -0.1759  0.0052
23718W        W43252  16.458  13.659   2.418  0.0680 -0.0897  0.0848
23719W        W43253  11.433   6.784  10.689 -0.0393  0.1712  0.0375
23720W        W43254  14.617  14.262  14.080  0.2441  0.2011 -0.0687
23721W        W43255  11.334  11.906   0.170  0.1496 -0.2940  0.0548
23722W        W43256  18.786  11.808   2.307  0.0259 -0.4380 -0.0087
23723W        W43257  13.980   0.496  11.120 -0.5448  0.0615  0.1130
23724W        W43258  15.612  16.105   0.623 -0.1012  0.0839  0.1558
23725W        W43259  18.166  16.949   0.167 -0.0013  0.0708  0.0277
23726W        W43260  16.477   6.937   4.098 -0.3232 -0.0018  0.1955
23727W        W43261  10.044  10.936   2.217  0.3643 -0.1534 -0.3215
23728W        W43262   1.740   2.746  11.972 -0.2803  0.2101  0.3656
23729W        W43263  19.103  12.680   0.062  0.1291 -0.2624 -0.1099
23730W        W43264  10.985   1.171   3.497  0.2034  0.1454  0.0963
23731W        W43265  13.607   7.085   2.004 -0.1592  0.0411  0.0522
23732W        W43266  13.055   5.725  12.342  0.0154 -0.1961 -0.4134
23733W        W43267  10.974   4.690   0.346  0.1942 -0.1653 -0.2537
23734W        W43268  11.563  19.189  11.137 -0.0248 -0.0503 -0.1315
23735W        W43269   1.354   5.052  11.947  0.0387 -0.2935  0.1749
23736W        W43270   1.558   2.825  12.496 -0.0803  0.2209  0.2394
23737W        W43271   1.480   4.779   2.242 -0.0965  0.1112  0.0686
23738W        W43272   4.419  15.893  10.956  0.1251 -0.1376  0.0098
23739W        W43273  14.581   0.567   1.252  0.0719  0.0328  0.1094
23740W        W43274  18.542   1.974   3.087 -0.1800  0.1396  0.3068
23741W        W43275   4.511  16.078  12.600  0.2876 -0.0148  0.1662
23742W        W43276   6.431   0.552   2.668 -0.1066 -0.0282  0.0718
23743W        W43277   9.332   9.808  11.009 -0.1437  0.0154 -0.2360
23744W        W43278  13.385   0.953  14.032 -0.0512 -0.1791 -0.2888
23745W        W43279   3.900  10.003   2.698 -0.1265  0.2328 -0.0509
23746W        W43280   3.699  10.851   4.392  0.3015 -0.0741 -0.0316
23747W        W43281  14.469  11.459   3.435 -0.0229 -0.3227  0.4526
23748W        W43282   3.707   8.657  11.809 -0.0011 -0.2920 -0.0931
23749W        W43283   8.612  13.612  12.504 -0.1537  0.0612 -0.1253
23750W        W43284   5.576  16.663  11.725  0.1025 -0.1549 -0.1428
23751W        W43285   9.939   1.020  11.305  0.0666 -0.1872 -0.2441
23752W        W43286  14.164  13.678   3.044 -0.1388  0.1275 -0.2543
23753W        W43287  15.023  16.810  14.220 -0.0122 -0.3822  0.3056
23754W        W43288   1.006   1.630  11.321  0.3087 -0.2055 -0.0124
23755W        W43289  11.487  18.702  10.494 -0.2244  0.0671 -0.2854
23756W        W43290  12.438  15.538   9.732  0.0165 -0.2190 -0.3883
23757W        W43291  10.366   0.467  11.268 -0.3526 -0.1822 -0.2547
23758W        W43292  10.187  13.982   1.673  0.5391  0.0681 -0.1426
23759W        W43293   3.992  14.969   0.982 -0.1842  0.2105  0.3172
23760W        W43294  10.669  16.083  12.867  0.0307  0.0674  0.0937
23761W        W43295  18.064  16.172   3.555 -0.2286  0.1078  0.2917
23762W        W43296  14.513   9.930  11.881  0.1173  0.0012  0.3207
23763W        W43297   3.926  11.738   2.735  0.0876  0.1369 -0.0927
23764W        W43298   5.404  14.940   3.987 -0.0564 -0.1781 -0.0772
23765W        W43299  13.423   7.250  12.678  0.2850 -0.0341 -0.2560
23766W        W43300   9.513   2.531  10.918 -0.0201  0.1281  0.0258
23767W        W43301  19.373  14.065   1.511  0.0713  0.2059 -0.0207
23768W        W43302   5.646  15.326  13.510 -0.2449  0.2969 -0.3105
23769W        W43303  17.168  17.477  12.154  0.0330  0.3328 -0.0232
23770W        W43304  16.530  13.350   1.255  0.1044 -0.3029 -0.1759
23771W        W43305   0.976  10.059   4.055  0.1727 -0.2960  0.0433
23772W        W43306  12.306  12.349  11.662  0.1582 -0.2978 -0.0115
23773W        W43307  17.129   3.383   2.582  0.0488 -0.0021 -0.1445
23774W        W43308  13.448   4.317  11.288 -0.1511  0.0303 -0.1625
23775W        W43309  16.123   7.424   3.991  0.0007 -0.0616  0.4613
23776W        W43310   4.977  19.289   1.083  0.1402 -0.0334 -0.1548
23777W        W43311   2.390   6.806  11.231  0.0610  0.0942 -0.0694
23778W        W43312   6.775   7.322   3.620 -0.1168  0.1078 -0.0673
23779W        W43313   4.956   0.375   3.904 -0.1830  0.0808 -0.4034
23780W        W43314  10.597  13.713   1.659 -0.1518 -0.2077 -0.3123
23781W        W43315  16.683  10.396   1.663 -0.0114 -0.2102  0.2047
23782W        W43316   7.215   5.287  11.913 -0.4196  0.1287 -0.2966
23783W        W43317   2.894   2.693  13.245 -0.1541  0.1529  0.2631
23784W        W43318   0.016  12.841   2.400 -0.1087 -0.2629 -0.1334
23785W        W43319  12.737  18.946  12.052  0.2007 -0.1548  0.0384
23786W        W43320   9.451   4.658  10.507 -0.0279  0.0660  0.0770
23787W        W43321   1.981  18.014  10.769 -0.0827  0.1102 -0.1088
23788W        W43322  17.520   9.561  13.638 -0.0090  0.1749  0.2480
23789W        W43323  16.427   4.187   4.473 -0.0134 -0.1022 -0.0042
23790W        W43324  16.701   7.061  13.376 -0.3872 -0.0419  0.3598
23791W        W43325  11.770   7.298  10.651 -0.2089 -0.1401  0.1789
23792W        W43326  17.468   1.522   1.017  0.1618  0.1717 -0.0449
23793W        W43327   7.550   5.190  12.686  0.2551 -0.1555  0.1005
23794W        W43328   3.743  11.403  10.658  0.0588  0.1642 -0.0776
23795W        W43329  18.635  13.306   2.878  0.1061  0.0235  0.1577
23796W        W43330  11.325   6.514   9.475 -0.1811  0.2555 -0.1625
23797W        W43331  15.646   7.624  11.796 -0.1459 -0.0937 -0.2858
23798W        W43332  19.387   1.094   3.146 -0.0635  0.2232  0.2112
23799W        W43333  17.245  12.634  13.629  0.0486 -0.0770 -0.0567
23800W        W43334   6.707   3.179   0.298  0.1929 -0.1313  0.0852
23801W        W43335  18.874  15.122   4.632 -0.2126  0.1430  0.2620
23802W        W43336   2.895   4.123  14.324  0.1441  0.1132 -0.2124
23803W        W43337  14.090  11.082  11.554  0.3065 -0.2461  0.1833
23804W        W43338  13.080   6.522  14.310 -0.2262  0.0467 -0.5868
23805W        W43339  16.455   0.667  11.562 -0.0028 -0.1860  0.1970
23806W        W43340  10.489   1.311   3.560  0.3443 -0.1915 -0.0835
23807W        W43341   8.557  11.810   2.881 -0.2658 -0.0530 -0.1497
23808W        W43342   0.722  13.815  11.071 -0.0865  0.1260  0.1918
23809W        W43343  17.621   8.946  11.690 -0.0246 -0.3105  0.0242
23810W        W43344   4.098   6.723  13.592  0.0599 -0.0997 -0.1433
23811W        W43345   8.042   1.082  10.745 -0.0828  0.1762 -0.1832
23812W        W43346  17.660  17.938   4.169  0.1255 -0.2157  0.0821
23813W        W43347  18.580   8.341   3.454 -0.0483 -0.2212 -0.1371
23814W        W43348  12.382   4.937  11.559  0.1576  0.0777  0.2168
23815W        W43349  11.701  12.063  10.090 -0.0808 -0.1025 -0.0183
23816W        W43350   5.135  12.212   3.839 -0.2265  0.1243  0.0181
23817W        W43351   5.253   8.696   4.921 -0.0397 -0.4707  0.1290
23818W        W43352   8.196   5.713   3.144 -0.0336  0.1231 -0.0799
23819W        W43353  12.171   7.815   3.032  0.2009 -0.1184  0.1632
23820W        W43354   6.923  18.399   1.583 -0.0923  0.0275 -0.0567
23821W        W43355   0.923   3.230  13.071 -0.1879 -0.3052 -0.0999
23822W        W43356   4.816   9.140   2.159  0.2147  0.0611 -0.0496
23823W        W43357  14.085   4.615  10.754 -0.0082 -0.0698 -0.1848
23824W        W43358   6.340  11.827   1.507  0.0147 -0.0102 -0.1010
23825W        W43359  12.222  10.975   4.516 -0.1203  0.1076 -0.2578
23826W        W43360   0.180   2.515   1.053  0.3265  0.0784  0.0395
23827W        W43361   2.199   8.483   5.301 -0.0702  0.1798 -0.1331
23828W        W43362   2.981   3.319   2.057 -0.0205  0.1374  0.1914
23829W        W43363   2.097  12.564   1.355 -0.2224  0.1434  0.1929
23830W        W43364   2.242   0.894   1.618 -0.0044 -0.2612 -0.0913
23831W        W43365  16.754  14.786   9.865 -0.0106  0.0623  0.1766
23832W        W43366  18.286   7.147  12.799 -0.2434 -0.2498 -0.0648
23833W        W43367  15.905  14.890  11.927 -0.0008  0.2068 -0.1061
23834W        W43368  12.593   7.230   1.016 -0.1755  0.1864  0.0207
23835W        W43369   3.727   4.646   0.878 -0.2275  0.2174  0.3305
23836W        W43370   9.346  14.313   1.499  0.1887 -0.3408  0.3869
23837W        W43371   1.312  14.291   3.010  0.0014  0.2188 -0.1554
23838W        W43372   6.410   0.313  10.288 -0.0268 -0.2120 -0.0256
23839W        W43373  11.261  17.095   0.105  0.3300  0.0574  0.3279
23840W        W43374   5.907  13.782  12.399 -0.3734 -0.0462 -0.3061
23841W        W43375   2.436  10.149   3.652  0.2914  0.0657 -0.2582
23842W        W43376  14.660  12.423  10.858  0.0857 -0.0086 -0.2762
23843W        W43377   9.115  15.970  11.839 -0.1028 -0.1520  0.2562
23844W        W43378   7.404  13.223   3.543 -0.0916 -0.1175  0.0578
23845W        W43379   9.402  14.343   9.328  0.2673  0.0637 -0.0224
23846W        W43380   8.261   1.289   0.267  0.4068 -0.1121  0.0266
23847W        W43381  12.481   7.411   0.165  0.2143 -0.0726  0.5822
23848W        W43382   3.172  14.269  13.398 -0.2049 -0.1420 -0.3261
23849W        W43383   0.175   3.576  12.483 -0.2822  0.3275  0.2885
23850W        W43384   6.096  11.813   0.913  0.2099 -0.2402  0.0246
23851W        W43385  15.304  19.355   2.126 -0.1063 -0.1125 -0.1504
23852W        W43386   2.143  18.021   3.792 -0.2260 -0.1173  0.3374
23853W        W43387  17.097   8.219   2.623 -0.3495  0.0344  0.2176
23854W        W43388  18.769  17.736  11.450  0.2369  0.0407 -0.1890
23855W        W43389  17.820   3.377   4.040 -0.0558  0.2983  0.0593
23856W        W43390  11.691   9.447   3.657  0.0572 -0.3634 -0.0522
23857W        W43391  12.973   3.945  11.368  0.1029  0.0813  0.0017
23858W        W43392  11.182  17.437   2.962 -0.0120 -0.3753 -0.0186
23859W        W43393   6.740   7.297   2.074  0.0107 -0.1444  0.2211
23860W        W43394   5.267  19.419   3.773  0.1043 -0.1729  0.0525
23861W        W43395   0.102   5.425   3.355 -0.1075 -0.0899 -0.0244
23862W        W43396  13.787  10.017   0.376 -0.0249  0.1136 -0.2515
23863W        W43397  17.075  11.660   2.910  0.0410  0.0998  0.0794
23864W        W43398   6.881   7.663  12.991 -0.0633  0.3365  0.0254
23865W        W43399  19.378   4.431  11.119  0.2076 -0.0461 -0.1606
23866W        W43400  14.166   9.487  11.829  0.0300 -0.0963  0.2424
23867W        W43401   1.925   4.784   2.517 -0.2397  0.1667 -0.0133
23868W        W43402   7.097  13.819  13.166 -0.1579  0.1803 -0.1890
23869W        W43403  10.824  19.382  13.805  0.1508 -0.2911  0.1598
23870W        W43404  11.151   5.594   1.481  0.1412 -0.0289  0.2674
23871W        W43405  11.135  12.468   3.193  0.1140 -0.1123  0.0365
23872W        W43406   8.714   5.379  10.645 -0.1325 -0.0077 -0.3437
23873W        W43407  10.515  17.763   3.589  0.3151  0.1957  0.1108
23874W        W43408  17.450  15.125  10.151 -0.1983 -0.0541 -0.0845
23875W        W43409  14.235  10.622  12.895 -0.2234 -0.1315  0.1577
23876W        W43410   9.659   4.239  12.807  0.0752  0.2062  0.2531
23877W        W43411   5.512  18.754  11.896 -0.0161 -0.1918  0.0171
23878W        W43412   5.634  11.354   0.164  0.1131 -0.0231  0.0920
23879W        W43413   9.747  19.348   3.922  0.0958 -0.1912 -0.2089
23880W        W43414  19.496  14.069  10.208 -0.1082  0.2527 -0.0955
23881W        W43415   0.521  13.476  14.022  0.2500  0.0523 -0.0132
23882W        W43416   4.944  12.994   1.808  0.1056  0.3327  0.3612
23883W        W43417   4.989  16.232   1.679  0.3492 -0.0077 -0.1252
23884W        W43418   9.128  16.668   4.893 -0.1096 -0.1794 -0.4998
23885W        W43419  10.745   7.098  13.970  0.0951 -0.0184  0.2854
23886W        W43420  15.582  15.016   0.684  0.0024  0.0942  0.0122
23887W        W43421   8.478  14.468  12.171  0.0805  0.0878  0.1612
23888W        W43422   8.119   2.034   2.934 -0.0799  0.2027  0.1434
23889W        W43423   5.854  15.055   1.371 -0.1045 -0.1028 -0.1638
23890W        W43424  15.308  11.407   2.425 -0.0463  0.4102  0.1036
23891W        W43425   4.213  17.194   3.829 -0.2205 -0.2175 -0.0020
23892W        W43426  19.489   3.811   2.450 -0.3683  0.1858 -0.0654
23893W        W43427   7.153   2.705   3.868 -0.1129  0.1043 -0.1147
23894W        W43428  10.992  18.793  10.228 -0.0823 -0.0028  0.1937
23895W        W43429   5.668   4.426   1.951  0.2031 -0.1972 -0.1674
23896W        W43430   3.493   0.179  11.443 -0.2014 -0.0846  0.1049
23897W        W43431   0.046   8.290   2.323 -0.0966  0.0260 -0.1276
23898W        W43432   7.489  13.909  13.525 -0.2567 -0.1798  0.3916
23899W        W43433   3.813   0.250  12.002  0.1101 -0.2223 -0.2085
23900W        W43434   1.011  10.078  13.945  0.1170 -0.4511 -0.3904
23901W        W43435  15.003  15.965  12.439  0.0738 -0.0217  0.0524
23902W        W43436   4.471  10.134   0.610 -0.2058 -0.0584  0.1874
23903W        W43437   3.817  19.251   0.846  0.1435  0.0937 -0.1601
23904W        W43438   3.650   3.110   3.188  0.1851 -0.4802 -0.0775
23905W        W43439  18.507   0.326  13.862  0.2466 -0.1794 -0.2761
23906W        W43440   6.839  14.317   3.179 -0.1344 -0.1073  0.1881
23907W        W43441  10.883  18.076  11.517  0.3984  0.0659 -0.0805
23908W        W43442   4.374  10.044   1.438  0.1003  0.4024  0.1521
23909W        W43443   9.131  10.600   3.453  0.0265 -0.0456 -0.0062
23910W        W43444   5.098   6.581   1.721  0.2600  0.0060 -0.0294
23911W        W43445  10.955  10.548   3.532 -0.1583  0.1558 -0.2762
23912W        W43446   4.874   8.194   1.593 -0.0096  0.0324  0.0355
23913W        W43447  11.483  11.634   4.483 -0.0732 -0.0184 -0.0164
23914W        W43448  12.985  12.262  11.532  0.0310  0.3767 -0.0307
23915W        W43449   9.047   9.385   1.158 -0.0252 -0.3881  0.0800
23916W        W43450   3.981   5.223   3.710  0.0474  0.3545 -0.0711
23917W        W43451   3.663   7.165   0.997 -0.0857  0.0917 -0.1521
23918W        W43452   9.142   0.396   4.262  0.1632  0.1604 -0.1326
23919W        W43453  18.759  19.253  11.216  0.2409  0.2938 -0.0844
23920W        W43454   0.450   2.917   4.372 -0.2687 -0.1184  0.0029
23921W        W43455  10.728  12.118   0.864 -0.0994 -0.1409 -0.0521
23922W        W43456   5.758   8.388   0.528  0.0686  0.1914  0.3207
23923W        W43457  11.331   9.773  10.893  0.4687 -0.0529 -0.4555
23924W        W43458   5.189   9.942   3.243  0.0087 -0.2319  0.1151
23925W        W43459  16.079  13.962  11.803 -0.0322  0.3314 -0.0870
23926W        W43460  18.200  17.728   0.218 -0.2967  0.1029 -0.0955
23927W        W43461  19.112   6.827  13.587 -0.2942 -0.0221  0.5400
23928W        W43462  12.110   8.254  13.129  0.2128  0.3822 -0.2794
23929W        W43463  11.358   1.107  13.216 -0.0741 -0.1022 -0.0358
23930W        W43464   2.009   2.156  14.142 -0.1533 -0.1665  0.0767
23931W        W43465   7.171   6.274  12.125 -0.1984  0.3031 -0.2787
23932W        W43466   5.072   9.339   0.070 -0.0148  0.1038  0.0778
23933W        W43467  14.826   9.011  12.109 -0.0840 -0.0591 -0.2899
23934W        W43468  17.008   9.603  10.509 -0.0490 -0.1924 -0.1184
23935W        W43469   6.886   4.246  12.526  0.0046  0.0946  0.1060
23936W        W43470  15.168  13.765   2.819 -0.3757 -0.0948 -0.0182
23937W        W43471   2.920  15.861   0.104  0.2746  0.3194 -0.2329
23938W        W43472   3.801   7.915   3.327 -0.2144 -0.2571 -0.0860
23939W        W43473   7.202   0.656  10.969  0.0595 -0.0942  0.1810
23940W        W43474   7.550  11.855  13.355  0.2549  0.0149 -0.0228
23941W        W43475   4.344   5.178   4.093 -0.0015 -0.1044  0.1046
23942W        W43476   4.562   8.051  13.525 -0.0797  0.2093  0.2445
23943W        W43477  16.753  11.655  10.984  0.1746 -0.0042  0.0088
23944W        W43478   6.682  12.430  11.239  0.3185 -0.0342 -0.1577
23945W        W43479   6.400   3.398   2.598 -0.1338 -0.0399  0.0320
23946W        W43480   3.292  10.767   1.718 -0.0998 -0.0317  0.0245
23947W        W43481   0.254  16.457   3.629  0.3046 -0.0689 -0.0808
23948W        W43482  14.938  10.791   1.506  0.1184 -0.1910 -0.3145
23949W        W43483  13.068  17.561  10.067  0.2862 -0.1209  0.1485
23950W        W43484  14.579  13.628  11.070  0.0109  0.1158 -0.1420
23951W        W43485   1.928   8.336   0.256  0.3254  0.1010 -0.1354
23952W        W43486  15.787   2.570   1.696 -0.2176  0.2861  0.1137
23953W        W43487  13.925   7.672   0.520  0.0372 -0.1248 -0.0703
23954W        W43488   2.659  10.188  10.804  0.0150 -0.3704  0.5212
23955W        W43489  12.895   0.917   0.560  0.3056 -0.0508 -0.2841
23956W        W43490   7.290  12.555   1.882  0.3501  0.0330  0.1134
23957W        W43491   4.720  18.904  12.127 -0.1186 -0.3697 -0.0216
23958W        W43492   2.115   9.130  11.088 -0.1819  0.2176  0.1209
23959W        W43493   6.207  17.264   0.891  0.0251  0.2129  0.2213
23960W        W43494  14.161   0.375  14.092  0.0680  0.1110  0.0014
23961W        W43495  11.529  10.630  14.188  0.0999  0.1392  0.2974
23962W        W43496  17.376  12.045   2.887  0.1010 -0.2204  0.0426
23963W        W43497   3.759  17.116  12.322 -0.1181  0.0547 -0.4979
23964W        W43498  11.765   4.419   0.227 -0.1444 -0.0566  0.1360
23965W        W43499   7.297   4.645  10.149  0.0254 -0.1787  0.0501
23966W        W43500  14.292   7.868  12.657  0.1320  0.0652 -0.4095
23967W        W43501  13.309  12.644  12.492  0.2164  0.0115 -0.0833
23968W        W43502   3.724  16.207   3.190  0.1906 -0.1522  0.0968
23969W        W43503   2.322   3.162  12.966  0.1263  0.2308  0.0473
23970W        W43504  15.477   7.991   2.876  0.2071  0.1345  0.0847
23971W        W43505  18.211  17.154  12.566 -0.1280  0.4767 -0.1721
23972W        W43506   3.756   2.587   1.451 -0.0645 -0.2203  0.0282
23973W        W43507  12.443  19.372   0.950 -0.2463  0.0988 -0.0611
23974W        W43508  19.168  16.839   2.155  0.2605  0.1361  0.1443
23975W        W43509  13.412  18.904   3.704  0.0246  0.2191 -0.0443
23976W        W43510   0.961  10.512  12.424  0.3209 -0.1900  0.2895
23977W        W43511  14.928   3.952   1.129  0.1892  0.0632  0.1838
23978W        W43512  15.975   8.163   3.699  0.0916 -0.1734 -0.1678
23979W        W43513   9.066   8.678   1.718 -0.2109  0.1126 -0.1144
23980W        W43514  11.371   6.893   4.282  0.1726 -0.0884  0.1527
23981W        W43515   6.507  19.189   3.559 -0.0598  0.3007 -0.1211
23982W        W43516  18.874  10.951   2.823  0.1080  0.0073  0.1219
23983W        W43517  19.530   3.386   2.763 -0.0530  0.0715 -0.0769
23984W        W43518  16.221   3.709   3.563 -0.2847  0.0811  0.0781
23985W        W43519   8.029   1.157   4.637 -0.0939  0.0384  0.1907
23986W        W43520   2.249   1.104  11.397  0.2886  0.2631 -0.0545
23987W        W43521  18.117   9.427   2.518  0.4831 -0.1036 -0.1371
23988W        W43522   3.109  18.366   1.362  0.2120 -0.4646  0.0806
23989W        W43523  11.194  15.051  12.836  0.0449  0.3399  0.1007
23990W        W43524   0.029   9.037   2.132  0.1554  0.1353 -0.1527
23991W        W43525   1.847   1.999  11.835 -0.1602  0.0383  0.0096
23992W        W43526  10.079  12.100   3.246 -0.0934 -0.0250  0.2260
23993W        W43527   9.811   3.897  12.357  0.0237 -0.2086 -0.1664
23994W        W43528   2.555  13.516   3.199 -0.0574  0.0851  0.0096
23995W        W43529  16.084  12.611  13.936  0.1148  0.1289  0.0670
23996W        W43530  18.170   8.197  11.152  0.2028  0.3392 -0.2346
23997W        W43531  11.374  13.789  13.563 -0.1401  0.1343 -0.1710
23998W        W43532  14.693  16.705  12.132  0.0437 -0.2245 -0.4352
23999W        W43533  10.799  16.179   0.438 -0.3153 -0.2508 -0.0527
24000W        W43534  14.928   0.976   1.266 -0.1612  0.0107  0.0092
24001W        W43535  15.950  16.088  11.170  0.0951  0.0340  0.0690
24002W        W43536   9.522  14.242  11.431  0.1534 -0.1470 -0.0697
24003W        W43537  16.780  19.060  14.320  0.2463 -0.1394 -0.1589
24004W        W43538  18.523  19.042  14.229 -0.2154  0.1306 -0.4697
24005W        W43539   8.834   9.888   1.102  0.3067 -0.4237 -0.3296
24006W        W43540   6.590  18.272  12.476  0.1049 -0.0359  0.0674
24007W        W43541   4.074  16.939   1.895  0.1333 -0.0632 -0.0860
24008W        W43542   1.517   5.610   3.463 -0.0521 -0.3034 -0.2907
24009W        W43543  11.528  12.119  14.126  0.1385 -0.0082 -0.2685
24010W        W43544   8.508   5.733  11.975 -0.3292  0.1686 -0.1262
24011W        W43545  17.311  14.425  13.003  0.0632 -0.1275  0.0453
24012W        W43546   2.782   4.781   2.924  0.0351  0.3130 -0.0949
24013W        W43547   7.786  18.287  11.072 -0.0527  0.0142  0.0529
24014W        W43548  15.073   4.420  13.312 -0.3692 -0.1492  0.0294
24015W        W43549  15.738  18.143   1.815 -0.1023  0.2181 -0.0298
24016W        W43550  18.064   4.672  11.926  0.2138 -0.0388  0.0890
24017W        W43551   8.465  10.967   9.798 -0.1281 -0.3242  0.2504
24018W        W43552   5.385  16.453  13.569  0.0062  0.1371 -0.0159
24019W        W43553  12.911   8.389   9.633  0.0986  0.1382  0.0953
24020W        W43554   1.627  13.190  11.151 -0.2708  0.0345 -0.1349
24021W        W43555   4.875   6.513  10.896  0.4567 -0.0521  0.0761
24022W        W43556   3.882   7.504  10.824 -0.2565  0.3437  0.0533
24023W        W43557  15.726   3.449  12.455 -0.0204  0.3181  0.1034
24024W        W43558  15.911   9.995  14.287  0.0207  0.1576 -0.4397
24025W        W43559  10.808   9.710   1.262  0.2566 -0.1923  0.0393
24026W        W43560   5.280  17.112  10.471 -0.2013 -0.0969  0.1499
24027W        W43561  17.522   6.512   3.678 -0.1815 -0.4402  0.1913
24028W        W43562   7.557  17.701  13.723  0.1034 -0.3891  0.0188
24029W        W43563   2.200   7.973  12.369  0.2345  0.1686 -0.1413
24030W        W43564  12.055  16.569  13.100 -0.0141  0.0506 -0.0439
24031W        W43565   2.932  15.119  11.904 -0.1121  0.0990  0.4051
24032W        W43566   2.707  12.454  11.030 -0.2016  0.2643  0.5033
24033W        W43567   0.679  13.849   3.749  0.3332 -0.4084 -0.1174
24034W        W43568   5.721   1.751   1.813  0.0140  0.2235 -0.1068
24035W        W43569  14.393  10.036   1.555  0.0172  0.1095  0.2227
24036W        W43570  11.537   7.969   2.412 -0.0987  0.1269  0.1072
24037W        W43571   5.455   0.331   2.966  0.0726  0.1464  0.1167
24038W        W43572   0.496   6.391   3.940 -0.1557  0.2748 -0.0380
24039W        W43573   4.338   0.953   0.953  0.3973 -0.0956  0.1227
24040W        W43574  19.203   3.601  10.669 -0.0247 -0.1619  0.2944
24041W        W43575   2.085  14.858   3.013 -0.0733 -0.0828  0.1441
24042W        W43576   6.706  13.076   0.984 -0.1286  0.0260  0.0119
24043W        W43577  17.704   8.416  11.434 -0.5703 -0.2203 -0.1091
24044W        W43578  17.732  15.947   1.767  0.2433  0.0390 -0.0765
24045W        W43579   5.671   0.085   4.817  0.1493 -0.0680  0.0275
24046W        W43580   6.204  14.610  12.281  0.7344  0.0356 -0.0112
24047W        W43581   0.024  12.216   4.473  0.2330 -0.2357 -0.1182
24048W        W43582  16.512   8.683   0.190  0.0232 -0.0633  0.0260
24049W        W43583  13.268   6.054   3.498  0.1923 -0.0184 -0.2285
24050W        W43584  14.021  10.313   9.935 -0.0598 -0.2368  0.0456
24051W        W43585  13.785  18.020   4.805  0.3360 -0.2659 -0.3851
24052W        W43586  18.982   7.889  11.321 -0.0697  0.0085 -0.0231
24053W        W43587   0.183  10.979   0.194 -0.1032 -0.3587  0.1517
24054W        W43588   0.949   3.425  11.280 -0.3330 -0.0674  0.0169
24055W        W43589   2.689   3.811   1.386 -0.0462  0.0200 -0.2029
24056W        W43590   5.226   9.311   2.426  0.1132  0.3533  0.2489
24057W        W43591  15.180  14.658   3.299  0.0802  0.0320  0.0039
24058W        W43592   2.453   2.479  13.447 -0.1582  0.1303 -0.1550
24059W        W43593  10.466  19.534  14.203 -0.3160  0.1490 -0.0010
24060W        W43594   9.488  13.836  14.266  0.1660 -0.0651  0.2245
24061W        W43595  15.808   7.250  10.777 -0.1119  0.2207  0.0273
24062W        W43596  18.583  13.055   1.104  0.0479  0.0461  0.2331
24063W        W43597   0.077  19.293   3.786  0.0637  0.0116  0.1739
24064W        W43598  17.497   9.463   3.852 -0.1598  0.1619  0.4132
24065W        W43599   6.135   3.920   2.852  0.0767  0.2481 -0.1279
24066W        W43600  10.841   3.402  11.841  0.2740 -0.1889 -0.2917
24067W        W43601  10.209  19.182  12.048 -0.0988 -0.3672  0.4393
24068W        W43602  17.217  16.982   2.719  0.1023  0.2413  0.1853
24069W        W43603  17.528  11.514   1.944 -0.2629 -0.1789 -0.1074
24070W        W43604   7.854  15.824  13.732 -0.0057 -0.0986 -0.2630
24071W        W43605   4.559  15.989  13.240  0.1691 -0.0182 -0.0707
24072W        W43606   0.074   3.295  11.994  0.0686 -0.1812 -0.3845
24073W        W43607   4.568   0.508   0.348  0.1420 -0.2181 -0.0976
24074W        W43608   6.707  17.153   1.021  0.4029 -0.0421  0.0220
24075W        W43609  15.566   6.068   0.762  0.1864 -0.0528 -0.1429
24076W        W43610  12.135  16.723   2.696 -0.0600  0.3130 -0.1501
24077W        W43611  15.339  10.411  12.089  0.0561 -0.0417  0.0482
24078W        W43612  17.718   9.718  12.657  0.0963  0.0625 -0.1327
24079W        W43613  18.378   8.584  10.937 -0.0364 -0.1976  0.0313
24080W        W43614  13.442   9.395  13.499  0.1383  0.0328  0.0070
24081W        W43615   9.801   6.713   0.921  0.0784 -0.0058  0.1071
24082W        W43616  11.474   1.271   3.614 -0.3327  0.0267 -0.0870
24083W        W43617  17.496   7.868  13.874  0.0758  0.2269  0.0955
24084W        W43618  16.490   8.210  14.148 -0.0466 -0.0279  0.1869
24085W        W43619  14.873   1.830  12.194  0.1712  0.2442  0.0145
24086W        W43620  17.698   9.765   1.061 -0.1245 -0.1064  0.1266
24087W        W43621  10.243   6.074  10.373  0.2602 -0.0307 -0.1468
24088W        W43622   5.431  12.637  12.470  0.1158  0.0571  0.1776
24089W        W43623  15.963  11.334   2.153  0.4636 -0.0444 -0.1018
24090W        W43624   8.238  17.919   0.970  0.3283 -0.1377 -0.0160
24091W        W43625  15.882   8.785   3.041  0.0831  0.0576  0.1588
24092W        W43626  18.765   8.212   2.123  0.2035 -0.0097 -0.1515
24093W        W43627  14.266  17.220  11.425 -0.3284 -0.0041 -0.1650
24094W        W43628  13.436  18.167   0.063 -0.0619 -0.0813  0.0806
24095W        W43629  14.911   3.369  12.734 -0.1997  0.1410  0.2365
24096W        W43630  14.797   5.082   2.364  0.2707 -0.2527  0.4501
24097W        W43631  12.872   2.325  12.630  0.0322  0.4907  0.0751
24098W        W43632  17.763  16.887  12.004 -0.0540  0.0976 -0.1309
24099W        W43633  13.998  16.915   0.376 -0.1264 -0.2423  0.0760
24100W        W43634  19.379   3.518  13.378 -0.2484 -0.0936  0.2558
24101W        W43635  14.138   3.580   1.318  0.0344  0.5220  0.0897
24102W        W43636   4.147  12.418   2.358 -0.0603 -0.2610  0.1951
24103W        W43637  11.182  18.120  11.054 -0.1284  0.1390  0.1306
24104W        W43638   0.077  11.336   3.232 -0.4434  0.1882 -0.2453
24105W        W43639   9.304   8.200   4.859 -0.2637 -0.1009 -0.1125
24106W        W43640  15.213   5.183   9.355 -0.1155  0.0303 -0.1097
24107W        W43641   8.910   3.378   4.095 -0.1483  0.0765 -0.1187
24108W        W43642   8.275   3.952  10.532 -0.0401  0.0368  0.0109
24109W        W43643  13.824   6.140   0.046  0.0036  0.0932  0.0137
24110W        W43644   0.884  16.180  13.918 -0.2334 -0.1149  0.1294
24111W        W43645  10.306  16.839  11.960  0.4575  0.0794 -0.0762
24112W        W43646   6.967   7.614  14.223 -0.0047  0.2198 -0.0111
24113W        W43647  12.227   9.041  12.241 -0.2187 -0.0010  0.1312
24114W        W43648   3.027  18.272  14.115 -0.1893 -0.0871  0.1475
24115W        W43649   2.614   5.762  13.439 -0.0282  0.1913  0.1424
24116W        W43650  16.347  14.828  12.221 -0.0197 -0.1151  0.1120
24117W        W43651   8.157   1.851  13.711 -0.0543  0.2785  0.1228
24118W        W43652   3.387  16.896   2.670 -0.0493 -0.1001  0.1106
24119W        W43653   6.993   7.152  13.925  0.1870  0.0559 -0.0694
24120W        W43654  16.837  19.124  10.114 -0.3592 -0.0400  0.0356
24121W        W43655  14.961   2.831  14.084  0.1361  0.0026  0.3955
24122W        W43656  18.695  16.270   3.154  0.0052 -0.0923  0.0062
24123W        W43657   3.510   9.150   0.890  0.1539  0.1336 -0.2711
24124W        W43658   0.503  17.912  13.080  0.0434  0.2667 -0.0312
24125W        W43659  15.159  10.858   4.473  0.0570 -0.1062 -0.3737
24126W        W43660   8.553  11.239   4.678 -0.0899  0.0195  0.2244
24127W        W43661  13.092  10.741   2.592 -0.2927 -0.3198  0.4553
24128W        W43662   9.542  13.588   2.842 -0.0360 -0.1189 -0.2904
24129W        W43663  17.987   8.982  10.296  0.0948 -0.1179 -0.0646
24130W        W43664  18.535  18.255  13.192  0.0206  0.2633 -0.0719
24131W        W43665   5.006  17.842  12.500 -0.2767  0.0998 -0.2994
24132W        W43666  13.077   4.444   2.132 -0.1167 -0.0135 -0.0807
24133W        W43667   4.194   4.809  10.250 -0.0392 -0.1568  0.3970
24134W        W43668   1.197   0.380  14.090 -0.1333 -0.0572 -0.0701
24135W        W43669   7.566  14.146  12.589 -0.1453 -0.1985 -0.1565
24136W        W43670   5.589  12.183  12.722  0.1004 -0.0073  0.1191
24137W        W43671  11.653  11.698  11.856 -0.4013 -0.1117 -0.2185
24138W        W43672   2.891  11.187  11.616  0.4231 -0.1801  0.2064
24139W        W43673   7.525  11.061  13.026 -0.2380  0.0463 -0.1967
24140W        W43674   8.327  17.405  12.568 -0.2112  0.0510  0.0825
24141W        W43675  11.757   0.438   0.918 -0.1545 -0.2103  0.1037
24142W        W43676   1.267   8.409   2.513 -0.1033 -0.1794  0.0622
24143W        W43677  15.786  18.978  11.613 -0.1857  0.0555 -0.1665
24144W        W43678  14.040  18.680  12.842 -0.1406  0.2283 -0.2586
24145W        W43679   4.181   2.876   1.149  0.3328 -0.0782 -0.0264
24146W        W43680  13.959  13.529   1.401  0.2745 -0.1880 -0.0503
24147W        W43681  15.576   8.521   2.179 -0.1139 -0.1431  0.1551
24148W        W43682   4.635  11.061  11.265  0.3573  0.0751  0.0092
24149W        W43683   2.389  16.310   3.952  0.3417  0.0659  0.0504
24150W        W43684   5.584   6.265  13.768 -0.0411  0.0432 -0.2659
24151W        W43685   0.808   7.937  11.266 -0.2798  0.2463  0.2740
24152W        W43686   0.713   2.916   2.939 -0.1516  0.5403 -0.1314
24153W        W43687   5.484   5.918   2.113 -0.0939 -0.1088 -0.1693
24154W        W43688   7.825   3.198   0.633  0.1587  0.0432 -0.0388
24155W        W43689   1.117   6.862   4.381 -0.3857 -0.1401  0.0641
24156W        W43690  15.246  17.527  10.214  0.0376 -0.0058 -0.0975
24157W        W43691   1.188  12.070   1.600  0.3239 -0.0126 -0.1128
24158W        W43692   9.096  12.739  11.345 -0.1792 -0.0980 -0.1757
24159W        W43693  11.696  10.011   4.167 -0.0075 -0.1963  0.1925
24160W        W43694   2.454   1.354  11.929 -0.3292  0.2209 -0.3045
24161W        W43695   6.159   2.458  12.890 -0.2450 -0.0560  0.0093
24162W        W43696  10.752   8.368   0.575 -0.1688 -0.0279 -0.3737
24163W        W43697   6.986   8.827   4.827  0.2681  0.2057  0.1465
24164W        W43698  13.527  15.010  13.945 -0.1382  0.1264  0.1970
24165W        W43699  17.654  12.462  14.004  0.3886  0.0436  0.2734
24166W        W43700  16.707   3.790  13.849  0.2805  0.2645  0.0101
24167W        W43701  18.199   2.843   9.645 -0.2394 -0.2426 -0.2121
24168W        W43702   7.418   5.939   0.276 -0.0973 -0.0257  0.1400
24169W        W43703  18.538   0.421   0.318 -0.3458 -0.0185  0.2171
24170W        W43704   3.712  10.716  10.176 -0.1225 -0.1169 -0.0685
24171W        W43705   7.416  11.813  13.910 -0.0397  0.1883  0.2374
24172W        W43706   5.217   2.015  12.341 -0.0553  0.2972  0.0581
24173W        W43707  11.582   7.919   3.500  0.1308  0.2007 -0.0905
24174W        W43708   1.222   1.983  11.715 -0.1001  0.0744  0.2411
24175W        W43709   1.011  16.486   0.114  0.2085  0.0073 -0.0294
24176W        W43710  10.838   0.773  12.387 -0.0565 -0.4354  0.1830
24177W        W43711   8.974   7.397   3.676 -0.2340  0.2299 -0.0917
24178W        W43712  14.536  11.739  10.344  0.3818  0.0788  0.2061
24179W        W43713  19.183   0.558   3.227  0.0334 -0.0042  0.1892
24180W        W43714   1.024  18.746   0.568  0.3817 -0.0596 -0.0962
24181W        W43715   8.249   5.440  12.355 -0.3025  0.1343  0.2209
24182W        W43716  18.477   9.267   3.482 -0.1725 -0.4069  0.4183
24183W        W43717  12.626  11.835   3.005 -0.2000  0.0248 -0.0340
24184W        W43718   6.176   1.403   3.618  0.0920  0.4374  0.0729
24185W        W43719   0.145   8.661  10.032 -0.0875  0.2652  0.2398
24186W        W43720  16.491  14.121  11.051  0.1011 -0.2222  0.0844
24187W        W43721  11.606  16.503   0.464 -0.0339  0.2069  0.1647
24188W        W43722  10.034   0.429  12.646  0.2108 -0.4650 -0.0843
24189W        W43723   2.189  16.885   1.805  0.0983 -0.0564  0.1288
24190W        W43724  19.074   2.197  10.652 -0.1247  0.0520  0.2914
24191W        W43725   3.184   4.713  12.549  0.0200  0.2250 -0.1025
24192W        W43726  12.459   7.280   1.522  0.0037 -0.1452  0.2727
24193W        W43727   3.221   8.907  14.285 -0.4207 -0.0805  0.1786
24194W        W43728  15.455  10.600   0.100  0.0723  0.0219 -0.2780
24195W        W43729  16.063   4.828  11.717 -0.3449  0.1390  0.2262
24196W        W43730   6.766  16.537  10.873 -0.0307 -0.2584 -0.4384
24197W        W43731   1.686  17.034  10.556 -0.1095  0.3935  0.2797
24198W        W43732  14.929  10.621  13.289 -0.1906  0.2880  0.1017
24199W        W43733  10.596  16.477  13.173  0.0998 -0.1344 -0.1534
24200W        W43734   5.386  10.707  10.713  0.2916  0.1410  0.0640
24201W        W43735  15.400   6.819   4.161 -0.0428  0.3049  0.1905
24202W        W43736  16.094  15.446   2.803 -0.0726  0.5166  0.0643
24203W        W43737   6.713  15.570  10.094 -0.3072 -0.1129 -0.1864
24204W        W43738  10.084  15.488   2.605 -0.2469  0.0214  0.2633
24205W        W43739   0.077  17.545  11.327  0.3295 -0.2319  0.1349
24206W        W43740  16.335   1.187   4.225 -0.1375  0.4011  0.0173
24207W        W43741  16.786   6.402   4.458 -0.0281 -0.1773 -0.0009
24208W        W43742   5.104   2.105  13.411  0.1040 -0.0606  0.0707
24209W        W43743  18.856   4.826   0.339  0.0748 -0.0680  0.0177
24210W        W43744  15.515   7.291   4.195  0.0707  0.1492  0.2313
24211W        W43745   7.048   0.611   0.345  0.1906  0.0818 -0.2429
24212W        W43746  18.050  19.313  11.076 -0.0511  0.1415  0.0225
24213W        W43747  13.381   6.255   0.432  0.1922 -0.3610  0.0299
24214W        W43748  15.951   9.637   3.021  0.1011  0.1718  0.4116
24215W        W43749   8.761  16.749  13.344 -0.0774  0.0320  0.0820
24216W        W43750   5.189  16.161   2.147 -0.2812 -0.2759  0.0958
24217W        W43751   7.570   8.789   0.139 -0.0552 -0.0429  0.3730
24218W        W43752   5.521  17.254   0.786 -0.1837  0.2689 -0.0664
24219W        W43753   5.696  12.717   4.141 -0.2225  0.0406 -0.0553
24220W        W43754   1.605   7.552  13.085  0.1969 -0.2064 -0.1099
24221W        W43755  18.096   7.170   2.063 -0.0173  0.0041  0.5179
24222W        W43756   7.926  12.001  11.910 -0.1288 -0.2735  0.0151
24223W        W43757  10.928  17.677   1.289 -0.2493 -0.0053  0.2174
24224W        W43758   4.717  14.035   3.320 -0.0051  0.1091  0.1022
24225W        W43759   5.505   8.211  10.682  0.2036  0.4931  0.1989
24226W        W43760  14.877  11.652  13.921  0.0636 -0.0064 -0.2322
24227W        W43761   2.450  16.138   0.135 -0.0727 -0.4656  0.0586
24228W        W43762   5.285   0.792   3.956  0.0980  0.1151 -0.6262
24229W        W43763  15.833  13.646   0.782  0.2488 -0.0754 -0.1655
24230W        W43764   3.969   7.325  13.300  0.1430 -0.0714 -0.0576
24231W        W43765   0.967   8.635   0.209 -0.1838  0.1087 -0.0051
24232W        W43766   6.140   8.415   0.832  0.1099  0.2472  0.1367
24233W        W43767  11.688  19.154   1.129  0.1248  0.0444 -0.0266
24234W        W43768   4.801   7.267   1.949  0.0682  0.1807  0.0712
24235W        W43769  14.103  11.813   3.543 -0.3020 -0.5767 -0.4105
24236W        W43770   3.956   1.922   2.100 -0.2043  0.0728 -0.4205
24237W        W43771   8.425  13.012  13.606  0.0579 -0.1979 -0.4777
24238W        W43772   2.813   7.704   0.172  0.0518  0.1879  0.1637
24239W        W43773   0.079   0.683  12.481 -0.0063  0.2396 -0.3060
24240W        W43774   7.761   4.210   1.903  0.1853 -0.1088  0.1898
24241W        W43775  14.373   1.290  14.286 -0.1575 -0.3423  0.2251
24242W        W43776  11.946   4.449   3.089 -0.1786  0.1995  0.4074
24243W        W43777  18.480  11.725  11.378 -0.1594  0.1692 -0.1494
24244W        W43778   2.362  18.921  13.384 -0.3316 -0.1477 -0.1085
24245W        W43779   9.384   2.570   3.177 -0.2500 -0.1128 -0.2197
24246W        W43780  14.349  15.777  13.283 -0.0272 -0.2010 -0.0204
24247W        W43781   5.497   2.760  11.177  0.0999  0.0129  0.1023
24248W        W43782  12.588  11.279   3.656  0.5032  0.0182  0.0268
24249W        W43783   4.626  16.486   0.562  0.0560 -0.1167  0.0899
24250W        W43784   9.259  17.196  11.390  0.0378 -0.1982 -0.2011
24251W        W43785  14.592   6.600  12.728 -0.3980 -0.2109  0.5523
24252W        W43786   4.397  16.417  13.518  0.3300 -0.0089  0.1969
24253W        W43787   1.268  14.814  11.175  0.0149 -0.0281  0.0649
24254W        W43788  17.182  10.358  13.717  0.1506 -0.0259 -0.3563
24255W        W43789  18.586   3.487   1.220  0.1604  0.3595 -0.0238
24256W        W43790  18.441  10.291  13.541  0.0982 -0.1986  0.1990
24257W        W43791   5.845  13.893  10.705  0.2168  0.0473 -0.1056
24258W        W43792  10.582   5.190   1.615 -0.1029  0.0930  0.0201
24259W        W43793   1.669   9.625   2.317 -0.2195 -0.1987 -0.2510
24260W        W43794  16.136  18.970  10.942 -0.2487 -0.1056  0.0875
24261W        W43795   0.536  15.317   2.399 -0.0760 -0.2947  0.0129
24262W        W43796   5.009  11.408  13.457 -0.1381 -0.0571 -0.0760
24263W        W43797   8.725   0.509   1.849 -0.1680 -0.1360  0.4543
24264W        W43798   6.474   2.521   4.351  0.0251  0.0978 -0.0203
24265W        W43799  12.760   8.666   2.365  0.1994  0.1615  0.3047
24266W        W43800  17.342  12.935  14.033 -0.0218  0.1526  0.1554
24267W        W43801  12.637   6.882  13.059 -0.2380 -0.3138  0.0042
24268W        W43802  14.764  18.188   3.453  0.1984 -0.4752 -0.2228
24269W        W43803  18.969  17.400  10.155 -0.1052 -0.1126  0.0006
24270W        W43804   7.337  15.112   2.582  0.1800  0.0014 -0.0092
24271W        W43805  11.138   9.578  11.726 -0.2300 -0.0167 -0.1835
24272W        W43806  13.228   4.523  13.411  0.0404 -0.0755  0.3530
24273W        W43807  14.530  15.646  11.517 -0.0855  0.4290  0.1046
24274W        W43808   7.928  15.596   1.980  0.0253 -0.2283  0.2757
24275W        W43809  15.475  12.039  12.076 -0.3204  0.1368  0.0742
24276W        W43810   6.789  14.290   0.252  0.3278 -0.1434  0.1375
24277W        W43811   0.108   5.994   0.635 -0.2564  0.1664 -0.0355
24278W        W43812  17.936  18.163   1.511  0.1463  0.1121 -0.5862
24279W        W43813  10.945  18.590  11.289 -0.1881 -0.1301  0.1655
24280W        W43814  15.498  14.443   3.585  0.0070  0.0517 -0.3505
24281W        W43815   4.002   3.792   1.034  0.3822 -0.1823  0.2737
24282W        W43816  13.563  17.543   9.356  0.0305  0.0611  0.1625
24283W        W43817  16.147  16.867  10.342 -0.0284  0.0572 -0.2207
24284W        W43818   4.441  16.836  11.433 -0.0488  0.0577 -0.0454
24285W        W43819   9.115   5.700   0.746  0.0885  0.1460  0.1364
24286W        W43820  16.485  15.673   2.955  0.2336 -0.0438 -0.0624
24287W        W43821   7.222  13.803   2.388 -0.0192  0.1308  0.1240
24288W        W43822   5.467   0.314   3.932 -0.1164  0.0965 -0.0811
24289W        W43823   6.384  18.707   3.629  0.2323  0.3121  0.0025
24290W        W43824   0.128   5.341  12.288 -0.0070  0.1831 -0.2837
24291W        W43825  15.098  14.352   2.786  0.0056 -0.3427 -0.0287
24292W        W43826  13.619   6.619  12.615  0.0410  0.0879 -0.0273
24293W        W43827  12.426   6.979   3.332  0.0467  0.1165  0.2886
24294W        W43828  17.278  10.132  11.924  0.0429 -0.0615  0.2883
24295W        W43829   3.846  17.492  13.813 -0.0684 -0.1328 -0.2007
24296W        W43830  16.318   3.001   2.332  0.1917  0.2793  0.0876
24297W        W43831   1.046   4.167   0.612  0.0108 -0.2139 -0.0619
24298W        W43832  19.356  15.567   9.669  0.0906  0.4228 -0.2018
24299W        W43833  10.329   2.115   0.653 -0.3270  0.1940 -0.0716
24300W        W43834  18.930  18.759   4.252 -0.0719  0.0966 -0.0665
24301W        W43835  12.635  16.828   0.109 -0.0174 -0.1330  0.1169
24302W        W43836  18.183   1.967   2.271 -0.0396  0.0336  0.2810
24303W        W43837   0.232   9.383   9.536  0.1196  0.0089 -0.0366
24304W        W43838  18.612   6.506   3.193  0.4319  0.2408  0.1003
24305W        W43839  13.987  18.528   0.946 -0.1219 -0.1353 -0.4597
24306W        W43840  14.044   5.148  10.772  0.0647 -0.0622  0.0701
24307W        W43841  13.685  18.798   1.260  0.0781  0.1364 -0.0353
24308W        W43842   7.840  11.873   3.472 -0.5797  0.1251 -0.2398
24309W        W43843  11.211   2.110  11.223 -0.1486  0.1229  0.3175
24310W        W43844  13.056   5.686  13.281 -0.2062 -0.0110  0.1730
24311W        W43845  12.302  15.188   4.233  0.0761  0.0910 -0.2134
24312W        W43846   8.467   6.281   1.971  0.1144  0.0219 -0.0214
24313W        W43847   6.711   2.941  11.923 -0.0692 -0.1914 -0.2217
24314W        W43848   4.274  17.244   1.029 -0.0516  0.1417 -0.1887
24315W        W43849  19.388  13.348   2.427 -0.1574 -0.0410  0.1967
24316W        W43850   2.802   1.281  11.215 -0.2225  0.0184  0.0574
24317W        W43851  15.843   7.661   1.652  0.1398  0.1046  0.0605
24318W        W43852  16.041  17.690   1.800  0.0629 -0.0615  0.0575
24319W        W43853   3.545  11.856   9.982  0.0777 -0.3626 -0.0978
24320W        W43854  13.632  18.581  13.277  0.2714  0.0669  0.1491
24321W        W43855   6.793  19.093  12.965 -0.3097 -0.1732 -0.0107
24322W        W43856  19.489   4.979   3.519 -0.0268  0.1169 -0.1631
24323W        W43857   2.303   8.469   2.944 -0.1823  0.1691 -0.0567
24324W        W43858  10.399   7.997   0.833  0.2578  0.1119  0.0572
24325W        W43859  14.267   7.108  12.240 -0.1659 -0.2541 -0.0511
24326W        W43860  12.226   2.027   4.287  0.1094 -0.2255  0.2377
24327W        W43861   1.039  12.767  12.461  0.1740  0.0128 -0.3015
24328W        W43862  19.420   4.440   4.093  0.1046  0.2478 -0.3706
24329W        W43863   2.965  17.170  12.536  0.2615  0.0164 -0.4831
24330W        W43864   7.889  14.348  11.385  0.5149 -0.2223 -0.0183
24331W        W43865  16.465   3.956  10.540  0.0575  0.0191  0.0016
24332W        W43866   6.265   1.759  11.878  0.1281 -0.2062  0.1060
24333W        W43867   7.987  15.527   0.833  0.3260 -0.1959 -0.1095
24334W        W43868  15.641  12.329   1.093 -0.1759  0.1068 -0.2502
24335W        W43869   9.146  16.196  11.390  0.0511 -0.1817  0.3250
24336W        W43870   7.766   8.000   3.572 -0.0218 -0.1748  0.0097
24337W        W43871  10.615   5.118   0.204 -0.0507  0.1656 -0.0167
24338W        W43872   2.224   8.627   3.720 -0.1057 -0.1912  0.3455
24339W        W43873   9.048   0.506  13.575 -0.0381 -0.1067  0.0142
24340W        W43874   7.407  15.134  13.840  0.0010  0.2379 -0.0208
24341W        W43875   5.608  18.543   1.078 -0.0540 -0.0191 -0.0166
24342W        W43876   6.858  18.528   1.071  0.0674  0.0678 -0.0591
24343W        W43877   8.378   8.331   2.965  0.0593 -0.1399  0.0255
24344W        W43878  19.003  18.527  12.994  0.2770  0.0870  0.0086
24345W        W43879  12.081  13.825   0.251 -0.0854  0.0286  0.2078
24346W        W43880  16.508  10.511   0.505  0.0095 -0.0138  0.0215
24347W        W43881   7.266   3.140   4.194 -0.2000 -0.2635 -0.1705
24348W        W43882  19.189   3.428  12.797  0.1107 -0.2969 -0.0513
24349W        W43883   4.258  12.173  11.121 -0.0832 -0.1903  0.0995
24350W        W43884   8.053  13.696   2.129 -0.3291 -0.0924 -0.0595
24351W        W43885  19.534   6.032  13.504  0.4490  0.2324  0.0507
24352W        W43886   6.604  18.385  14.078  0.0960  0.0446 -0.0809
24353W        W43887  13.898  14.230  12.573  0.1264  0.1204  0.3254
24354W        W43888  11.878   1.623  13.873  0.2994 -0.1525 -0.1535
24355W        W43889  15.686   9.717  13.725  0.0337  0.3103 -0.1308
24356W        W43890  19.283  11.819   0.380  0.2970  0.1852 -0.0895
24357W        W43891  16.802  17.499   2.712  0.0829  0.0816 -0.2081
24358W        W43892   6.627   7.943   0.184 -0.1260 -0.1010 -0.1900
24359W        W43893  16.791  13.260   3.103 -0.1162 -0.1626 -0.2303
24360W        W43894   8.383  14.795   1.050 -0.0621  0.0689 -0.2087
24361W        W43895   6.704  17.065   2.241 -0.0196 -0.0411 -0.0162
24362W        W43896  12.898   5.546  12.839 -0.1261 -0.0489 -0.1068
24363W        W43897   2.989   6.398   4.119 -0.1720 -0.0387  0.1744
24364W        W43898   5.606  16.393  10.535 -0.0048  0.1832 -0.0618
24365W        W43899  14.487   4.473  10.353  0.2440  0.4112 -0.4454
24366W        W43900   7.484  17.963   9.830  0.1622  0.0883 -0.0360
24367W        W43901  18.465  17.996  13.748  0.1359 -0.1346 -0.1129
24368W        W43902   1.816   0.536   0.456 -0.0369 -0.0279  0.1136
24369W        W43903   2.395  17.160   3.967  0.1836 -0.1570 -0.0847
24370W        W43904   9.209  17.893  12.940 -0.3624 -0.0938 -0.3007
24371W        W43905  11.841  11.008  14.024  0.1470 -0.0599 -0.3411
24372W        W43906  11.674  11.907   1.022 -0.2059  0.1963  0.2786
24373W        W43907  10.228   1.302   3.971  0.0654 -0.2559  0.0917
24374W        W43908  13.413  16.803  13.447  0.3592 -0.1115  0.3467
24375W        W43909  18.731  10.529  12.296  0.2626 -0.2732 -0.2609
24376W        W43910   9.042  17.176  14.177  0.1049  0.0352 -0.2046
24377W        W43911   1.927   7.948  10.546 -0.0146  0.0785  0.2133
24378W        W43912   5.216  18.735   4.146  0.0159 -0.0775  0.1812
24379W        W43913   5.498  18.543   3.146  0.3102  0.1868 -0.1456
24380W        W43914   4.117  12.586  12.701 -0.0655 -0.2894 -0.2805
24381W        W43915   7.207  15.534  13.987 -0.0000 -0.1118  0.0004
24382W        W43916   8.853   9.866   2.389  0.0881  0.2503  0.5569
24383W        W43917   8.744  14.434   0.793 -0.0360  0.1596  0.1067
24384W        W43918  15.632  17.320  13.010  0.3684 -0.0797  0.0698
24385W        W43919   5.356   2.429   1.284 -0.3450 -0.0444  0.3979
24386W        W43920   8.291   5.650  12.827 -0.1473 -0.2608  0.2384
24387W        W43921  19.466  19.274   5.250  0.0876 -0.1133 -0.2219
24388W        W43922  17.385  15.562   3.218 -0.1997  0.0487  0.1214
24389W        W43923   7.598  18.298  11.553 -0.1101  0.1009  0.0422
24390W        W43924   3.887   5.507   2.684 -0.1967  0.0693 -0.1477
24391W        W43925   9.383   1.025   1.469 -0.0262  0.0858 -0.0680
24392W        W43926  17.486  10.528  11.570 -0.2271 -0.1718  0.0635
24393W        W43927   1.581  10.771   3.762  0.0983  0.1324 -0.0879
24394W        W43928  15.795   0.845   2.693 -0.1157  0.1129  0.0212
24395W        W43929   4.084  14.372  13.529  0.0626 -0.1740 -0.0162
24396W        W43930   3.010   9.622  12.725  0.0348 -0.0129  0.0624
24397W        W43931   5.986   0.415   1.504 -0.0238  0.0965  0.0144
24398W        W43932  17.933   0.651  11.853 -0.0772 -0.3267 -0.0342
24399W        W43933  16.141  16.909   2.546 -0.1066 -0.0342  0.3370
24400W        W43934   4.655   5.862  12.044  0.0018  0.0172 -0.0002
24401W        W43935  16.315  18.637  11.283  0.1790 -0.1350 -0.3146
24402W        W43936  11.678  15.528   4.489  0.1126  0.0751 -0.1007
24403W        W43937  18.900   0.124  11.491 -0.0842 -0.1777 -0.1484
24404W        W43938  10.530   3.481  11.481 -0.3289  0.1866  0.3055
24405W        W43939  16.326  18.859   2.194  0.0396 -0.1813 -0.1870
24406W        W43940  10.488   7.412   2.976 -0.0436  0.3179 -0.0674
24407W        W43941   3.380  15.296   1.517 -0.2541  0.0637 -0.0450
24408W        W43942   4.607  16.784   1.799  0.0279 -0.0765 -0.0468
24409W        W43943  13.570  19.227   3.167 -0.0563 -0.2193 -0.1311
24410W        W43944  17.907  19.433  12.775  0.2298 -0.1500 -0.0246
24411W        W43945  10.734  10.635   2.090 -0.1235 -0.1126  0.0512
24412W        W43946  13.555  14.811   0.746  0.2406 -0.1496 -0.0684
24413W        W43947  15.514  15.015   3.324 -0.0468  0.1254  0.0244
24414W        W43948  13.885  17.831  12.445  0.1227  0.1195 -0.2586
24415W        W43949   1.147  13.885  12.248  0.0748 -0.0868 -0.1563
24416W        W43950  10.792  10.677   9.555  0.1004  0.4713  0.2405
24417W        W43951  10.197   1.016   0.427  0.1417 -0.0605 -0.2594
24418W        W43952  12.336   7.181  11.093 -0.0937 -0.0148 -0.0211
24419W        W43953  18.761   5.266   2.524  0.5095 -0.3553  0.4492
24420W        W43954  17.184  18.622  10.248 -0.2267  0.0516 -0.1412
24421W        W43955   2.615  13.975   0.565 -0.3609  0.2182  0.2749
24422W        W43956  14.402  14.094   3.471 -0.0803  0.1597 -0.4665
24423W        W43957   8.919  14.516  12.808 -0.0010 -0.3291  0.1006
24424W        W43958   0.040   8.311   0.535 -0.0541  0.0322 -0.1023
24425W        W43959  18.333   6.492  11.065  0.1358  0.2267  0.0853
24426W        W43960  13.567   2.046   1.467  0.1449 -0.0933 -0.2413
24427W        W43961   5.217  17.554   2.985  0.1717  0.0475  0.3814
24428W        W43962   9.783   8.061  10.305  0.0835  0.1249 -0.2986
24429W        W43963   4.467  14.002  11.013 -0.2879  0.1475  0.2845
24430W        W43964   2.808   7.652   3.575 -0.3794  0.0726 -0.2593
24431W        W43965   3.605   3.040  11.643 -0.0339  0.0336  0.0005
24432W        W43966  13.070  13.593  12.344  0.1648  0.3699 -0.0933
24433W        W43967   8.922  17.766   1.525 -0.0213 -0.0646 -0.0496
24434W        W43968  16.237  15.198   3.869  0.1607 -0.0237  0.0909
24435W        W43969   3.867  13.377   2.473  0.3950 -0.0138 -0.0649
24436W        W43970  19.108   1.362  10.939 -0.0684  0.4906  0.0276
24437W        W43971   6.343  19.218  11.690  0.2793  0.0549 -0.0049
24438W        W43972  10.915   9.674   3.202 -0.1914 -0.5019 -0.2195
24439W        W43973  17.151   5.300  13.553 -0.1424 -0.0383  0.0146
24440W        W43974   5.932   5.046   0.631 -0.1538 -0.0625  0.1632
24441W        W43975  13.382  10.165  10.448 -0.0374 -0.1031  0.0307
24442W        W43976  11.508   4.777   1.084  0.0627  0.1273 -0.2947
24443W        W43977  19.320   2.917   1.300 -0.1993  0.4182 -0.1461
24444W        W43978   8.503  15.652   1.337 -0.0405  0.1004 -0.1957
24445W        W43979  18.031  15.307   4.079 -0.3472  0.0045 -0.0133
24446W        W43980   8.585  13.912   2.067  0.1591  0.0938  0.1878
24447W        W43981  13.113  13.373  13.474  0.2316 -0.0637 -0.1218
24448W        W43982  17.302  11.523  13.408  0.0361  0.1046 -0.1852
24449W        W43983  17.962  18.316   3.974  0.0553 -0.2563  0.1525
24450W        W43984   5.656   5.189   2.443 -0.3074 -0.0934 -0.1877
24451W        W43985   7.890   3.696   0.549  0.0457  0.2026  0.1639
24452W        W43986  10.297   1.784   3.688  0.2986  0.0924 -0.1470
24453W        W43987  16.488   6.934  10.583 -0.1198  0.1343  0.0434
24454W        W43988   0.560   1.430   4.003 -0.3001  0.0232  0.0193
24455W        W43989  12.323  11.286  12.699  0.0795 -0.1805  0.1641
24456W        W43990   1.336  12.453  10.651  0.0020  0.2126 -0.0610
24457W        W43991  13.005  12.092   3.247  0.2589 -0.2617  0.1983
24458W        W43992   0.600   4.969  13.030  0.1265  0.0006  0.0898
24459W        W43993  15.833  10.324  11.969  0.4572 -0.0477 -0.2703
24460W        W43994  14.978   4.822  13.630  0.1169 -0.0213 -0.0969
24461W        W43995   9.622  15.638   4.137 -0.4863  0.1313 -0.1735
24462W        W43996  19.200   0.907   0.543  0.2072 -0.2696  0.1903
24463W        W43997   1.838   3.312  12.221 -0.0356 -0.5501  0.2049
24464W        W43998  12.475  19.456   1.569 -0.0536 -0.1216 -0.2421
24465W        W43999   9.389   4.820  11.133 -0.2074  0.1213 -0.0909
24466W        W44000  10.084  12.793   1.766  0.2426 -0.2475  0.1358
24467W        W44001   3.425   7.554  12.118 -0.2472 -0.2004 -0.1515
24468W        W44002  11.765   9.004   1.405 -0.0402  0.1481 -0.4420
24469W        W44003   4.029  16.598   3.176  0.0328  0.2420 -0.2805
24470W        W44004   8.204  17.179   1.659  0.2610 -0.0181  0.0749
24471W        W44005   5.220   7.973   2.878  0.2051 -0.1358  0.3544
24472W        W44006  11.448  14.092  12.703  0.1793  0.0247  0.1659
24473W        W44007  13.476  11.607   0.051 -0.0296 -0.0857  0.3253
24474W        W44008  14.378  13.072  10.070  0.1313  0.1147  0.2171
24475W        W44009   1.540   0.337   1.137  0.1993 -0.1802 -0.0151
24476W        W44010  17.152   8.344   0.200  0.0640  0.1291  0.0803
24477W        W44011   9.069   4.181  13.783  0.2446 -0.0183 -0.1668
24478W        W44012   1.442  19.044  13.624 -0.1569 -0.0462 -0.0250
24479W        W44013  15.912   7.807  10.787 -0.0740  0.0367  0.2551
24480W        W44014   5.474  11.775   3.317  0.4311 -0.0129  0.1562
24481W        W44015   3.446   3.066   2.297  0.1157 -0.2808  0.0964
24482W        W44016   5.697   8.849  12.763  0.1306  0.1346  0.1181
24483W        W44017  18.014   0.043   2.824  0.0773  0.0726  0.0737
24484W        W44018  13.450   7.033  10.759 -0.1446  0.0169 -0.1909
24485W        W44019   4.109  16.116   2.344 -0.1470  0.3174  0.1476
24486W        W44020   1.968  12.073   2.223 -0.2196  0.0712 -0.1255
24487W        W44021   8.174  12.665  10.748  0.1432 -0.0274  0.2176
24488W        W44022  14.586   8.050  11.202 -0.2681  0.1175  0.2078
24489W        W44023  15.202   2.623  13.225 -0.1688 -0.0039 -0.0736
24490W        W44024   3.720   9.525   2.695  0.0181 -0.1548  0.1553
24491W        W44025  10.469  19.082   1.614 -0.0675  0.0196  0.1415
24492W        W44026   5.706  14.496   1.749  0.1925  0.1182  0.0803
24493W        W44027  11.804  10.890  11.838 -0.4540 -0.3177 -0.0893
24494W        W44028  14.106  19.137   2.904 -0.2021  0.0180 -0.0007
24495W        W44029  11.820   5.481  12.110 -0.0587 -0.0995 -0.0097
24496W        W44030   5.548   3.916   1.433 -0.1556  0.0852 -0.3451
24497W        W44031   8.455   4.479  13.991  0.0699  0.3210 -0.2468
24498W        W44032   1.770   0.909   1.865  0.2021 -0.1922  0.0066
24499W        W44033   3.546  14.228   9.938 -0.0069 -0.1324  0.2732
24500W        W44034   8.591   4.565  12.282 -0.0175 -0.2160  0.0666
24501W        W44035  13.512   9.429   9.564  0.2557  0.0515  0.1169
24502W        W44036  14.021   3.820   0.833 -0.4404  0.0666  0.2193
24503W        W44037   8.208  16.982  13.387  0.2502 -0.0001  0.0507
24504W        W44038   7.810  16.738   2.759 -0.0710  0.0563 -0.3120
24505W        W44039  10.566   0.576   2.743  0.2206 -0.1261 -0.0743
24506W        W44040   0.047   1.997   4.377 -0.0017  0.1694  0.1992
24507W        W44041   1.913   5.669   4.315 -0.2291 -0.0285 -0.1566
24508W        W44042   6.037  11.972  13.415  0.0073 -0.0246  0.3303
24509W        W44043   8.939  12.577   4.656 -0.3019 -0.0169  0.3425
24510W        W44044  12.950  18.043  11.413  0.0056  0.0060  0.1828
24511W        W44045  11.166   4.732   1.530 -0.1111  0.0781  0.0035
24512W        W44046   4.701  13.665   0.193  0.0679  0.0126  0.1087
24513W        W44047   7.613  13.192   1.398  0.0646 -0.1557 -0.2118
24514W        W44048  13.168   1.597  13.205  0.0411 -0.0316 -0.1264
24515W        W44049  13.774  18.019   3.691  0.0290  0.1167  0.0205
24516W        W44050  18.723   2.854   0.653 -0.1179 -0.2043  0.3797
24517W        W44051  15.671   1.477  13.441 -0.2503 -0.0862 -0.2813
24518W        W44052   6.065  12.487  10.857  0.3577 -0.0695 -0.1756
24519W        W44053   0.973  11.904  12.318 -0.0924  0.0995 -0.0118
24520W        W44054   3.193   3.466  12.945  0.0604  0.0372 -0.2634
24521W        W44055   3.026   4.514   2.601 -0.2765  0.0845 -0.0753
24522W        W44056   6.442  15.179  14.253 -0.0641  0.1067 -0.4246
24523W        W44057   5.950   3.813  13.601 -0.0117  0.3995 -0.0384
24524W        W44058   9.836   3.737  10.450  0.0075  0.2656 -0.2175
24525W        W44059   3.494   6.324   9.451 -0.0949  0.1468  0.0599
24526W        W44060   4.665  18.854  13.909 -0.1406  0.0044  0.0998
24527W        W44061   8.776   0.740   4.127  0.1361  0.0534  0.3908
24528W        W44062  15.309   3.952  13.544  0.1509 -0.1581 -0.4993
24529W        W44063  14.131  16.694   3.257 -0.2001 -0.0224  0.0371
24530W        W44064  14.242  18.233   3.954  0.2634  0.0131  0.0326
24531W        W44065   3.082   9.773   0.381  0.1810 -0.1881  0.1252
24532W        W44066   3.265   5.760  12.342 -0.1077 -0.0087 -0.1602
24533W        W44067  10.440  15.838  11.612 -0.1712  0.2364 -0.0608
24534W        W44068   6.535  11.891  10.575  0.0227  0.2307  0.1253
24535W        W44069   9.613   4.801   3.615 -0.0628 -0.0908 -0.1006
24536W        W44070   8.006  10.019  10.669  0.0829 -0.0711  0.1478
24537W        W44071  13.394  15.120   3.011 -0.0651 -0.1397 -0.0279
24538W        W44072   5.460  14.632   0.057 -0.0839 -0.2926  0.0026
24539W        W44073  15.681  14.074   1.081  0.1096  0.0203  0.2232
24540W        W44074  18.516  12.414   1.840 -0.1748 -0.0919 -0.1017
24541W        W44075  12.367  10.601   3.069 -0.3327  0.3971  0.0017
24542W        W44076   9.484  19.370   3.473 -0.1474  0.0686 -0.2009
24543W        W44077   5.968   2.968   3.867  0.1535  0.4334 -0.1866
24544W        W44078   5.854  11.718  11.173  0.1069 -0.2999 -0.0330
24545W        W44079  15.293  18.040   2.572  0.1622  0.0160  0.2990
24546W        W44080  17.449  13.368  14.139  0.0037 -0.3587 -0.0822
24547W        W44081   8.366   9.071  12.499  0.1465 -0.1628 -0.2227
24548W        W44082  19.363   9.835   3.922 -0.2490 -0.1678  0.1014
24549W        W44083   7.253  11.045   3.736 -0.2374  0.0887 -0.0367
24550W        W44084  17.857   5.561  11.337 -0.2399  0.3911  0.0586
24551W        W44085  16.024   3.975  11.432  0.3921 -0.5566 -0.1941
24552W        W44086  11.338   9.974   1.387  0.3698 -0.0082  0.4817
24553W        W44087   1.357  15.324   0.810  0.3186 -0.0860  0.0903
24554W        W44088   9.600   0.058  12.677 -0.0983 -0.0773 -0.2203
24555W        W44089   4.951  11.912   0.455  0.1037  0.3078 -0.2616
24556W        W44090   4.579   9.538   4.930 -0.2153  0.1317  0.1402
24557W        W44091  13.045   2.778  11.029 -0.3369 -0.3446  0.0997
24558W        W44092  15.458   6.489   3.749  0.0580  0.0558  0.1264
24559W        W44093   0.872  11.417   5.048 -0.1198 -0.2169 -0.2093
24560W        W44094  16.660  10.936  10.534  0.2281  0.1033  0.0770
24561W        W44095  16.347  11.631  11.291 -0.2151 -0.1261 -0.4343
24562W        W44096  16.394   1.481   3.204 -0.2837 -0.0932 -0.1169
24563W        W44097   3.062  16.436  11.689  0.1404 -0.5919  0.0619
24564W        W44098  14.092  11.047   1.739  0.0269  0.2329  0.3086
24565W        W44099  13.976  10.113  11.902 -0.2463 -0.2665  0.0350
24566W        W44100  12.681  13.146  12.994  0.1606  0.3713 -0.0310
24567W        W44101   1.675  18.314  13.417  0.0932 -0.2108  0.0506
24568W        W44102   8.831   7.246   2.158 -0.1164  0.3303  0.1374
24569W        W44103   7.892   8.167   2.632  0.2692 -0.0417  0.1502
24570W        W44104   9.380  12.393   0.466  0.1185  0.1562  0.3391
24571W        W44105  14.044  13.212   0.602 -0.0007 -0.2645 -0.0863
24572W        W44106  17.825   2.314   4.597 -0.0910 -0.1140  0.0474
24573W        W44107  14.879  17.619  12.404 -0.0168  0.0030  0.0007
24574W        W44108   9.776  11.619   2.579  0.1846  0.1135 -0.1769
24575W        W44109   1.378   0.439   3.149 -0.0222 -0.3019 -0.2374
24576W        W44110   7.625   7.040  13.057  0.2852  0.1110 -0.0098
24577W        W44111   2.123  11.147   1.848 -0.1111 -0.3047  0.1216
24578W        W44112   0.456  16.943  12.989  0.0259  0.0484  0.0361
24579W        W44113   4.808  18.275  10.451  0.2748 -0.2089 -0.1720
24580W        W44114   9.497   1.934  13.987 -0.0567  0.0461 -0.1730
24581W        W44115   0.322  13.892   1.955  0.0872 -0.1057  0.0347
24582W        W44116   1.265   1.165  13.001  0.0735  0.2044 -0.2237
24583W        W44117  18.618  17.061   9.907 -0.1987  0.0836  0.3558
24584W        W44118  17.250  17.067  13.848 -0.0327  0.0113  0.0889
24585W        W44119  16.944  16.185  10.623  0.1691 -0.1854  0.4918
24586W        W44120   1.025   5.402  13.849 -0.0961  0.0306 -0.2609
24587W        W44121  11.073  11.074  10.477 -0.0263  0.0980 -0.0971
24588W        W44122   7.019  14.703   0.078  0.2729 -0.3583 -0.2398
24589W        W44123  12.336  17.775   1.358  0.0216  0.5167  0.0608
24590W        W44124  16.739  13.390   2.089 -0.2824  0.0645 -0.2672
24591W        W44125  13.239   9.247   0.540 -0.3339 -0.7026 -0.3243
24592W        W44126   4.169  11.917   3.341  0.0707  0.0847 -0.2104
24593W        W44127   9.714  10.137  13.370  0.3052  0.2842  0.1049
24594W        W44128  16.024  13.847   3.723  0.3496 -0.0720 -0.4222
24595W        W44129   1.130   1.829   2.467 -0.0127  0.0936 -0.1671
24596W        W44130  14.785   6.298   0.986 -0.1432 -0.0398 -0.0288
24597W        W44131  13.668   9.146   1.880  0.1826 -0.0658  0.0586
24598W        W44132  17.058   7.765   1.180 -0.0778  0.1708  0.3184
24599W        W44133  14.534  14.604  13.658  0.1169 -0.1069  0.0668
24600W        W44134  17.262  18.556   1.903 -0.0242 -0.2750 -0.0950
24601W        W44135   8.719  13.206   0.129  0.0038 -0.0520 -0.2699
24602W        W44136  13.273   1.043  11.847  0.0468 -0.0568 -0.3298
24603W        W44137   8.082  11.935   2.714  0.0720 -0.2026  0.1925
24604W        W44138   8.507   6.052   0.185 -0.2591 -0.1063  0.2203
24605W        W44139  16.337   8.365   4.966 -0.4209 -0.0234 -0.4321
24606W        W44140   4.282   4.645   1.076  0.4599  0.0026 -0.0246
24607W        W44141  18.291  10.959   0.141 -0.1707 -0.0206  0.2549
24608W        W44142  14.051   5.435  12.154 -0.0153 -0.0707 -0.0815
24609W        W44143  17.338  16.492   3.616 -0.0205  0.4014  0.1452
24610W        W44144   1.627   3.328   1.105 -0.2113 -0.0221 -0.4128
24611W        W44145  16.353  15.591  10.127  0.1526 -0.1261  0.2048
24612W        W44146   1.247  14.640  13.424  0.2552  0.0997 -0.1592
24613W        W44147  13.837  18.086   1.745  0.1997  0.0693  0.0445
24614W        W44148   0.383  15.090   2.019 -0.1065 -0.1812 -0.0956
24615W        W44149   6.625   3.760   2.881  0.0810 -0.3603  0.0355
24616W        W44150   3.082  15.784   3.988  0.3005 -0.3808  0.4257
24617W        W44151  18.094  15.053  11.925  0.2449  0.3036 -0.1461
24618W        W44152   8.381  13.923  13.313 -0.3023 -0.0120 -0.0538
24619W        W44153   9.018   4.723   2.782  0.2286 -0.2192 -0.3599
24620W        W44154   5.128  13.874  11.651 -0.0304  0.0469 -0.1591
24621W        W44155  17.191  13.201   2.306 -0.2432  0.0055 -0.1408
24622W        W44156  11.215  15.692   2.411 -0.1278  0.1197 -0.0190
24623W        W44157  10.368  17.424   9.994  0.1247 -0.1744  0.2089
24624W        W44158  10.458   6.366   0.659  0.1470  0.0416 -0.1266
24625W        W44159  13.721   8.821  11.303 -0.0147  0.3024  0.1631
24626W        W44160   0.659  11.441  11.311 -0.0731  0.1040  0.1151
24627W        W44161  13.774  10.038  11.395  0.1615  0.0068  0.2448
24628W        W44162  11.723   2.815  12.361 -0.2172  0.1103 -0.0086
24629W        W44163  11.379  17.634   5.365  0.1620 -0.3396  0.0325
24630W        W44164   5.541   7.890  11.729  0.0399  0.3256  0.0538
24631W        W44165  12.345   8.034   3.848 -0.1227  0.1151 -0.2522
24632W        W44166   7.239  15.353  11.663 -0.0757  0.0192  0.1093
24633W        W44167  12.032   8.000   2.154  0.0433 -0.1463  0.1336
24634W        W44168   4.654   7.752  13.889 -0.0182  0.0955 -0.0198
24635W        W44169   2.965  14.972  13.876  0.0308 -0.0260  0.2023
24636W        W44170  15.604  19.504  14.178 -0.1868  0.1081  0.0440
24637W        W44171  15.343   8.486  13.854  0.0030 -0.0820 -0.2847
24638W        W44172  17.087  17.190   2.314  0.0702  0.0337 -0.4301
24639W        W44173   1.019   7.316   4.647  0.0643  0.1475  0.3280
24640W        W44174  12.920   2.051  13.238  0.0493 -0.0465 -0.1377
24641W        W44175   6.250  17.860  11.743  0.2307  0.1376  0.0048
24642W        W44176  18.099  17.667   0.673 -0.5384 -0.1035  0.0666
24643W        W44177  12.601   1.778   2.810  0.0259 -0.1132 -0.1611
24644W        W44178  12.546  16.070  11.010  0.1497 -0.1464 -0.2153
24645W        W44179  13.563  18.359   2.748 -0.1026  0.0332 -0.0063
24646W        W44180  10.813  14.942   3.082 -0.1632 -0.1549 -0.3423
24647W        W44181   9.329  13.193   1.103  0.2295 -0.2082 -0.0536
24648W        W44182  17.042   4.257   4.427 -0.1002  0.1152 -0.2107
24649W        W44183  13.192   5.087   0.136 -0.1921 -0.2651 -0.1400
24650W        W44184   2.347   5.853  11.637  0.0141  0.3583 -0.0398
24651W        W44185   5.790  13.505   3.806 -0.1164 -0.2104  0.2570
24652W        W44186   6.916  13.270  11.177 -0.1141 -0.0393  0.0753
24653W        W44187   6.507  14.676   3.697  0.1828 -0.4155  0.2231
24654W        W44188  11.069  15.072   4.360 -0.1820 -0.2782  0.1922
24655W        W44189  11.133   2.417   3.522  0.0552  0.0361 -0.3631
24656W        W44190  14.702  15.142   0.023 -0.0275 -0.1308  0.1251
24657W        W44191   3.758  16.586  13.548  0.4173 -0.0408 -0.1122
24658W        W44192  17.245   8.834   2.588 -0.0240  0.2412  0.0429
24659W        W44193   6.788   8.419  12.686 -0.0798  0.2558 -0.1193
24660W        W44194  18.560  17.186   3.402 -0.1885  0.3487  0.2006
24661W        W44195   3.866   3.256  10.756  0.1613 -0.0299  0.1701
24662W        W44196   5.752   7.089  12.726  0.1694 -0.0699  0.0896
24663W        W44197  13.840   5.782  11.510  0.1211 -0.1193  0.0176
24664W        W44198  18.603   3.907  13.047 -0.1126  0.1716 -0.1599
24665W        W44199   0.749   2.983   0.479 -0.1773 -0.0117  0.1199
24666W        W44200  15.196   5.900   3.732  0.2080 -0.1150 -0.2286
24667W        W44201  19.478  12.183   1.922  0.0370  0.0896  0.1685
24668W        W44202   8.466   5.564  10.993  0.3747 -0.0426  0.2818
24669W        W44203   9.073  17.973   1.931  0.2891 -0.2217  0.1198
24670W        W44204   5.465  12.457   3.556 -0.2092 -0.0729 -0.0180
24671W        W44205   0.163  11.937  13.415 -0.0341 -0.0332 -0.1793
24672W        W44206   1.635   3.363  13.168 -0.0780  0.0301  0.3408
24673W        W44207   5.175  13.941  12.816  0.0387 -0.1764  0.3912
24674W        W44208  12.464   2.920  12.535 -0.0751 -0.0791 -0.0813
24675W        W44209   3.817   1.504  14.318 -0.1076 -0.0092 -0.0393
24676W        W44210  14.825  11.553   2.579 -0.2273  0.0122 -0.2526
24677W        W44211  19.366  14.648  13.763 -0.1399  0.4065 -0.1103
24678W        W44212   7.107  17.331  12.531 -0.2176  0.2327 -0.3007
24679W        W44213  13.327   2.240   1.038 -0.1681 -0.1006  0.2973
24680W        W44214   6.090   5.259   4.133  0.1895  0.0207 -0.1154
24681W        W44215   6.136  12.630   2.878 -0.3021  0.2713 -0.1615
24682W        W44216  16.602   0.469   2.253  0.0584  0.2624  0.0784
24683W        W44217   4.440  11.033  10.399 -0.1969  0.1043 -0.0968
24684W        W44218  16.810  18.592  11.333 -0.2632  0.2184 -0.1593
24685W        W44219   1.253   6.239   1.192  0.1491 -0.0323  0.1655
24686W        W44220   8.802   1.905  11.206  0.4160  0.2320 -0.0631
24687W        W44221   9.769   2.165   3.135 -0.1788  0.0599  0.1215
24688W        W44222  10.599  14.804  13.361 -0.1890 -0.0942  0.1419
24689W        W44223   2.256   8.683   0.503 -0.4721 -0.0036  0.2176
24690W        W44224   2.212   8.723  10.762 -0.1996  0.0068 -0.3358
24691W        W44225  17.503  18.592  13.939  0.0475  0.0303 -0.0282
24692W        W44226   3.355  18.846   3.901 -0.0380 -0.1047 -0.1921
24693W        W44227  14.808  17.379   2.955 -0.1477 -0.0592 -0.0715
24694W        W44228   8.917  18.517  10.262 -0.2756 -0.0994 -0.1245
24695W        W44229   0.399   6.747  12.036 -0.0608  0.2622  0.1320
24696W        W44230  13.352   8.061   3.453 -0.1096 -0.1652 -0.0659
24697W        W44231   3.869  18.632   0.295 -0.2076  0.0069  0.2558
24698W        W44232  18.643   1.504  14.305 -0.1150  0.2771  0.0901
24699W        W44233   4.094  10.421   1.214 -0.2728 -0.2355 -0.0856
24700W        W44234   3.669   7.993   1.555 -0.1201 -0.1728  0.2475
24701W        W44235  17.153   5.568  12.543 -0.0705  0.1810  0.0532
24702W        W44236  13.390  17.388  11.327  0.3487  0.0442 -0.0567
24703W        W44237   6.301  10.891   3.793  0.1077 -0.2973  0.2733
24704W        W44238  14.613   3.185   3.596 -0.1311 -0.2709  0.2894
24705W        W44239  10.752   1.506   9.312 -0.2078 -0.1810  0.1476
24706W        W44240   8.114  16.381   3.041 -0.0165  0.1810 -0.0562
24707W        W44241  17.704  18.113  12.193  0.3458  0.0758 -0.0423
24708W        W44242   6.218   5.540   4.531  0.4245 -0.3054 -0.0905
24709W        W44243  10.970  13.132  12.034  0.0372  0.1590 -0.0371
24710W        W44244  12.968   3.213  12.450 -0.0002 -0.3972 -0.1077
24711W        W44245   5.470  12.659  10.987 -0.0947  0.2111  0.1917
24712W        W44246   1.270  14.930  12.059 -0.3328  0.2234 -0.0191
24713W        W44247  13.856   0.525   9.448  0.3603 -0.1725  0.0169
24714W        W44248   9.137  16.980   2.314  0.2937 -0.1221  0.1091
24715W        W44249  12.080  13.329  13.771  0.2785 -0.0149  0.0190
24716W        W44250   2.158   2.495   2.714  0.1985 -0.1404  0.1446
24717W        W44251  12.744  15.623  11.204  0.0968 -0.6673  0.3101
24718W        W44252   5.941   4.979   3.535 -0.0656 -0.0186  0.1000
24719W        W44253   8.877  16.976  11.156 -0.0233  0.2496  0.1430
24720W        W44254  15.385  18.754  12.412  0.2951  0.0744 -0.0247
24721W        W44255   9.112  16.898   3.943  0.0921  0.1565 -0.2657
24722W        W44256   1.125  14.593   3.560  0.1943  0.1558 -0.0913
24723W        W44257   7.964   8.120  10.115  0.0248 -0.4259  0.1338
24724W        W44258  11.138  12.313   1.111 -0.0890 -0.1258 -0.0717
24725W        W44259  13.849  13.691  10.033  0.2470  0.2609  0.0590
24726W        W44260  11.571  13.359  11.269 -0.0609  0.0958 -0.0467
24727W        W44261   0.391   9.445  14.347 -0.0929 -0.3312 -0.4429
24728W        W44262   3.482  17.741  13.517  0.0495  0.0543 -0.1010
24729W        W44263  19.167   9.985  14.089  0.1277 -0.0220  0.0141
24730W        W44264  19.189  15.467  11.017 -0.0929  0.1446 -0.0923
24731W        W44265  12.050   6.923  10.689 -0.1582 -0.2548  0.3672
24732W        W44266  16.156   9.680  10.641 -0.0208  0.1091 -0.2916
24733W        W44267  12.043  12.511  12.517  0.0858  0.1015  0.2396
24734W        W44268   4.795   9.728   2.499  0.0041  0.1282 -0.1643
24735W        W44269   5.361   3.038   3.486 -0.0212  0.0534  0.0636
24736W        W44270   3.896   7.122  11.604  0.0125 -0.0035 -0.1838
24737W        W44271   2.320  11.532   1.474 -0.3587  0.0210  0.2147
24738W        W44272  10.668   4.093  13.143 -0.0151  0.0597 -0.1013
24739W        W44273  10.075  14.990   2.539 -0.2663 -0.0304  0.1723
24740W        W44274  11.426  12.160   2.848 -0.2033 -0.1370 -0.1270
24741W        W44275   9.660   4.915   1.204  0.0052 -0.0741 -0.0490
24742W        W44276  12.035   9.868   3.820 -0.3210  0.0653 -0.1588
24743W        W44277  17.682   0.541  11.434 -0.0143 -0.1393 -0.0426
24744W        W44278  15.205   8.181  13.396  0.0936 -0.0132 -0.0411
24745W        W44279   4.965  13.545  10.965  0.3907 -0.1747 -0.3195
24746W        W44280   0.671   5.355   2.295  0.2198  0.1163  0.1494
24747W        W44281   2.287  13.604   0.617 -0.1736  0.1328  0.1985
24748W        W44282  12.434   0.003  13.348  0.2940  0.0316 -0.0862
24749W        W44283  15.681   4.102   3.156  0.0619 -0.1653 -0.0599
24750W        W44284   1.180   3.604  11.669 -0.4019 -0.0737 -0.1979
24751W        W44285   3.923   4.654   2.137 -0.3968 -0.1495  0.1184
24752W        W44286   9.619   3.937   1.757  0.1270 -0.0549  0.3601
24753W        W44287  17.170  10.386  14.262  0.2788  0.1588 -0.3451
24754W        W44288   6.072  10.742  11.922  0.1399  0.0796 -0.0050
24755W        W44289   0.769   3.819   2.752 -0.1840  0.0863 -0.0740
24756W        W44290  17.904  13.530   3.626 -0.0973 -0.1998  0.1058
24757W        W44291   4.131   3.741  11.543 -0.1520  0.0744 -0.0501
24758W        W44292  16.900  11.207   4.744  0.1696  0.0939 -0.0829
24759W        W44293  14.176   0.096   2.566  0.1122 -0.1227 -0.0326
24760W        W44294  16.564  13.609   9.013  0.0228  0.4204 -0.1973
24761W        W44295  16.571  18.112  12.125 -0.1637 -0.0538  0.0228
24762W        W44296  15.848  14.093  14.019 -0.3176 -0.2115  0.4742
24763W        W44297   0.400   2.987  10.741  0.0159  0.0824  0.2308
24764W        W44298   9.957   8.522  12.166  0.2435 -0.0517  0.0542
24765W        W44299  12.145   3.337   3.890 -0.0231  0.0025 -0.0570
24766W        W44300  13.207   7.513  10.797  0.1716 -0.1339 -0.2121
24767W        W44301   3.613   1.597   1.050  0.1983  0.0763 -0.0940
24768W        W44302  11.508   4.282  13.797  0.0744  0.0395  0.0963
24769W        W44303   4.884  13.150   2.354  0.1633 -0.2708 -0.1758
24770W        W44304  13.957   9.571  10.398  0.2255  0.1151 -0.1523
24771W        W44305   6.467   5.340  10.300 -0.2138 -0.2004  0.1298
24772W        W44306  13.344   1.767  10.752  0.2277 -0.3721 -0.0385
24773W        W44307   2.099  17.971  13.278 -0.0829  0.2749 -0.0297
24774W        W44308   7.661  12.855   0.971 -0.1282 -0.1255  0.1737
24775W        W44309  15.650   0.386   1.403 -0.0221  0.1413  0.1449
24776W        W44310   7.278   8.456   4.771 -0.1148  0.1327  0.1806
24777W        W44311  18.008  17.737   3.290  0.1538 -0.0735 -0.1051
24778W        W44312  13.618  17.282   0.034 -0.2971  0.2153 -0.0351
24779W        W44313   2.641  12.290  13.855 -0.2008  0.0032  0.0117
24780W        W44314  17.752  15.852   9.625 -0.0243  0.1342 -0.1326
24781W        W44315   0.000   5.626  12.685 -0.0954 -0.0810 -0.0262
24782W        W44316   0.655  12.579  12.866 -0.0350  0.1179  0.3323
24783W        W44317   9.991  16.366   3.222  0.0264 -0.1756  0.2261
24784W        W44318   4.186   1.544  12.493 -0.2061  0.0808 -0.0134
24785W        W44319   0.331  14.586  13.739 -0.2709 -0.1196 -0.1423
24786W        W44320   0.019   9.194  12.674 -0.2223  0.0034  0.1215
24787W        W44321  16.442   5.025  11.443  0.1810 -0.1994  0.2279
24788W        W44322   2.619  15.408   3.635 -0.1463  0.1856 -0.3259
24789W        W44323   0.053  10.051   1.159  0.2263  0.2862  0.0844
24790W        W44324  14.702  18.752   1.089  0.0356  0.0107  0.0444
24791W        W44325  17.125   1.895   0.123  0.1197  0.2209  0.1516
24792W        W44326   4.866   2.883  14.252  0.0429 -0.3271  0.1471
24793W        W44327   8.512   4.002  12.076  0.1275  0.0943  0.0281
24794W        W44328   9.387   6.371   0.267 -0.0397 -0.1422  0.0658
24795W        W44329   4.187  12.497   0.702  0.3957 -0.0117 -0.0874
24796W        W44330   7.628  16.089  11.906 -0.0136  0.1137 -0.1036
24797W        W44331  14.329   4.183   0.704  0.1638 -0.1419 -0.0392
24798W        W44332  18.333   2.838   3.034  0.0972 -0.1162  0.4430
24799W        W44333   2.232  17.599  10.618  0.0545  0.2619  0.0549
24800W        W44334  19.002   2.046  12.380  0.3320 -0.0512  0.1600
24801W        W44335   7.630   2.558   1.125  0.1850  0.0613 -0.1373
24802W        W44336   1.555  15.816   0.734  0.0183 -0.0224  0.0841
24803W        W44337   6.461   4.880   1.277  0.1137  0.2493 -0.1627
24804W        W44338   3.947   5.745  11.363 -0.0506  0.0389  0.0094
24805W        W44339   6.051  10.432   3.812 -0.3825  0.2744  0.0115
24806W        W44340  18.640   3.313  11.885  0.2690 -0.2133 -0.0898
24807W        W44341  14.732   3.654  11.526 -0.3627  0.0084  0.3406
24808W        W44342   8.760   3.101  10.641 -0.2094 -0.0033  0.0170
24809W        W44343  14.381  18.385   2.314 -0.1992  0.0490 -0.1419
24810W        W44344   6.227  11.999   0.070 -0.0086 -0.2191  0.0849
24811W        W44345   9.815  10.481  11.454  0.5433  0.0101 -0.2126
24812W        W44346  13.809   4.479   5.003  0.0361 -0.1480 -0.0996
24813W        W44347   7.529  19.109  14.108 -0.0025  0.0462  0.2082
24814W        W44348   0.847  18.799  11.959 -0.1647 -0.1174  0.3174
24815W        W44349  10.765   8.755   4.705 -0.0812  0.0296  0.0698
24816W        W44350  13.620   0.331  10.688 -0.0364 -0.0211  0.2246
24817W        W44351   4.617   8.553   2.025 -0.2628 -0.2291  0.2437
24818W        W44352  15.491   9.943  11.872  0.0994 -0.0271  0.2431
24819W        W44353   7.381   3.785   0.581  0.0213 -0.0175 -0.0074
24820W        W44354   3.990  18.035   2.944  0.1507 -0.0592 -0.1634
24821W        W44355  14.343  13.964   3.939 -0.0302  0.0109  0.2886
24822W        W44356  11.151  14.464  11.610 -0.0678 -0.4283  0.1319
24823W        W44357  14.926   7.842   2.514 -0.1505 -0.1765  0.0010
24824W        W44358  16.953   6.609  10.459  0.1672  0.0561 -0.0212
24825W        W44359   5.391  17.354  13.977  0.0462  0.1884  0.0478
24826W        W44360  13.492  19.192   9.502 -0.0185 -0.1126 -0.1729
24827W        W44361   9.772  17.215   3.579 -0.0922  0.2109  0.2932
24828W        W44362   2.270   6.793  12.744  0.1477  0.2588 -0.0629
24829W        W44363  10.888   3.442   3.169  0.2980 -0.0991 -0.0913
24830W        W44364   5.019   1.865  11.498 -0.0004 -0.0620  0.0171
24831W        W44365   5.270   2.436   0.518 -0.1377 -0.3035  0.2252
24832W        W44366   3.537  10.278   2.342  0.1921 -0.1019  0.3122
24833W        W44367  10.834  12.784  11.703 -0.0502  0.3904 -0.2318
24834W        W44368   7.837   7.804  13.216  0.1782  0.0136  0.1524
24835W        W44369   5.709   6.162  14.273 -0.0348 -0.2166  0.0750
24836W        W44370  17.637   9.575  13.154 -0.1690 -0.2542  0.3134
24837W        W44371   6.493   8.111   3.608 -0.2427  0.0478 -0.1304
24838W        W44372  12.621   3.534  12.166 -0.1149  0.0635 -0.0974
24839W        W44373   5.833   1.639   4.007 -0.0496 -0.2438 -0.1638
24840W        W44374  13.841   0.028   3.630 -0.2416 -0.0365  0.0202
24841W        W44375   2.942   5.071   2.490 -0.2010  0.0163  0.1584
24842W        W44376   8.966  12.019   3.773  0.0984  0.0353  0.2274
24843W        W44377  17.368   5.694  11.495  0.0082 -0.1444 -0.1231
24844W        W44378   8.867  12.337  10.622  0.1195  0.0609  0.0123
24845W        W44379   1.575  10.893   0.361  0.0789 -0.0051  0.2748
24846W        W44380   7.830  11.309   3.429  0.0721  0.0195  0.0873
24847W        W44381   0.135  15.718  11.880  0.1624  0.2132 -0.1076
24848W        W44382  12.392  17.474   0.937  0.2237  0.0266  0.1559
24849W        W44383  15.158  14.127  11.518  0.2249  0.0968  0.1005
24850W        W44384  14.545  19.178   1.321  0.0724  0.0825 -0.1382
24851W        W44385   8.366  11.632   0.096  0.1279  0.0879  0.4153
24852W        W44386   7.213  12.205  13.620  0.3369 -0.4761 -0.0761
24853W        W44387  18.839  12.151  12.724  0.1631 -0.0847  0.4370
24854W        W44388  17.686   7.943   0.506 -0.0689 -0.0946 -0.4665
24855W        W44389   6.201   3.378  13.831 -0.1032  0.1967 -0.0170
24856W        W44390   1.536  15.945  11.507  0.0497  0.2497  0.1532
24857W        W44391  12.455  14.060   3.405  0.0996  0.0100  0.2449
24858W        W44392   3.688   6.449   2.982  0.1497  0.3124  0.2068
24859W        W44393   5.713  12.417  11.715 -0.5427  0.2595  0.0772
24860W        W44394  17.355  12.516   2.735  0.0902  0.2361  0.3318
24861W        W44395  18.397  19.033  10.320  0.0093  0.1543 -0.2142
24862W        W44396   3.601  18.624  13.655 -0.0409 -0.1166  0.0862
24863W        W44397   6.650  13.437  12.730 -0.2462 -0.2692  0.1439
24864W        W44398  13.786   9.094  12.036 -0.2113  0.1683 -0.0824
24865W        W44399   7.828   5.912  10.515  0.2476 -0.2861 -0.3177
24866W        W44400   7.552  15.650   1.671  0.5090  0.1053 -0.0150
24867W        W44401  13.982  13.240  12.779  0.0792 -0.0159 -0.1342
24868W        W44402   5.221   6.272   0.834  0.0507  0.4571 -0.1799
24869W        W44403  18.142   2.260  13.299  0.1903 -0.3093  0.2555
24870W        W44404   1.136   3.641   1.776  0.1053  0.1645 -0.0022
24871W        W44405   5.355  19.038  13.247  0.2282 -0.1004 -0.1833
24872W        W44406   8.663   0.457  10.935  0.1499  0.1921  0.1549
24873W        W44407   5.892   5.526   0.438  0.1983 -0.0522  0.1114
24874W        W44408   0.370   1.525  13.230  0.1411 -0.0737  0.1149
24875W        W44409  12.201  10.748  12.176  0.1175 -0.2303 -0.0359
24876W        W44410   7.823   3.046  12.709  0.1462 -0.0481 -0.1447
24877W        W44411  11.644   1.265  14.241 -0.0430 -0.1041  0.2223
24878W        W44412   7.320   6.631   4.546 -0.0940  0.2603  0.2590
24879W        W44413   0.815   4.754   0.125 -0.1694 -0.4217  0.1272
24880W        W44414  12.883   9.565   0.690  0.4215  0.1199 -0.1360
24881W        W44415   3.151  14.417   9.312  0.1470 -0.0552  0.0558
24882W        W44416   5.483   5.267   1.416 -0.1657  0.0406 -0.0785
24883W        W44417  18.224   0.715   1.140  0.0643  0.0178 -0.2817
24884W        W44418  17.271  17.477  11.682  0.0462 -0.2751 -0.1504
24885W        W44419   8.057  18.741  12.282 -0.0456 -0.0368  0.2700
24886W        W44420   6.876   5.157   1.446  0.1155 -0.1655  0.1056
24887W        W44421  10.599  10.879   3.530 -0.1236 -0.2317 -0.3218
24888W        W44422  15.426  14.373  11.182  0.0384  0.2799  0.3826
24889W        W44423   0.299   9.151  12.076 -0.2259 -0.0671  0.3418
24890W        W44424  14.836  10.880   4.869 -0.0677 -0.2676  0.0448
24891W        W44425  19.134   0.551  13.276  0.2140 -0.1664 -0.0091
24892W        W44426  16.601   5.539   2.238 -0.1125  0.3091 -0.0186
24893W        W44427   9.041   1.553   9.416  0.3445 -0.0974  0.1169
24894W        W44428  11.185  15.570   4.436  0.1257 -0.0852  0.0650
24895W        W44429   7.342   5.528   3.376 -0.3765 -0.0094  0.0120
24896W        W44430   4.976   9.163   2.850 -0.0799 -0.0353 -0.0960
24897W        W44431  18.058   4.362   2.717  0.0796  0.2228  0.4426
24898W        W44432  11.339   0.486  10.584  0.1437 -0.0181 -0.1246
24899W        W44433  13.655  11.591   2.786 -0.1770  0.0657 -0.0606
24900W        W44434   8.181  17.805  13.309  0.1145 -0.3060 -0.1357
24901W        W44435   6.080  12.654  10.071  0.2392  0.1605  0.0284
24902W        W44436   0.503  12.340   0.222 -0.0894 -0.0837  0.1330
24903W        W44437  11.863  11.372   2.493 -0.0637 -0.2880  0.2011
24904W        W44438  13.265  13.628   1.034 -0.1400  0.1372  0.0999
24905W        W44439   6.872  13.464  12.077  0.1302  0.1976 -0.0042
24906W        W44440  14.235  16.681   1.614 -0.0559  0.1001  0.2195
24907W        W44441  19.222  15.378   1.410 -0.1746 -0.1388 -0.0922
24908W        W44442  18.962  16.405   0.384  0.1672 -0.1216  0.0254
24909W        W44443  18.265   0.896   0.219 -0.0628  0.0988 -0.0927
24910W        W44444   8.305  11.589   1.004  0.2503  0.0500 -0.2704
24911W        W44445  16.818  13.388   2.605 -0.2979  0.1380  0.2187
24912W        W44446   7.793  15.254  12.881  0.0037  0.1405 -0.1583
24913W        W44447   4.425  14.513  12.341 -0.3787 -0.0525 -0.0420
24914W        W44448  10.316  15.367  11.720 -0.0377 -0.1023  0.1709
24915W        W44449  10.952   4.388  12.854 -0.0400  0.1256 -0.0787
24916W        W44450   5.025  14.395   0.235 -0.0768 -0.0790 -0.2489
24917W        W44451  15.543  13.469  12.299  0.2569  0.0542 -0.1171
24918W        W44452  11.159  10.058  13.287  0.0207 -0.2517 -0.0596
24919W        W44453   9.940  13.634  14.116  0.1502 -0.2222  0.0984
24920W        W44454  10.673   3.416   0.865  0.0221  0.0163 -0.1783
24921W        W44455  17.605   4.074   2.940 -0.0223 -0.1438  0.2799
24922W        W44456   3.592   8.305  12.980  0.4045  0.0332 -0.0210
24923W        W44457   9.393  15.767  10.868  0.2339 -0.4230  0.1166
24924W        W44458   1.955  17.314   1.558 -0.0698  0.1554 -0.0385
24925W        W44459   4.148  16.452   1.835 -0.0726 -0.3422  0.1795
24926W        W44460   6.088   2.396  12.377 -0.0328  0.1602  0.1528
24927W        W44461  16.997  14.958  12.372  0.4461  0.2825 -0.3696
24928W        W44462  18.216   6.327  11.929  0.1215 -0.0809  0.3137
24929W        W44463  17.858  16.581   4.622 -0.0953 -0.0266 -0.2940
24930W        W44464   3.388   6.797   9.374  0.2429 -0.3568 -0.1839
24931W        W44465   8.492   1.331   1.425 -0.0969  0.0290  0.0445
24932W        W44466   0.616   5.453  12.081  0.0921  0.0309  0.0596
24933W        W44467  17.424   7.394   3.726  0.0199  0.0089  0.1883
24934W        W44468  18.300   1.856  14.093  0.0239 -0.0865 -0.0583
24935W        W44469  15.087  10.610   3.090 -0.2197  0.2672  0.0107
24936W        W44470   8.490   2.690   2.784 -0.0974 -0.0313  0.2317
24937W        W44471   5.149   4.609  11.298  0.1130 -0.3726 -0.1468
24938W        W44472  11.850   0.151   3.634  0.1060 -0.1133  0.2698
24939W        W44473  19.281   9.845  12.087 -0.0256  0.0885  0.1773
24940W        W44474  10.085   3.740  11.414  0.2230 -0.1895 -0.0316
24941W        W44475   7.452   0.252   2.833 -0.1437  0.1165  0.1281
24942W        W44476   9.203  19.043   3.710 -0.1001 -0.0947  0.2452
24943W        W44477  10.481  11.074   1.864  0.2185 -0.0603  0.1961
24944W        W44478   4.762   4.197  11.212 -0.3227 -0.3225 -0.0479
24945W        W44479  14.341  14.256   0.976  0.1840 -0.3318  0.0923
24946W        W44480   8.618   0.009  10.987 -0.0795  0.2374  0.1114
24947W        W44481  13.644  13.057   2.208 -0.0222  0.3573 -0.2325
24948W        W44482  14.240  12.709   0.374  0.2210  0.2631  0.1496
24949W        W44483   4.539   0.786  10.900 -0.1465  0.0929 -0.2213
24950W        W44484   9.027   8.795   9.677 -0.2379  0.1834  0.2437
24951W        W44485   7.159  13.321   2.189 -0.0004  0.0885 -0.3481
24952W        W44486   5.055   0.067  10.753  0.0487 -0.0276  0.0953
24953W        W44487   4.069  14.681   1.515 -0.1042 -0.2831 -0.2726
24954W        W44488   3.041  15.746   0.588  0.0481 -0.1126 -0.0451
24955W        W44489   7.760  19.054   4.585 -0.1897 -0.0039  0.1394
24956W        W44490   1.964   0.221  11.461 -0.0666  0.2623 -0.0860
24957W        W44491   4.535   5.222  13.887  0.1953 -0.0079  0.3168
24958W        W44492   5.128   5.354   2.298  0.3646 -0.0013 -0.2582
24959W        W44493   2.414  15.088   1.049 -0.2973  0.4247  0.1305
24960W        W44494  19.371  16.215   3.948  0.1073  0.0469  0.0233
24961W        W44495  11.075  13.505  11.185 -0.0705  0.1231 -0.2464
24962W        W44496  14.277   5.827  10.024 -0.1818 -0.3159  0.2093
24963W        W44497  10.895  10.272   2.728  0.1704 -0.2127 -0.0630
24964W        W44498   6.991  15.365   3.779 -0.0257 -0.3286 -0.0276
24965W        W44499  16.626  14.404   1.859 -0.1090 -0.4873  0.0014
24966W        W44500   6.277  11.007   1.340 -0.1150  0.0834 -0.2243
24967W        W44501   8.833  10.690   1.482  0.2047 -0.3447 -0.1020
24968W        W44502   4.765   9.996  11.057 -0.1827  0.1051 -0.0948
24969W        W44503   0.722   1.181  11.465  0.0375 -0.4044  0.3167
24970W        W44504  14.871   5.825   1.890 -0.1872 -0.0871 -0.1572
24971W        W44505  10.502   3.845   1.719  0.0929  0.1256 -0.1195
24972W        W44506   1.342   2.800  14.135 -0.1562  0.1423 -0.1036
24973W        W44507  12.548   6.374  11.331 -0.0793  0.3456  0.1876
24974W        W44508   4.501  15.746  12.154 -0.0349  0.1600 -0.1940
24975W        W44509   7.397  16.115  12.505 -0.2092  0.4098  0.1729
24976W        W44510   2.189   7.015  10.546 -0.1472 -0.0430  0.0129
24977W        W44511  13.929   9.154  12.581  0.0120  0.0541 -0.2996
24978W        W44512  14.650   1.488  11.927 -0.0558  0.2725  0.1844
24979W        W44513  10.666   3.850   0.563 -0.0584 -0.1343 -0.1129
24980W        W44514  19.188   9.604  13.705  0.0227  0.1603  0.1801
24981W        W44515   6.710   2.144   3.232 -0.0930  0.4013  0.3929
24982W        W44516   4.293  14.971  12.454  0.2287  0.3367 -0.1073
24983W        W44517   2.861  13.513   0.553 -0.0971  0.0300  0.2468
24984W        W44518  13.628  13.181  13.608  0.2378 -0.2890  0.1024
24985W        W44519  18.098  17.612   1.491  0.0637 -0.1205  0.0871
24986W        W44520   1.074   6.158   2.311 -0.1024  0.2193 -0.3433
24987W        W44521  17.224  14.604   4.820  0.4699  0.0280 -0.0413
24988W        W44522  12.345   8.381   3.159 -0.2027 -0.1007 -0.0584
24989W        W44523   4.417   7.015  10.085  0.0155 -0.1317  0.3545
24990W        W44524   9.485  11.107  13.668 -0.0601  0.0301  0.1498
24991W        W44525  14.770  14.396   2.010  0.2674  0.2240  0.0166
24992W        W44526  14.941  14.816   0.318 -0.1041  0.3312  0.4383
24993W        W44527   9.582  15.514  13.449 -0.2918  0.0656 -0.1636
24994W        W44528   0.400   4.630   1.097  0.0595 -0.1222  0.5194
24995W        W44529   1.628  16.358   3.304 -0.0053 -0.0066  0.0492
24996W        W44530  16.880   9.611  11.385 -0.1393 -0.1577  0.0239
24997W        W44531  15.077   4.632  11.352 -0.1545  0.0784  0.0468
24998W        W44532  12.083  14.688  13.010 -0.3894 -0.2780  0.1119
24999W        W44533  15.518  11.954   0.709 -0.2045 -0.2572 -0.0239
25000W        W44534  18.360   4.505  14.204  0.2545  0.2264 -0.2623
25001W        W44535   6.664   9.794  10.977  0.6072  0.0500  0.0446
25002W        W44536  12.544  11.821   2.057  0.1594  0.2645 -0.0618
25003W        W44537  18.219  12.934   0.136 -0.1552 -0.0297 -0.1514
25004W        W44538   8.272  16.200  12.016 -0.0061  0.1139  0.0055
25005W        W44539   9.553  10.909   2.846 -0.0565  0.3288  0.0562
25006W        W44540   6.509  10.603   1.188 -0.2435  0.2459 -0.3282
25007W        W44541  15.402  13.873   3.549  0.0901 -0.1469 -0.0429
25008W        W44542  16.524   6.357   0.779  0.0023  0.0804 -0.3433
25009W        W44543  15.792  15.398   1.907 -0.0384 -0.5083  0.1088
25010W        W44544  14.568   6.707   0.680  0.1538 -0.1669 -0.5482
25011W        W44545   1.125   4.205   2.147  0.1096  0.1166 -0.3238
25012W        W44546   5.638  17.988   4.066 -0.1968 -0.0523 -0.0023
25013W        W44547   6.246   5.284  13.238  0.3200 -0.0450  0.0551
25014W        W44548   6.794   9.740   0.205 -0.0880 -0.2426  0.1343
25015W        W44549   7.782  15.974   1.173 -0.0167  0.0805 -0.1998
25016W        W44550   6.696   5.539   3.182 -0.1122  0.0587  0.3326
25017W        W44551  13.620   4.418  11.880 -0.1033  0.0411 -0.0115
25018W        W44552  10.303  15.387   0.871 -0.0843 -0.1724 -0.0363
25019W        W44553   1.712   7.546  11.374  0.1662  0.4259  0.0637
25020W        W44554  12.993   4.810   2.433 -0.0514 -0.0054  0.0197
25021W        W44555   7.825   6.583   9.809 -0.1575 -0.1698 -0.0251
25022W        W44556  17.964  14.422   2.298  0.0915 -0.2380 -0.0042
25023W        W44557  17.641  13.809  14.045 -0.1556  0.0416  0.0446
25024W        W44558  15.626   9.158  12.542 -0.2394  0.1006 -0.6097
25025W        W44559  18.362   5.274  12.576  0.0970 -0.1208  0.1203
25026W        W44560   9.214  11.130   0.989 -0.0748  0.1431 -0.1102
25027W        W44561   9.743  11.471   3.986 -0.1115 -0.0713  0.0829
25028W        W44562   3.184   9.372  11.307  0.0287 -0.1542 -0.0242
25029W        W44563   9.623  13.378   0.066 -0.0069  0.0884  0.1789
25030W        W44564  14.076  17.558   3.744 -0.0460  0.1308  0.1162
25031W        W44565  15.741  17.184   8.968  0.0407  0.1317 -0.0665
25032W        W44566  12.442  15.600  10.725  0.1600 -0.1667  0.2373
25033W        W44567  14.403  17.408   3.347 -0.2129  0.0290  0.1405
25034W        W44568  14.541   7.246   3.463 -0.0964  0.0921 -0.0238
25035W        W44569   8.073   4.051   3.358  0.1376 -0.1732 -0.0043
25036W        W44570  12.883   2.405   3.312 -0.4478 -0.1445 -0.2286
25037W        W44571   4.946  17.149  10.920  0.1110  0.3142  0.1971
25038W        W44572  11.445   1.393  11.023 -0.1172  0.1156  0.0476
25039W        W44573   6.054   7.929  12.480 -0.1074 -0.0537 -0.1117
25040W        W44574  19.126  13.614   3.464 -0.0313  0.1980  0.1289
25041W        W44575   1.258  13.811   2.938 -0.2924  0.0625 -0.3916
25042W        W44576   1.997  17.796   2.342  0.0939 -0.1305 -0.0266
25043W        W44577   4.607  15.708   9.762  0.0286 -0.1050  0.0489
25044W        W44578  14.554   3.304   0.536 -0.2204  0.0505 -0.3464
25045W        W44579   2.483  10.645   4.016 -0.0473  0.1450  0.2436
25046W        W44580   1.818  15.318   3.247  0.1594  0.1664  0.3303
25047W        W44581   3.166   6.094  10.301 -0.4450  0.2868  0.0554
25048W        W44582   8.000   5.842   3.977 -0.1064 -0.2354 -0.2111
25049W        W44583   6.431  14.779  11.416 -0.2615 -0.4131 -0.3686
25050W        W44584  13.237  11.923   2.787  0.0659 -0.0954 -0.2154
25051W        W44585   1.781   8.765   3.982 -0.0172 -0.0807  0.2146
25052W        W44586  16.787  10.422  12.149 -0.1684  0.2363  0.0317
25053W        W44587   8.614  14.646  14.052 -0.0854  0.1861  0.0092
25054W        W44588   1.430  19.286  12.517 -0.0790  0.0524  0.1652
25055W        W44589   5.546  10.001  13.773 -0.3026  0.0505  0.1763
25056W        W44590   9.612   2.442  11.970 -0.0883  0.1536 -0.1430
25057W        W44591   2.124  15.564   3.551  0.1080 -0.0220  0.0435
25058W        W44592  18.943  10.776   3.652 -0.1795  0.0201  0.1142
25059W        W44593   4.782  17.765   2.181 -0.2871  0.0897 -0.2465
25060W        W44594   3.739  18.233  13.362  0.0008 -0.1044 -0.1509
25061W        W44595   9.776  14.684   2.307  0.2477 -0.2705 -0.3783
25062W        W44596   8.726  13.949   0.328 -0.2173  0.0628 -0.0645
25063W        W44597   3.493   5.164   3.611 -0.2866  0.0731  0.2025
25064W        W44598   1.223  18.434   1.539  0.3041 -0.1466 -0.1852
25065W        W44599  13.046  10.082   0.871  0.1278  0.0789  0.0531
25066W        W44600   2.468  15.982  12.900  0.0510  0.3262 -0.1640
25067W        W44601   7.692  15.074   9.590  0.0874 -0.0738 -0.2212
25068W        W44602  12.316  11.978   2.548 -0.1569 -0.0077  0.0721
25069W        W44603   5.690   5.972   1.034  0.1339  0.0071 -0.3446
25070W        W44604   9.199   7.445   1.382 -0.1597 -0.0418 -0.0287
25071W        W44605  13.669   8.635   1.873  0.1414  0.2769 -0.1931
25072W        W44606   8.100  18.632   0.373  0.0556 -0.3078  0.1696
25073W        W44607  11.000   0.283  13.424  0.0018 -0.0525 -0.2719
25074W        W44608   3.596   5.534  13.346 -0.0633  0.1105  0.1942
25075W        W44609   0.677  17.511  13.640  0.0507 -0.0690 -0.1337
25076W        W44610   3.229   1.873   0.451  0.1981  0.0115 -0.0370
25077W        W44611  10.231  16.699   1.754 -0.1453  0.3497  0.0575
25078W        W44612  19.373  16.088  11.432  0.1599  0.1352 -0.1750
25079W        W44613   3.927   5.576   3.196 -0.3368  0.2958  0.0228
25080W        W44614   5.183  13.820  13.353  0.1086  0.2528  0.3517
25081W        W44615  12.099  16.276  10.198  0.2591  0.0367 -0.0130
25082W        W44616  16.368   7.732   0.071 -0.0430 -0.0220 -0.1599
25083W        W44617   9.734  17.151  12.859 -0.1013 -0.1126  0.2501
25084W        W44618  17.681  18.557  13.110 -0.0654  0.0366  0.1563
25085W        W44619  10.582   1.582  10.743 -0.0849 -0.1698  0.1807
25086W        W44620  16.366  18.573   3.460 -0.1364 -0.0886  0.0243
25087W        W44621   6.007   1.115   2.336  0.0058  0.0521 -0.2030
25088W        W44622  17.919   9.371   1.250  0.0031 -0.0657  0.0978
25089W        W44623   1.992   8.309   0.753  0.0811 -0.2292 -0.1467
25090W        W44624   6.808  12.881  10.471  0.0260  0.2091  0.1409
25091W        W44625   7.513  15.205  10.548  0.0757  0.1146  0.3230
25092W        W44626  15.985   2.757  11.993  0.0378  0.0403  0.0127
25093W        W44627  16.516   4.970   2.377 -0.1949 -0.0429  0.0273
25094W        W44628  17.036   7.302   2.142  0.0318 -0.1030  0.0059
25095W        W44629   0.487   8.601   4.060 -0.2982  0.1395 -0.0801
25096W        W44630   0.478  12.412   4.198 -0.1679 -0.2283  0.0226
25097W        W44631  10.601  12.364   3.329 -0.0394  0.0882  0.1752
25098W        W44632  10.338   7.488   0.778 -0.5202 -0.3323  0.3345
25099W        W44633   3.282  19.159   2.607 -0.1832  0.1703  0.0023
25100W        W44634   0.998   0.958   4.122  0.1079 -0.0447  0.1306
25101W        W44635  17.677  14.127   0.507 -0.0759 -0.1738 -0.1318
25102W        W44636  10.825   5.096   0.696 -0.1044 -0.1070 -0.2512
25103W        W44637  16.147  15.910   3.277 -0.5448  0.0277  0.3632
25104W        W44638   0.014  18.396   0.158  0.0756 -0.2148  0.1435
25105W        W44639   7.536  13.008   1.997  0.0964 -0.2151  0.3139
25106W        W44640   4.514   0.072   1.124  0.0120 -0.1887  0.0318
25107W        W44641  19.335  12.711  12.397 -0.1045 -0.0203 -0.1609
25108W        W44642  16.815   7.294   1.294  0.3130 -0.1585  0.0673
25109W        W44643  18.285  17.117   1.591 -0.2166 -0.2415 -0.1451
25110W        W44644   5.461  10.597  13.340 -0.1360  0.0056 -0.2090
25111W        W44645  13.107  14.795   4.396 -0.2001  0.0597 -0.0164
25112W        W44646   8.588  15.076   2.615 -0.1254  0.0331  0.0458
25113W        W44647   6.224  13.291  11.220 -0.0830 -0.2219 -0.1513
25114W        W44648   2.919   4.231  13.502  0.0889 -0.1000  0.1296
25115W        W44649   6.131   4.275   0.841 -0.1683  0.2809  0.0548
25116W        W44650   9.154   6.958   3.566 -0.1301 -0.3642 -0.0266
25117W        W44651   2.706   6.697  12.590  0.0762  0.0745 -0.0207
25118W        W44652  11.296  10.641   2.911 -0.1005  0.1284  0.1212
25119W        W44653   0.084   3.313   2.223 -0.0043  0.2308  0.1722
25120W        W44654   6.727   3.363   4.357 -0.2201 -0.3564 -0.1674
25121W        W44655   8.800  13.728  12.997 -0.0098 -0.5384  0.4251
25122W        W44656   5.930  12.119   1.652 -0.1738  0.1936  0.0044
25123W        W44657   9.145  16.296   0.521 -0.3946  0.2658  0.1114
25124W        W44658  16.474   5.552  11.282 -0.1468 -0.0689  0.1014
25125W        W44659  19.184  13.038   2.089 -0.0639  0.0033 -0.3386
25126W        W44660   0.848  13.697   2.432  0.2705 -0.3638 -0.1722
25127W        W44661  12.829   9.471   2.377  0.0507 -0.3242 -0.0454
25128W        W44662  14.224  10.790  11.161  0.1759 -0.2456 -0.1985
25129W        W44663  14.682  12.339   0.261  0.3854 -0.0158  0.1779
25130W        W44664   4.999  15.448   0.931  0.0459 -0.0511  0.0910
25131W        W44665   5.453  15.860  12.274  0.1266  0.0825 -0.1061
25132W        W44666  18.893   4.670   3.869  0.1754 -0.1224  0.2712
25133W        W44667   9.067   4.606   5.144  0.4657  0.0859  0.0729
25134W        W44668   4.483   1.508  12.936  0.1845 -0.3496  0.0697
25135W        W44669   9.366   7.929  13.277  0.2135 -0.0828  0.2908
25136W        W44670  15.827  13.245   2.855 -0.0177  0.1026 -0.1486
25137W        W44671  16.927   4.518   0.170 -0.4423 -0.0143  0.1393
25138W        W44672  18.226  15.773  13.981 -0.0181  0.1438 -0.0496
25139W        W44673   6.349   8.772  14.304  0.3303 -0.2829  0.0450
25140W        W44674   4.281  12.303  11.628  0.4917  0.3900 -0.0321
25141W        W44675   3.336  14.784  11.981 -0.0117  0.1088 -0.1293
25142W        W44676  10.669   4.613  11.484  0.1120 -0.0509 -0.2829
25143W        W44677   1.965   8.756  11.712 -0.1556  0.1281  0.0779
25144W        W44678   2.586  18.399  14.125  0.4381 -0.1696  0.0317
25145W        W44679  13.504   4.512   2.298  0.0976  0.1785 -0.0040
25146W        W44680   6.153   9.276  13.544  0.0457 -0.1588  0.1262
25147W        W44681  14.089   8.024   9.413 -0.1592 -0.0917 -0.0440
25148W        W44682  17.236  11.289   0.630  0.1682 -0.1126 -0.3384
25149W        W44683   9.752   4.064  13.335 -0.3769 -0.2581  0.1184
25150W        W44684  11.251   3.866   2.463  0.0379  0.0683  0.0159
25151W        W44685  17.207  15.025   3.349 -0.1071  0.0770 -0.2958
25152W        W44686   3.492  14.868   1.067 -0.2584  0.0089 -0.1165
25153W        W44687   1.857   8.218   3.810 -0.1980  0.3704 -0.1959
25154W        W44688   3.463   1.268   3.534 -0.0307  0.3660  0.0289
25155W        W44689  18.689   6.115  13.443  0.1191  0.0724  0.0311
25156W        W44690   9.924  16.587  10.993  0.1270 -0.2135  0.0795
25157W        W44691   9.363   5.685   3.528 -0.4124  0.2338  0.0533
25158W        W44692   1.563  11.004  11.939  0.0402  0.1638 -0.2242
25159W        W44693   3.253  15.217   2.291  0.0598  0.1067 -0.1960
25160W        W44694   3.232  15.300   0.653  0.1085 -0.1562 -0.0361
25161W        W44695   4.487   6.956  12.062 -0.2973 -0.2602  0.1249
25162W        W44696   0.357   7.813  13.007  0.0625 -0.3071  0.0254
25163W        W44697  16.202  15.080  11.263 -0.1073 -0.0263 -0.2786
25164W        W44698   8.223   2.450  14.203  0.0848 -0.0775  0.2138
25165W        W44699  15.975  15.211   3.205 -0.1156 -0.0842 -0.2994
25166W        W44700   1.823  12.576  10.806 -0.0776  0.5129  0.1825
25167W        W44701  10.377  11.599   5.331 -0.1830  0.1244  0.0493
25168W        W44702  17.661   1.034  11.516  0.2724 -0.1998 -0.2845
25169W        W44703   4.882   6.831  13.272  0.2116  0.2755  0.3631
25170W        W44704   3.708  16.062  12.264  0.3008 -0.2715 -0.0678
25171W        W44705  12.929  16.217  10.509  0.1454  0.0263  0.0803
25172W        W44706  17.742   7.539   3.298  0.1062 -0.0124 -0.2358
25173W        W44707  12.686   5.519   0.837 -0.0923 -0.4028 -0.3510
25174W        W44708   0.101  13.560  10.320 -0.0718  0.2800 -0.2556
25175W        W44709  16.543   3.513  12.841  0.2785 -0.1932 -0.0714
25176W        W44710  17.372  14.472  10.715  0.3270 -0.1257 -0.1525
25177W        W44711  10.304  11.361   9.845  0.0483 -0.2389 -0.0158
25178W        W44712   1.358   2.410   2.081  0.1352 -0.1670 -0.0870
25179W        W44713  10.583   8.554  11.037  0.0365  0.0903  0.3335
25180W        W44714   9.814  15.226   3.882 -0.1064 -0.2800  0.0115
25181W        W44715   2.839   2.520   2.426  0.0733 -0.0171  0.1866
25182W        W44716  11.101   4.652   4.220  0.0435  0.2164  0.0486
25183W        W44717  12.237  14.030   1.673 -0.1326 -0.1001 -0.1714
25184W        W44718   7.739   8.469   3.877  0.2727 -0.2011 -0.1260
25185W        W44719  12.331  14.661  10.815 -0.2652  0.1045  0.0842
25186W        W44720  17.491  14.155  12.364  0.0907 -0.0430  0.2445
25187W        W44721  12.949  17.682   0.311 -0.0186  0.0296  0.3365
25188W        W44722   7.102  16.715   3.944 -0.0266  0.1138 -0.0481
25189W        W44723   3.144   5.572  12.942 -0.3257 -0.1884 -0.1805
25190W        W44724   2.400  12.007   1.975 -0.0354 -0.1043  0.0472
25191W        W44725  14.240  10.362   2.810  0.0759  0.0570  0.2497
25192W        W44726   2.110   5.866  11.162 -0.1140  0.0258 -0.1706
25193W        W44727  10.114  12.583  11.213  0.0816 -0.0728 -0.2298
25194W        W44728   8.376   1.674  14.149 -0.2588  0.3328 -0.1482
25195W        W44729  13.819   7.041  11.119  0.1377  0.1635  0.0706
25196W        W44730   9.132   2.020   2.873  0.3842 -0.0012  0.0295
25197W        W44731  11.710  14.625  11.454 -0.2116 -0.0706  0.1544
25198W        W44732   4.018  17.280   4.293  0.1772  0.1132 -0.2329
25199W        W44733   0.867  13.964   1.037 -0.0820 -0.0171  0.2021
25200W        W44734   7.161   0.232  11.410  0.2505 -0.3022  0.1579
25201W        W44735  17.556   2.377   2.784 -0.0220  0.1847  0.0662
25202W        W44736   3.838  10.029   1.419  0.0153 -0.1481  0.2741
25203W        W44737  16.096   2.462   2.618  0.1597 -0.0122  0.2764
25204W        W44738  16.191   0.158  10.537  0.1605  0.0438  0.2609
25205W        W44739  11.062  14.475   3.641 -0.2255  0.0836  0.3747
25206W        W44740   1.300  15.525  14.237 -0.0935 -0.0494  0.0717
25207W        W44741  13.195   6.318  13.847  0.0427 -0.0261 -0.3460
25208W        W44742  19.386   5.346  13.703 -0.2279  0.0408  0.2038
25209W        W44743  13.526  16.636   9.961  0.2320  0.3982 -0.5597
25210W        W44744   8.601   3.907   3.307 -0.3204 -0.0161  0.0833
25211W        W44745   1.694   3.607   4.224  0.2399 -0.0273  0.4113
25212W        W44746  12.018  19.503   0.751 -0.2042 -0.0603  0.0690
25213W        W44747  13.219  18.227  13.057 -0.3057  0.1445 -0.5183
25214W        W44748   5.079  14.471  11.683  0.0371 -0.1937 -0.3149
25215W        W44749   8.899  14.452  10.571 -0.0260  0.0221  0.0923
25216W        W44750   1.336   9.442  11.700  0.0147 -0.0031  0.1190
25217W        W44751  12.850   7.810  10.941  0.0565 -0.2936  0.0459
25218W        W44752   6.732  13.946  11.995 -0.0133 -0.1157 -0.1809
25219W        W44753   5.573  13.407  10.671 -0.0189  0.0205 -0.0559
25220W        W44754   3.649  10.304  11.582 -0.0607  0.0592  0.1769
25221W        W44755   1.311  15.736  13.103 -0.2312  0.2912  0.0903
25222W        W44756  19.282  11.798   2.210 -0.1615  0.1489 -0.0510
25223W        W44757  15.464   1.742   4.105 -0.2671  0.2419 -0.2346
25224W        W44758   3.179   0.865   3.632  0.0912  0.1335  0.0695
25225W        W44759   7.825   7.383   0.111  0.2120  0.0790  0.0350
25226W        W44760   5.943  12.392  13.730  0.0749 -0.1953 -0.2305
25227W        W44761  15.320  16.694  11.785 -0.2528  0.2579 -0.3020
25228W        W44762  19.205   5.067  12.675 -0.1862  0.3331  0.1300
25229W        W44763  13.438   1.501   4.121 -0.0148  0.2254 -0.0212
25230W        W44764   1.635  11.057  10.494 -0.0763  0.0306  0.2568
25231W        W44765   7.796  15.426   0.347  0.3310  0.0527  0.1211
25232W        W44766  18.076   1.288  12.390 -0.0488 -0.2567 -0.0963
25233W        W44767   9.983   2.266  10.950 -0.0352  0.1808  0.1224
25234W        W44768  14.633  14.692   0.743  0.1435  0.0097  0.1314
25235W        W44769   1.749  16.654  11.408  0.3090 -0.1167 -0.2877
25236W        W44770   9.187  11.079   1.501  0.1643  0.2125  0.1319
25237W        W44771  16.807  14.699   3.360 -0.3432  0.0673 -0.1050
25238W        W44772  17.806   2.691  10.495 -0.1301 -0.0867  0.1385
25239W        W44773   3.549   7.941  11.406 -0.1785 -0.1525  0.0593
25240W        W44774   6.785  11.126  14.278  0.4013  0.0933 -0.2057
25241W        W44775   6.470  10.991   3.093  0.1548  0.2188 -0.2341
25242W        W44776   6.807   6.618  10.989  0.2356 -0.2599 -0.0184
25243W        W44777   6.714   3.463  11.733 -0.0417 -0.0610  0.1013
25244W        W44778  18.990   8.959   2.768 -0.0192 -0.2537  0.0745
25245W        W44779   1.005  18.718   0.033  0.2038  0.1829  0.1024
25246W        W44780   4.606  10.056  12.259 -0.0926 -0.0605 -0.0629
25247W        W44781  15.600  11.569   2.927  0.0363  0.1747  0.4182
25248W        W44782  13.884  17.821  11.903  0.2318  0.0060  0.1326
25249W        W44783  12.303   3.857   4.151 -0.0639 -0.0222  0.0237
25250W        W44784  14.721   6.848  12.235 -0.0029  0.1341 -0.0584
25251W        W44785   8.045   0.486   1.108 -0.1219  0.2721 -0.2190
25252W        W44786  14.359   4.737   2.453  0.2920 -0.0514 -0.0304
25253W        W44787   4.343   6.819   3.769 -0.1192 -0.1236 -0.3164
25254W        W44788  11.514   5.302   0.013  0.1233  0.2927 -0.0301
25255W        W44789  15.934  11.467  11.621 -0.1060  0.0329 -0.2214
25256W        W44790   0.872  12.394  10.932 -0.0200  0.1620  0.0439
25257W        W44791   5.410  11.035   1.485 -0.1591 -0.1362 -0.2248
25258W        W44792  17.769  13.203   0.107 -0.2758 -0.0578 -0.2158
25259W        W44793   9.661   7.345   3.338 -0.1043  0.2130 -0.0792
25260W        W44794  13.959  14.510  12.153  0.3700 -0.0244 -0.0177
25261W        W44795   6.236  15.431  11.288 -0.1908 -0.2011  0.3004
25262W        W44796   0.411  14.832   2.446  0.0707 -0.2348 -0.0337
25263W        W44797   0.169  13.821  14.255 -0.1242  0.1062 -0.0109
25264W        W44798  18.229  12.826   2.051 -0.2497 -0.0153  0.0715
25265W        W44799  17.090  19.215  12.749  0.0875  0.2181  0.2617
25266W        W44800   5.799   2.739   0.012 -0.2751  0.1292 -0.1936
25267W        W44801  15.797  18.486  13.226  0.3045  0.2281 -0.1432
25268W        W44802  10.486   7.570  10.371  0.0960 -0.0550 -0.3068
25269W        W44803   4.921   9.328   4.516 -0.1332 -0.2778 -0.1183
25270W        W44804   8.401   3.826  11.638  0.0874 -0.1463  0.0656
25271W        W44805   7.416  12.826   4.314  0.2715 -0.0920 -0.0342
25272W        W44806   2.141  16.849   0.937 -0.0314 -0.1450 -0.2749
25273W        W44807  10.642   6.228  12.320  0.0220  0.1528  0.0400
25274W        W44808  18.688  16.650   9.035  0.1373 -0.0080 -0.0841
25275W        W44809   4.588   3.917  12.090 -0.3581  0.0797  0.2222
25276W        W44810   4.187  19.089  13.831 -0.1307  0.2732 -0.2032
25277W        W44811   8.287  16.129   3.444  0.1270  0.0952 -0.1226
25278W        W44812  10.436  17.118   1.634 -0.0462 -0.0124  0.0958
25279W        W44813  10.246  10.865   0.251 -0.1505 -0.1127  0.0356
25280W        W44814   0.500  18.001  12.466 -0.0011 -0.3164  0.0182
25281W        W44815  19.523   8.493   3.924  0.1138  0.0084 -0.0000
25282W        W44816  18.324   0.434   2.636  0.2630  0.0102  0.0291
25283W        W44817   5.721   7.803  12.827  0.1512  0.2773  0.1547
25284W        W44818   5.701   4.590  14.239 -0.1183  0.5034 -0.2252
25285W        W44819  12.546   3.490  12.818 -0.6004  0.1459 -0.0320
25286W        W44820   5.375   4.721  13.382 -0.0756 -0.1492 -0.5003
25287W        W44821   5.826  13.073  13.542 -0.2224 -0.0039 -0.3333
25288W        W44822  11.858  10.845  13.546 -0.2731  0.2844 -0.0890
25289W        W44823   8.290   8.086  10.611  0.1127  0.0514  0.1211
25290W        W44824  12.609   3.703   0.560 -0.0648 -0.3295  0.0141
25291W        W44825   7.001   9.180  12.925 -0.2857 -0.1043 -0.2384
25292W        W44826   6.945  18.705   3.803 -0.0290  0.0327  0.0803
25293W        W44827   4.991   8.396  14.143 -0.0374 -0.1626  0.0495
25294W        W44828  13.889  14.040   2.255  0.3713 -0.3386 -0.1977
25295W        W44829   7.125  18.582   3.362 -0.1646  0.0551  0.0525
25296W        W44830   5.009   8.150   3.990 -0.1836  0.0344  0.0329
25297W        W44831  14.752  17.203  11.515 -0.0147  0.0816 -0.2195
25298W        W44832  14.273  17.281   4.133 -0.0538 -0.0205 -0.0625
25299W        W44833   2.596   3.632   0.826 -0.2912  0.2306 -0.2168
25300W        W44834  12.683  14.291  10.928  0.1885  0.1699  0.3466
25301W        W44835   8.309   3.844   3.721  0.3281 -0.1121 -0.1236
25302W        W44836   3.871   0.411  14.046 -0.0064  0.4673  0.1446
25303W        W44837  14.255  14.428   2.413 -0.1938  0.0390  0.1375
25304W        W44838  18.162  13.127  13.551  0.0000 -0.0540  0.3667
25305W        W44839  19.194   7.626  12.939 -0.4055 -0.1304 -0.2566
25306W        W44840   8.159   8.525   1.718  0.0722 -0.1877 -0.4256
25307W        W44841  19.156   4.614   3.134 -0.1361  0.0958  0.1733
25308W        W44842   8.838   7.245   1.078 -0.1487  0.0865 -0.0587
25309W        W44843  10.977   0.568   2.399 -0.1068  0.3243 -0.0480
25310W        W44844   2.861   1.403   5.414 -0.1056 -0.0919  0.0477
25311W        W44845  16.567  12.996   2.535  0.2534  0.4362 -0.1083
25312W        W44846   1.987  18.436   2.942  0.1553  0.1328  0.0901
25313W        W44847   4.991   3.532   4.218  0.0478  0.1011 -0.0488
25314W        W44848   7.400  19.155  12.059 -0.3801 -0.2866 -0.2480
25315W        W44849  11.587  17.733  13.792  0.0482  0.0148 -0.0128
25316W        W44850  13.647  16.590   3.687 -0.1367  0.0906  0.1857
25317W        W44851   1.687  15.372   9.533 -0.0393  0.1993 -0.0423
25318W        W44852  18.270  17.758  11.962 -0.1101 -0.3306 -0.0747
25319W        W44853  16.742   8.085   0.711  0.1527 -0.2797 -0.1045
25320W        W44854  18.993   9.133  12.572  0.2222  0.0417  0.0776
25321W        W44855   2.025  15.451   2.252 -0.0583  0.4060 -0.2700
25322W        W44856   7.197   1.943   3.303 -0.2486 -0.0458 -0.1399
25323W        W44857   8.342  16.553  13.668  0.1927  0.1439 -0.1232
25324W        W44858  12.948   6.471  13.093 -0.0778 -0.1554 -0.1796
25325W        W44859  19.307   1.728  11.508 -0.0640 -0.0974  0.0994
25326W        W44860  14.535  15.836  12.328  0.0878 -0.1995  0.0706
25327W        W44861   8.446   8.328  13.451  0.0804 -0.1176 -0.0428
25328W        W44862  10.866   7.011  12.506 -0.1284 -0.1557 -0.1079
25329W        W44863  12.299  18.550  11.711 -0.0016 -0.0962 -0.0727
25330W        W44864   7.578   0.675   1.170 -0.2146 -0.0682 -0.1298
25331W        W44865   3.020  12.375   2.254 -0.1059 -0.2307 -0.1917
25332W        W44866  15.717   6.082   3.728 -0.3466  0.1418 -0.0322
25333W        W44867  18.528  10.489  14.023 -0.1123 -0.2952  0.0090
25334W        W44868  15.415  16.042   3.514 -0.0757  0.0284  0.2537
25335W        W44869   3.023   1.820  11.183 -0.0071 -0.0120  0.2509
25336W        W44870  11.937   2.024  11.862  0.0460 -0.0629 -0.0764
25337W        W44871  17.265   0.266  13.995  0.4149  0.0120 -0.0143
25338W        W44872   3.814   2.261   3.854 -0.0665  0.2447  0.0186
25339W        W44873   3.615  16.545  12.433 -0.2008  0.2742 -0.4737
25340W        W44874   3.067   0.152  13.315  0.1486  0.2790  0.0731
25341W        W44875  15.030  18.050   1.020  0.2030 -0.4603 -0.0138
25342W        W44876  18.118   0.368   1.523 -0.0895  0.0413 -0.4127
25343W        W44877  16.635  12.724  11.940 -0.3307  0.1385 -0.3878
25344W        W44878  16.878   3.157  14.037 -0.2444  0.0462 -0.0992
25345W        W44879   2.083  16.390   2.565  0.0252  0.2076  0.3561
25346W        W44880   3.708  11.805  13.096  0.0706 -0.1627  0.0075
25347W        W44881   9.221   7.533   0.921  0.2763  0.0113  0.0990
25348W        W44882  14.323   3.132   1.429 -0.1882  0.0900 -0.2033
25349W        W44883   2.306   4.170   3.884  0.1057 -0.1362 -0.1025
25350W        W44884  10.602  16.581   2.101 -0.2286 -0.1312  0.1324
25351W        W44885   5.485   8.807   3.958  0.5562 -0.0547 -0.0429
25352W        W44886  14.197   5.418  13.836 -0.1033  0.2408  0.2528
25353W        W44887   8.638   0.966   0.481 -0.0272 -0.2623 -0.0918
25354W        W44888  18.515   8.809  10.416 -0.0582 -0.1591 -0.0468
25355W        W44889   7.317  15.673  10.482  0.0124 -0.1289  0.2205
25356W        W44890   3.708  15.631  13.320  0.0824  0.0392  0.1689
25357W        W44891   6.934   5.969  13.857  0.0713 -0.0607  0.1151
25358W        W44892   4.236  14.184   3.456 -0.1833  0.1120  0.1646
25359W        W44893   5.573   5.909  12.298 -0.0462  0.2739 -0.0067
25360W        W44894   2.635  15.971   4.270 -0.0161  0.0844  0.0308
25361W        W44895   6.187   7.444   1.319 -0.1510  0.3211 -0.1480
25362W        W44896  18.130  16.245  13.124  0.1189  0.0613  0.0154
25363W        W44897  17.919  17.659  12.440 -0.2067 -0.0864  0.1078
25364W        W44898   1.723  12.795   1.902 -0.0159 -0.2377  0.1058
25365W        W44899  14.970   5.543   3.483  0.1588 -0.0632 -0.1463
25366W        W44900  10.627  14.742   0.725 -0.2996 -0.3945 -0.1504
25367W        W44901  12.737  13.146   0.784 -0.2662  0.1463  0.3492
25368W        W44902  17.583  10.436   8.935 -0.0596  0.3008  0.0451
25369W        W44903   9.256  14.924  12.330  0.2568 -0.0057  0.1330
25370W        W44904   2.893  13.124  13.925  0.0550 -0.1918 -0.0148
25371W        W44905  17.131   8.145  10.232 -0.0846  0.0391 -0.1828
25372W        W44906  19.049   8.496   3.843  0.2706 -0.2297 -0.0737
25373W        W44907   4.295   0.739   2.357  0.2273  0.3828  0.2022
25374W        W44908  18.775  14.820  13.082 -0.0764  0.3581  0.0309
25375W        W44909  13.230  16.516  12.421  0.2133  0.1688  0.0571
25376W        W44910   2.302   1.696   9.068 -0.0040  0.1147 -0.0048
25377W        W44911  11.741  19.349  13.055 -0.3755  0.0395  0.1548
25378W        W44912   9.959   4.354   1.732 -0.1862  0.2895  0.0017
25379W        W44913  12.552   2.935   2.244 -0.2083 -0.1443  0.0586
25380W        W44914   8.897   7.908  12.440 -0.2869 -0.0735 -0.0172
25381W        W44915  14.711  11.836  12.664  0.0982  0.0058  0.0688
25382W        W44916   8.885  18.624  13.471 -0.0522  0.2892  0.0989
25383W        W44917   6.106  17.964   2.617  0.2182 -0.4815  0.0659
25384W        W44918   9.336  11.385   0.262 -0.2044  0.0796  0.0420
25385W        W44919  15.226   0.132   0.950  0.2064  0.0549  0.1562
25386W        W44920  11.069   7.573  12.389  0.0797 -0.2970  0.0350
25387W        W44921   5.443  16.625  12.325 -0.4646  0.1564  0.1266
25388W        W44922   9.336   9.621   2.455  0.2905 -0.0176  0.0179
25389W        W44923  14.139  11.450   1.304  0.0759 -0.2707  0.1631
25390W        W44924  11.077   4.790   3.331 -0.2278 -0.3443  0.1660
25391W        W44925  16.225  13.296  10.667  0.0721  0.0696  0.0742
25392W        W44926   3.351   4.636  10.434 -0.0371  0.1159 -0.1761
25393W        W44927   3.474  12.360   9.178  0.0367 -0.1168 -0.0490
25394W        W44928  18.529   5.455  13.552  0.3719 -0.0136 -0.3529
25395W        W44929  18.304   7.317   0.812  0.3800  0.3532  0.1876
25396W        W44930   3.366  12.965  13.683  0.1434 -0.2540 -0.0918
25397W        W44931   3.138   8.580   3.366  0.0252 -0.0378  0.1124
25398W        W44932  14.726   6.796  14.231 -0.1666 -0.3017  0.0285
25399W        W44933   5.642   2.762  10.635 -0.0839 -0.0982  0.2834
25400W        W44934  18.800  19.046   1.798 -0.1051  0.0393  0.1624
25401W        W44935  12.649   9.981   2.402  0.0390  0.3958  0.2408
25402W        W44936   3.301  16.059   2.276  0.1439 -0.0181 -0.0814
25403W        W44937   1.668  16.520  10.812 -0.0750 -0.2595 -0.0412
25404W        W44938  14.556  14.478   0.158 -0.5237  0.1869  0.0219
25405W        W44939   4.929   6.377  10.318  0.0090 -0.1550 -0.1442
25406W        W44940   2.174   0.912  13.979 -0.0603  0.1304 -0.0661
25407W        W44941   6.251   7.897   0.726  0.0588  0.0896 -0.2191
25408W        W44942   5.248  15.511   3.229  0.3171  0.0605 -0.3457
25409W        W44943   7.101  16.028  10.760  0.0660  0.0265 -0.2432
25410W        W44944  18.779  10.771  11.293 -0.2357  0.2555  0.0561
25411W        W44945  16.693  16.817   1.565  0.1168  0.0662  0.4430
25412W        W44946   5.205  18.823   0.824  0.0998 -0.0189  0.0991
25413W        W44947   1.197  12.871   0.370  0.0068 -0.1973  0.2567
25414W        W44948   6.711   8.438   1.646 -0.1019  0.0476 -0.0425
25415W        W44949   1.898  15.122  11.188 -0.1894  0.1224  0.1361
25416W        W44950   5.150   6.126  10.675  0.1860 -0.2426  0.0129
25417W        W44951  19.058  18.605   1.753 -0.0128 -0.0296  0.5151
25418W        W44952   4.794   5.504  11.723 -0.0822 -0.0389  0.1531
25419W        W44953  15.102   9.761   3.628 -0.1532  0.0071 -0.0553
25420W        W44954  16.453   8.304   3.578 -0.1840  0.1537  0.0495
25421W        W44955   5.658   0.703  13.155  0.0577  0.0899 -0.0799
25422W        W44956   9.903  18.726  10.566 -0.4007  0.1802 -0.0040
25423W        W44957  11.056   1.794  12.180  0.2884 -0.1527  0.2353
25424W        W44958   3.781   8.712  14.164 -0.0244  0.1579  0.1189
25425W        W44959   9.540  18.101   1.018 -0.0944  0.0339 -0.1619
25426W        W44960  17.882   2.240   1.800  0.4712  0.1302  0.0788
25427W        W44961  18.619  18.901  12.882 -0.0747  0.1156  0.3261
25428W        W44962  16.875  14.749   0.957 -0.1521  0.1707 -0.2190
25429W        W44963   0.513  13.419  11.395 -0.0063 -0.2789  0.1562
25430W        W44964  14.547  14.918  10.196  0.0698 -0.0917 -0.0379
25431W        W44965   7.507   5.622  10.834 -0.2700  0.0234 -0.1790
25432W        W44966  14.406   8.929  14.132 -0.0722  0.2627  0.1043
25433W        W44967   0.926   3.670  14.025  0.0585  0.1759  0.0046
25434W        W44968   1.143   9.045   4.676  0.2129  0.2358 -0.1055
25435W        W44969  14.750   6.138   0.505  0.1194 -0.0930  0.0077
25436W        W44970   1.610  13.154  13.375 -0.0594 -0.0292  0.1876
25437W        W44971   3.408   1.336   3.014  0.2226 -0.1739  0.2337
25438W        W44972  15.026   8.704   2.647 -0.1794  0.1958 -0.0028
25439W        W44973   6.345   3.559   1.593  0.0564 -0.0552 -0.2327
25440W        W44974   1.841  16.957   2.699  0.1224 -0.0190 -0.2648
25441W        W44975   2.673  19.061   1.256  0.1514  0.0961  0.2231
25442W        W44976   7.898  19.231  12.307 -0.0382  0.2602 -0.0837
25443W        W44977   4.391   6.673   0.865 -0.0502 -0.1782 -0.4232
25444W        W44978   6.664   6.496  11.740 -0.2288 -0.0193  0.0804
25445W        W44979   5.118  18.429   1.949  0.0685  0.0021 -0.0532
25446W        W44980  17.096   8.646  13.750 -0.0693  0.1568  0.1471
25447W        W44981  12.015  17.628   3.793  0.0328  0.1292  0.1303
25448W        W44982   7.808  14.845   0.360 -0.2097 -0.1534  0.4284
25449W        W44983  18.336  19.155   2.116 -0.3707  0.2580 -0.1075
25450W        W44984  11.533   9.275  11.799 -0.1443 -0.1827  0.0102
25451W        W44985  19.121  16.038  13.600 -0.2690  0.1152 -0.2140
25452W        W44986   3.710  10.656  11.967  0.1033  0.1322  0.1954
25453W        W44987   9.664   1.314  10.886  0.2262 -0.0635  0.3212
25454W        W44988  13.407  13.983   0.596 -0.1682  0.2032 -0.1489
25455W        W44989  19.240   1.942  11.974 -0.0923 -0.4365 -0.3566
25456W        W44990   9.454   0.968   0.966 -0.1135  0.0359  0.1055
25457W        W44991  13.350   3.863  13.216  0.0994 -0.1407 -0.1588
25458W        W44992  19.334   8.995  13.502  0.0204  0.1283  0.1133
25459W        W44993  18.757   7.120  13.449  0.1265 -0.0566 -0.0451
25460W        W44994  10.633   3.486   3.632 -0.2272 -0.1484  0.0959
25461W        W44995  17.787   5.311   1.981 -0.2154  0.4344 -0.0148
25462W        W44996  12.826  15.170   0.353 -0.1917  0.1189  0.0512
25463W        W44997  14.556   8.944   3.017  0.0108  0.0744  0.3204
25464W        W44998  18.691   2.321  13.420  0.1136 -0.0785  0.1808
25465W        W44999  11.020   2.604   1.039 -0.0557 -0.1476  0.3828
25466W        W45000   0.128  10.567   2.616  0.6187 -0.2531  0.1052
25467W        W45001   8.517   0.896   1.039  0.1436 -0.0101  0.0405
25468W        W45002  13.060   4.144   4.538 -0.0411 -0.1573 -0.0366
25469W        W45003  18.389   4.013   0.062  0.0669 -0.1250 -0.1138
25470W        W45004   6.300   1.099  13.927 -0.1590 -0.1122  0.2191
25471W        W45005  17.282  19.533  13.502 -0.3560  0.3251 -0.3309
25472W        W45006  12.285  12.049  13.930  0.3198  0.0297  0.0061
25473W        W45007   0.533  14.289   1.165  0.3170  0.0074 -0.0589
25474W        W45008   3.632   6.690  12.205  0.2219 -0.2871 -0.2041
25475W        W45009  14.758  12.196  10.254  0.2627 -0.0611  0.0966
25476W        W45010   0.370   2.808  13.951  0.1800  0.3152 -0.2058
25477W        W45011  12.022  11.152  13.165 -0.1720 -0.1363 -0.0021
25478W        W45012  18.439   8.264   1.665  0.0419 -0.3148 -0.0933
25479W        W45013  12.973   0.268   4.527 -0.2101 -0.2004 -0.1194
25480W        W45014   2.671   9.336   1.510  0.4126  0.1376  0.1511
25481W        W45015  14.690  11.963   9.374 -0.0229 -0.1065  0.1267
25482W        W45016   5.634   6.691   3.273  0.1716 -0.0130 -0.1083
25483W        W45017  10.542   6.385   1.713 -0.0147 -0.0423 -0.2321
25484W        W45018   0.129   6.654   3.575  0.0936  0.1746 -0.3044
25485W        W45019   9.717   6.858   1.423 -0.1951 -0.0988  0.1890
25486W        W45020   1.988   2.986   3.599  0.0310 -0.0211  0.3898
25487W        W45021  15.216  13.523  13.436  0.1019  0.0750  0.1227
25488W        W45022  16.404  12.673  12.760  0.2324  0.2220  0.0376
25489W        W45023   7.778  11.617   0.830  0.0218  0.0409 -0.0701
25490W        W45024   4.349  14.559   1.977 -0.0098  0.0085  0.0637
25491W        W45025  16.585   0.330  10.782 -0.1835 -0.0081  0.3109
25492W        W45026   5.409  15.701  13.301 -0.0646  0.0800 -0.1000
25493W        W45027  18.720   6.948   0.826 -0.1821  0.0114  0.1284
25494W        W45028  15.176   4.816  10.159 -0.1470  0.2406  0.0157
25495W        W45029  16.790   2.924   4.859  0.0910 -0.1469 -0.2419
25496W        W45030  12.586   5.300  13.250 -0.0091 -0.0276 -0.1196
25497W        W45031   7.729   7.688   2.797  0.1569  0.0660 -0.2493
25498W        W45032   5.100  17.431  12.332 -0.3441  0.1123  0.1439
25499W        W45033  12.639  15.217  13.389 -0.0988  0.2239  0.0809
25500W        W45034  15.188   0.080   1.477 -0.0766 -0.2185 -0.1449
25501W        W45035   5.655  17.937   2.340  0.0468 -0.0383  0.3002
25502W        W45036   5.596  17.032  14.319  0.1226 -0.0496 -0.3992
25503W        W45037  14.181  17.889   2.077 -0.2737  0.2550 -0.1956
25504W        W45038   8.071  13.762  14.169  0.1523 -0.0666 -0.1777
25505W        W45039   1.513  14.337   1.883 -0.2318  0.0587 -0.2633
25506W        W45040   6.016   4.700   3.976  0.1184  0.1340 -0.1879
25507W        W45041   3.634  16.378   4.381 -0.1249  0.1014 -0.1367
25508W        W45042   6.487   8.501  10.705  0.1089  0.0545 -0.2209
25509W        W45043   5.779  10.348   2.591 -0.0245  0.0360 -0.0206
25510W        W45044  13.301  12.743  11.992  0.5896  0.3250 -0.2382
25511W        W45045   1.177  13.241  10.328 -0.1740 -0.2083 -0.2064
25512W        W45046  16.564  15.493   2.482  0.0135  0.3320 -0.1768
25513W        W45047   8.540  17.133  11.484 -0.1663  0.1080  0.1993
25514W        W45048   5.182   8.725   4.406  0.0659  0.0752 -0.1895
25515W        W45049   8.851  14.111  11.350  0.4810 -0.3833  0.2697
25516W        W45050   6.041   7.439  13.797  0.2424  0.4368 -0.0651
25517W        W45051   3.129  17.587   1.014  0.0060 -0.0376  0.2970
25518W        W45052  15.815   4.333   2.357 -0.1762 -0.0659  0.1066
25519W        W45053   1.361  15.016   2.134  0.4433 -0.0772 -0.0341
25520W        W45054   0.836  14.210   2.995  0.0153 -0.1945 -0.1279
25521W        W45055   7.148   6.077   0.990 -0.2191 -0.0659  0.1078
25522W        W45056  19.067  16.753   2.828 -0.1956  0.0694 -0.0145
25523W        W45057  12.656   2.923  14.240 -0.0095 -0.1151 -0.1608
25524W        W45058   1.423   9.788   0.177  0.1035 -0.3181 -0.2409
25525W        W45059   2.311  18.968  13.895  0.0200  0.0776 -0.1044
25526W        W45060   6.530   2.199  13.124  0.1435 -0.0100  0.1935
25527W        W45061  13.890   8.568   0.706 -0.0453  0.0918 -0.1809
25528W        W45062   6.058   4.228  13.334 -0.1022  0.0300  0.1388
25529W        W45063  14.994   3.243  11.763 -0.1257  0.1014  0.0451
25530W        W45064  12.484  16.126  10.465  0.2037  0.1854  0.1108
25531W        W45065  19.421   7.720   1.177 -0.0689  0.0572 -0.1937
25532W        W45066  15.329   2.181   4.679 -0.1985  0.0958 -0.0733
25533W        W45067  18.644   7.419  12.932 -0.1039 -0.2437  0.0669
25534W        W45068   1.470   8.858  11.204 -0.1276 -0.0421 -0.1447
25535W        W45069  18.158   1.277   1.479 -0.3103 -0.1102 -0.1030
25536W        W45070   5.324   8.952   1.365 -0.0506 -0.1597 -0.2424
25537W        W45071  16.637  15.155   3.168 -0.2869 -0.1249  0.0070
25538W        W45072  17.160  11.397   1.520 -0.1655 -0.1498  0.2220
25539W        W45073   2.295   1.068  12.888  0.0179  0.0463 -0.2603
25540W        W45074   7.202   8.651   2.094 -0.2887 -0.1802  0.2270
25541W        W45075  10.394  15.791  13.491 -0.2677 -0.2810  0.0558
25542W        W45076  11.955  13.155  10.943  0.0228  0.0231 -0.1400
25543W        W45077   1.010   7.020   1.842  0.3297  0.1260 -0.3205
25544W        W45078   5.761  13.101   3.397 -0.0578  0.0637 -0.5797
25545W        W45079   6.551  15.596   3.525 -0.0032 -0.3671 -0.0338
25546W        W45080   7.294   1.779  13.231  0.2172  0.3591 -0.1658
25547W        W45081  15.815   5.628  11.734  0.0090 -0.1305 -0.2950
25548W        W45082  14.541  10.592   2.473 -0.0387  0.0364  0.2326
25549W        W45083  11.849   4.533   2.192  0.1353 -0.0797 -0.0685
25550W        W45084  16.616  19.328   2.792  0.0812 -0.3714 -0.0296
25551W        W45085  19.201  10.842   2.372 -0.1213  0.0287  0.2246
25552W        W45086   6.368  11.991  12.860 -0.0619  0.0270  0.0560
25553W        W45087   8.833   2.459   9.759  0.0828 -0.1371 -0.0257
25554W        W45088  15.469   2.687  12.806  0.2480  0.2467  0.2419
25555W        W45089  15.521   7.635  11.012 -0.0378  0.1903 -0.0227
25556W        W45090  19.221   9.090  11.234  0.1245  0.3706  0.4384
25557W        W45091   4.917   8.013  12.304 -0.1114  0.1363 -0.2711
25558W        W45092  19.146  19.030  13.168 -0.0876 -0.3016  0.4219
25559W        W45093   5.832   8.323   1.350  0.2783 -0.1451  0.1558
25560W        W45094  10.987   2.626  11.183 -0.2723  0.0527 -0.2077
25561W        W45095  12.142  11.030   3.356 -0.1440  0.4808  0.0819
25562W        W45096  15.615   4.523  12.563 -0.0664 -0.1135 -0.1420
25563W        W45097   0.714  14.268   3.494  0.0233  0.1241 -0.0064
25564W        W45098   7.678  11.980  12.500  0.0193  0.1435  0.1011
25565W        W45099   9.549  12.106  11.816 -0.1609 -0.2223 -0.0366
25566W        W45100   4.404  10.071   2.679  0.0278  0.2074  0.0236
25567W        W45101   9.047   8.193   2.109  0.0373 -0.2816 -0.1419
25568W        W45102   2.969  14.646  11.666 -0.1304  0.0308 -0.0029
25569W        W45103   3.340   9.094   2.719  0.0947 -0.0533  0.1022
25570W        W45104  14.986   5.254  12.432  0.0356 -0.0041 -0.1426
25571W        W45105  13.987   0.033  10.367  0.1291  0.0338 -0.1044
25572W        W45106  12.073  17.181   2.939  0.4555 -0.2388  0.0439
25573W        W45107   9.177   6.556   3.914  0.1219 -0.6057  0.0888
25574W        W45108  15.732   0.143  12.107  0.0465 -0.0161  0.0406
25575W        W45109  11.047   1.869  14.267 -0.2070 -0.0744  0.0486
25576W        W45110   7.964   6.161   3.181  0.0539 -0.2103 -0.2851
25577W        W45111   8.814  13.248  12.270  0.1496 -0.1004  0.0500
25578W        W45112  18.750  19.280  13.381  0.1761 -0.0937 -0.2397
25579W        W45113   6.905   9.505   2.583 -0.1243 -0.2854 -0.2020
25580W        W45114   9.084   8.684   3.499 -0.0243  0.1992 -0.0603
25581W        W45115   7.460   8.941  11.619 -0.1124 -0.3247 -0.1489
25582W        W45116   9.960   2.735   0.054  0.1468 -0.0696  0.1265
25583W        W45117   0.557   4.895   2.454 -0.1446 -0.3442 -0.0944
25584W        W45118   5.608  18.650   1.544 -0.1033 -0.2193  0.0264
25585W        W45119  11.485   8.544   0.385 -0.1840  0.1160  0.0093
25586W        W45120   3.322   5.533  13.905  0.0895  0.0539 -0.1668
25587W        W45121  10.526  15.577  12.361 -0.1666 -0.0107  0.1899
25588W        W45122   8.477   1.200  13.950 -0.1650 -0.2655 -0.1307
25589W        W45123   1.341  11.883   0.282 -0.1373 -0.5047 -0.2331
25590W        W45124  16.291   4.044   3.877 -0.0839 -0.2849 -0.2173
25591W        W45125  18.960  17.379  11.067  0.1349 -0.0910 -0.6296
25592W        W45126  14.161   4.986  12.479  0.5675 -0.0976  0.3331
25593W        W45127  13.453   7.499   1.688  0.0455  0.5294 -0.3217
25594W        W45128  16.257  17.417  12.599  0.5358  0.0269  0.2954
25595W        W45129   2.558  10.716  14.097  0.2937 -0.0546 -0.0383
25596W        W45130   1.958   4.021   4.448  0.2973 -0.2706 -0.2778
25597W        W45131   3.006   7.734   2.736  0.5088  0.0228  0.0085
25598W        W45132   6.598  15.603   2.583 -0.1432 -0.3147  0.1465
25599W        W45133   2.340  14.009   3.096 -0.1645 -0.2800  0.2797
25600W        W45134   2.889  16.244   2.045 -0.0045  0.3045  0.3939
25601W        W45135   4.194  10.382  12.191  0.0632 -0.0220  0.2902
25602W        W45136  13.973  17.062  13.091  0.0300 -0.1511 -0.2506
25603W        W45137   5.683  17.101  13.532  0.1422 -0.0557 -0.0665
25604W        W45138  15.187   8.749  13.392  0.0926 -0.1272  0.0194
25605W        W45139  15.032   3.253  11.170  0.0062 -0.1530 -0.1603
25606W        W45140   7.745  15.091  13.318 -0.0572  0.1691  0.2278
25607W        W45141   5.318  17.792   0.982 -0.0006  0.0630 -0.2101
25608W        W45142   8.024   9.161   3.211  0.0198  0.1371 -0.3149
25609W        W45143   3.023  11.930  11.854  0.0177 -0.3073 -0.4188
25610W        W45144   3.895  17.683  11.619  0.1867  0.0072  0.0770
25611W        W45145  11.766  12.208   1.779  0.2037  0.1003 -0.0046
25612W        W45146  12.839   8.340   1.404  0.3835  0.1056 -0.1627
25613W        W45147   1.704  12.730  14.297 -0.0539  0.3741 -0.2796
25614W        W45148  12.015  17.928  14.089 -0.2868 -0.2905  0.2432
25615W        W45149   0.156  13.801  12.768 -0.2439  0.1642 -0.1097
25616W        W45150  10.969   0.846   1.098  0.1069 -0.4259  0.1522
25617W        W45151  15.683  11.458   0.061 -0.0206  0.0957 -0.0726
25618W        W45152   4.859  17.239   2.631  0.2418  0.0798 -0.2443
25619W        W45153   2.694  16.214   9.018 -0.2940 -0.0500 -0.0045
25620W        W45154   6.652   3.245   1.836 -0.2179  0.0559 -0.2254
25621W        W45155  13.802   6.089   1.994 -0.0942  0.0828 -0.0098
25622W        W45156  13.449  10.497   2.321 -0.1804 -0.1886  0.1636
25623W        W45157   7.265   5.188   3.760 -0.0376  0.2370 -0.2618
25624W        W45158   9.046  10.791  12.212  0.4041  0.0679 -0.1801
25625W        W45159  15.315  17.347   1.900  0.0365 -0.4185 -0.0627
25626W        W45160  16.443  16.486  13.584 -0.0587  0.1421 -0.2850
25627W        W45161   6.979   6.943   3.863  0.0716 -0.1316  0.0444
25628W        W45162  17.900  12.043   2.777 -0.1781 -0.0000 -0.4114
25629W        W45163   8.590  10.989   2.333 -0.3411  0.2566  0.1899
25630W        W45164  12.114  15.077  10.474  0.2650 -0.0388  0.1948
25631W        W45165   7.285   6.494   0.164  0.1710  0.2033 -0.1211
25632W        W45166  18.463  14.152   2.255  0.1615 -0.0185  0.2478
25633W        W45167  14.818   0.530   0.144  0.0791 -0.0576 -0.4207
25634W        W45168   3.858   4.182   2.692  0.0663  0.0621 -0.1424
25635W        W45169  12.882   7.584   2.372  0.1177 -0.0074  0.1432
25636W        W45170  14.686   0.471   2.498 -0.2210 -0.2618  0.0388
25637W        W45171   4.076   3.672   2.543 -0.2280 -0.0137 -0.0829
25638W        W45172  11.974  14.426   1.733 -0.1052 -0.3954  0.0716
25639W        W45173  11.008   3.642   0.231  0.2297  0.1460 -0.1582
25640W        W45174  11.214   1.178   1.460 -0.1250 -0.4042  0.1072
25641W        W45175   5.668   2.724  13.520  0.1426  0.0275 -0.1833
25642W        W45176   6.196   8.905  12.847 -0.1381  0.1167 -0.0449
25643W        W45177  13.926   4.267  10.380  0.1507 -0.0047 -0.0349
25644W        W45178  15.457   9.034  11.678  0.1349  0.0607 -0.0824
25645W        W45179  15.791   4.666   0.885 -0.1784  0.2571 -0.0275
25646W        W45180   3.136  17.897   0.071  0.0582  0.3638  0.3796
25647W        W45181   4.467  14.553  12.840 -0.1910  0.3083 -0.2252
25648W        W45182   9.851  15.910  10.857 -0.0724 -0.5314 -0.0106
25649W        W45183   5.430  18.047   0.177 -0.1447  0.0065  0.0053
25650W        W45184  13.668  13.467  10.959  0.0728 -0.0930  0.2495
25651W        W45185   6.988  17.236  13.149  0.0594 -0.1817 -0.1792
25652W        W45186  13.765  19.426   9.910 -0.3250  0.1938  0.1983
25653W        W45187  17.131  15.724   1.662  0.2293  0.3044  0.0721
25654W        W45188   5.547   5.693   0.124 -0.2288  0.1002  0.3130
25655W        W45189  13.115  12.945   0.404  0.0184  0.0613 -0.0089
25656W        W45190   9.796  18.732   0.156 -0.2386  0.1384 -0.0933
25657W        W45191  15.157   8.449  12.381 -0.1081  0.0892 -0.0230
25658W        W45192   8.822  15.572  11.671  0.2823 -0.2418  0.2090
25659W        W45193  19.411  19.495  13.103  0.0720  0.2517 -0.2533
25660W        W45194  15.244  15.992  10.853 -0.1803 -0.0894 -0.2826
25661W        W45195   6.497   6.115  12.053  0.2521  0.1281  0.0081
25662W        W45196   2.179  12.055   1.485 -0.0314 -0.0055 -0.2960
25663W        W45197  15.985   1.340  10.891  0.1272 -0.1991 -0.0946
25664W        W45198  15.595  14.642   1.968 -0.2190  0.0907  0.0644
25665W        W45199  16.219  18.608  12.450  0.0119  0.1469  0.3108
25666W        W45200  13.780  18.799  11.521 -0.1408 -0.1297  0.2882
25667W        W45201  14.076   2.723  10.589  0.3371 -0.0085  0.1183
25668W        W45202  15.395  18.516   1.771 -0.0006  0.1415  0.3659
25669W        W45203  12.470  11.972  13.356 -0.2985 -0.0272 -0.2506
25670W        W45204   5.758   4.195  12.422  0.0556  0.0075  0.1455
25671W        W45205  18.056   9.489   9.006 -0.2396  0.1045  0.0154
25672W        W45206  12.118  15.096  14.125 -0.1142 -0.0081  0.0523
25673W        W45207  17.045  17.293   3.107 -0.0597 -0.2107  0.0222
25674W        W45208   6.258   8.292  11.680 -0.3182 -0.1014  0.2273
25675W        W45209   9.768   4.723   2.364  0.1180  0.1355  0.0454
25676W        W45210   4.510   7.307   1.484  0.0068 -0.0523 -0.0631
25677W        W45211   9.344  11.312   2.713 -0.4791  0.2570  0.0726
25678W        W45212   7.409  16.032  13.633  0.0418  0.3114 -0.1816
25679W        W45213  19.061   3.811  13.099  0.0128 -0.2348 -0.1427
25680W        W45214  13.445   3.936   0.902  0.5722  0.1261  0.0569
25681W        W45215  17.019  13.719  14.209 -0.2479  0.0407 -0.1298
25682W        W45216   8.976  19.054   1.789  0.2498  0.0117 -0.2603
25683W        W45217  16.188  19.416  14.249  0.2434  0.1641  0.2408
25684W        W45218  13.646   6.092   2.514  0.1563 -0.2479 -0.0821
25685W        W45219  12.892  17.267  12.122 -0.1307 -0.1259  0.1049
25686W        W45220   9.284   8.024  12.804  0.1718 -0.2941 -0.0819
25687W        W45221   4.907   3.942   2.922  0.0314 -0.0760  0.1531
25688W        W45222   2.339  11.918  13.087 -0.0975  0.2280  0.0759
25689W        W45223   9.505  17.609   3.343  0.3576  0.1492  0.1051
25690W        W45224   6.655   9.815  14.056 -0.2720  0.4960  0.0653
25691W        W45225  10.797   4.244   4.091 -0.1269 -0.2734 -0.4807
25692W        W45226   4.589   1.779  12.356  0.0722 -0.0547  0.0466
25693W        W45227  19.124   2.817   0.336  0.2567 -0.1641 -0.1905
25694W        W45228   2.425  12.551  11.479  0.0559 -0.2163 -0.1289
25695W        W45229   8.678   7.400   4.086  0.1694 -0.4240  0.0263
25696W        W45230  19.105   9.109   2.096 -0.3027 -0.0410 -0.0481
25697W        W45231   9.021   5.223  14.329 -0.0523 -0.1651  0.3849
25698W        W45232   7.668  14.190   2.983 -0.5356  0.0818  0.1094
25699W        W45233   6.043   3.826  12.615  0.0692  0.3206 -0.0726
25700W        W45234  11.713   5.620   3.650 -0.0370 -0.2240  0.3612
25701W        W45235  11.891   7.442   2.126  0.3671 -0.0706 -0.1284
25702W        W45236  10.346  10.412  12.180  0.1078 -0.0749  0.2217
25703W        W45237  11.381  19.105  10.229  0.1193  0.0559 -0.0028
25704W        W45238   9.686  18.833   3.915  0.4558  0.0310  0.0900
25705W        W45239   6.745  15.241  13.063 -0.1486 -0.2031  0.2703
25706W        W45240  15.449  14.167  10.681  0.2206 -0.0967  0.0758
25707W        W45241  16.178  17.814  12.169 -0.0194  0.0407  0.1625
25708W        W45242   3.920   4.892  11.298 -0.2351 -0.0242  0.1144
25709W        W45243  12.960   2.740  12.361  0.0664  0.0571  0.1739
25710W        W45244   1.033   6.263  11.635 -0.1564 -0.0839 -0.1193
25711W        W45245  11.599   7.066   3.254  0.0393  0.1113 -0.2600
25712W        W45246  14.832   6.164  12.360 -0.2613 -0.0495  0.2791
25713W        W45247   0.839  18.349  12.733 -0.0525 -0.0850  0.1020
25714W        W45248   0.100   9.507   2.183 -0.1030 -0.3323  0.3425
25715W        W45249  17.124  14.599   1.574  0.0158  0.0532 -0.0230
25716W        W45250   9.084  14.065  12.653 -0.1347  0.4146  0.0176
25717W        W45251  12.298   9.757   3.409 -0.1240 -0.2349 -0.1850
25718W        W45252  16.283  17.026  11.537 -0.0978 -0.0191 -0.1813
25719W        W45253   0.342   6.347   4.487  0.0895  0.1029  0.0228
25720W        W45254  18.738  10.935   1.591 -0.0332 -0.1991  0.1833
25721W        W45255   3.752  11.833   1.847 -0.1575  0.2783  0.0539
25722W        W45256   8.516   5.264   3.158 -0.0000  0.2018 -0.0432
25723W        W45257  10.562   4.288   3.620  0.2597  0.1479  0.1224
25724W        W45258   3.585  19.161   2.168  0.1384  0.0300  0.0202
25725W        W45259   2.444   1.203  12.413 -0.1823  0.2496 -0.3026
25726W        W45260   6.119   0.128  11.769 -0.0306 -0.0596 -0.1011
25727W        W45261   6.387  13.959   2.257  0.2172 -0.0972 -0.2359
25728W        W45262   6.408  17.144  13.049  0.3504 -0.0886  0.0038
25729W        W45263   2.032  14.017  12.241  0.3561 -0.2482 -0.0087
25730W        W45264  17.093   8.109  14.092  0.2721  0.3090  0.0531
25731W        W45265  15.598   0.362   3.812 -0.1212  0.0702  0.1829
25732W        W45266   0.591   6.654  11.615  0.1273  0.0597 -0.2170
25733W        W45267  16.339  11.753  12.909 -0.2350  0.2982 -0.0750
25734W        W45268  10.957  17.748   3.922  0.3104  0.0388  0.1920
25735W        W45269   1.482  13.550  11.508 -0.3682 -0.1993 -0.2021
25736W        W45270   2.867  13.877  10.815 -0.2454 -0.0034 -0.1404
25737W        W45271  18.820   9.560  14.103  0.2033 -0.0209 -0.2602
25738W        W45272  11.241  11.828  12.167  0.0609  0.1869 -0.0464
25739W        W45273   6.292   1.321   3.091  0.2243 -0.2925  0.0028
25740W        W45274  19.465  17.670   2.722 -0.1223 -0.0280  0.1047
25741W        W45275  11.525  18.939  13.995  0.0587 -0.0843  0.1745
25742W        W45276  15.159   5.885   5.053 -0.2754  0.0074  0.1675
25743W        W45277   3.146   8.894  12.127  0.0520  0.1012 -0.2739
25744W        W45278  17.872  17.784  11.272 -0.1981  0.1463  0.3177
25745W        W45279  12.043  10.039   4.595  0.0552 -0.0330 -0.0674
25746W        W45280  15.456   1.770  13.809  0.0492  0.0408  0.3575
25747W        W45281   8.040  14.335  14.076  0.1206 -0.0471 -0.2809
25748W        W45282  14.675  13.468   0.859 -0.3306  0.1523  0.0110
25749W        W45283  14.660  15.014   2.207 -0.4197  0.0940 -0.0307
25750W        W45284   2.229  12.324  13.501 -0.1615  0.0450  0.0978
25751W        W45285   3.812   1.538   3.377 -0.1139 -0.0802  0.1741
25752W        W45286  18.522  18.821   0.472  0.2927 -0.0612 -0.1128
25753W        W45287   2.081  16.926  12.564 -0.3015 -0.2688 -0.0105
25754W        W45288   3.388   3.573  10.375  0.3307  0.4362  0.1171
25755W        W45289   9.578  10.916   0.262  0.1305 -0.0608  0.2016
25756W        W45290  15.762   5.233   2.221 -0.0869  0.0044 -0.0010
25757W        W45291  17.021  11.575  13.862  0.2534  0.1906 -0.0149
25758W        W45292  10.217   7.145  11.872 -0.2276  0.0443 -0.2009
25759W        W45293   0.955  16.259  12.427 -0.0214 -0.1829  0.0541
25760W        W45294  15.354   9.327   1.975 -0.1603  0.0102  0.0082
25761W        W45295  16.702   7.781   1.616 -0.0463 -0.4302  0.1395
25762W        W45296  12.854  18.486   5.286 -0.1040 -0.0317  0.0439
25763W        W45297   2.547  18.297   3.831 -0.0293 -0.0470  0.2525
25764W        W45298  14.857   2.327  11.992  0.2381  0.0793  0.0433
25765W        W45299   1.006   2.163  10.850 -0.2108 -0.0091  0.1782
25766W        W45300  17.575   4.467  13.143 -0.0602 -0.1935  0.1686
25767W        W45301  19.240  10.953   0.763  0.0839 -0.0666  0.1240
25768W        W45302   0.648   9.980   2.427 -0.0661  0.0305  0.0790
25769W        W45303   8.411  13.620  11.482 -0.2152  0.1373  0.0191
25770W        W45304   0.274  10.093   2.813 -0.1249  0.1189 -0.0385
25771W        W45305  12.702   4.838   0.241  0.0574 -0.0527 -0.0486
25772W        W45306   8.578  11.002  14.135 -0.6334  0.1272 -0.1241
25773W        W45307  18.890  12.257  12.248  0.1605 -0.0807  0.2089
25774W        W45308  13.171   2.425   3.764  0.3439 -0.1239  0.0081
25775W        W45309   3.536   3.872   0.199  0.1883  0.2472  0.2432
25776W        W45310  17.264   2.021   0.993 -0.1011 -0.1452 -0.0820
25777W        W45311   7.595   3.223  11.452  0.0710  0.0546  0.1567
25778W        W45312  13.103  15.859  12.472 -0.0296  0.5045 -0.2267
25779W        W45313   7.959  18.351   3.173  0.0461 -0.3149  0.0365
25780W        W45314   0.430   6.346   1.485  0.1786  0.3640 -0.3313
25781W        W45315  12.266   4.114   2.087 -0.2879  0.1284 -0.0068
25782W        W45316   1.696   1.499  13.519  0.3516  0.2584  0.3423
25783W        W45317   2.394   2.750   1.907  0.0159  0.1012 -0.1245
25784W        W45318  18.686   3.366   0.706  0.3879  0.2310  0.0256
25785W        W45319  10.807  16.821   1.643  0.2034  0.3737 -0.0630
25786W        W45320   6.821  15.581  10.561 -0.2024 -0.0531  0.1217
25787W        W45321   7.740  10.909   1.238 -0.5029  0.0590 -0.1978
25788W        W45322   5.548  11.828   0.069  0.0242 -0.0193 -0.0876
25789W        W45323   4.719  11.205  12.604  0.1113  0.1855  0.0731
25790W        W45324  18.570  16.079  11.274  0.1878  0.0398 -0.0258
25791W        W45325  17.461  19.398   3.521 -0.1243  0.2370  0.0141
25792W        W45326   5.795   7.074   2.064 -0.0180 -0.0169  0.0806
25793W        W45327  15.213   9.160   3.549 -0.2305 -0.0023 -0.4576
25794W        W45328   4.920  16.803   0.335 -0.0465  0.0405 -0.0149
25795W        W45329  12.043   0.987  10.153  0.0677 -0.0149 -0.1185
25796W        W45330  12.702  10.364   1.104  0.1580 -0.0466  0.2344
25797W        W45331  18.866  15.127  11.948 -0.1725  0.2291 -0.2758
25798W        W45332  16.101   6.903   2.094  0.2198 -0.1097  0.1706
25799W        W45333  13.445   0.179   4.279 -0.3142  0.0497  0.2230
25800W        W45334   9.174   7.347   0.127 -0.1027 -0.2395 -0.0744
25801W        W45335   4.017  13.616   1.607 -0.0422 -0.1669 -0.0131
25802W        W45336   9.836   0.776  13.821  0.0693 -0.1201 -0.0222
25803W        W45337  15.200   1.924  10.669 -0.0885  0.2381 -0.0762
25804W        W45338  13.847  11.458  11.934 -0.0636 -0.1577 -0.1195
25805W        W45339   6.433  13.005   3.157 -0.1893  0.1527 -0.2170
25806W        W45340  14.597  12.773   2.331 -0.1262 -0.4597 -0.0555
25807W        W45341   0.019   4.707   2.230 -0.4443  0.2954  0.1970
25808W        W45342  15.779  16.762  12.917 -0.0685  0.2510  0.1891
25809W        W45343   6.384  19.509  13.647  0.3210  0.0001 -0.0309
25810W        W45344  10.921   7.361   1.782 -0.1055 -0.2225 -0.2176
25811W        W45345  17.312  10.866  14.080 -0.1984 -0.1784  0.1503
25812W        W45346  15.199   5.190  13.990 -0.0000  0.1168 -0.0292
25813W        W45347  12.944  19.221   1.477  0.0139  0.1828 -0.2615
25814W        W45348   0.229   9.241  10.059  0.0412  0.1193 -0.0030
25815W        W45349   7.288  14.002   3.240  0.4441 -0.1712 -0.0936
25816W        W45350  15.474   3.458  13.603  0.1348 -0.0954 -0.1034
25817W        W45351  18.899  18.622   1.160  0.0366 -0.5680  0.0926
25818W        W45352   1.502   4.796  14.236  0.1111 -0.1612  0.0319
25819W        W45353  15.718  13.595   1.901 -0.1730 -0.0369  0.1497
25820W        W45354   0.619   6.353   9.823  0.1375 -0.0572 -0.1842
25821W        W45355  11.399  18.989   2.237 -0.1061  0.1650  0.1786
25822W        W45356  11.369  11.303   0.332 -0.0924 -0.1941 -0.3340
25823W        W45357  11.423  13.816   1.117 -0.0415 -0.3003 -0.3458
25824W        W45358  19.522   6.940  12.182 -0.4421 -0.2894 -0.0611
25825W        W45359   6.263  10.978  10.752 -0.1260 -0.1094 -0.4522
25826W        W45360   1.147   2.011  12.947 -0.1172  0.0082 -0.1966
25827W        W45361   8.014  13.718  11.787 -0.0229  0.0355 -0.1134
25828W        W45362   2.762   6.807   4.240 -0.0966  0.1921  0.0883
25829W        W45363   7.265   1.266   2.303 -0.3449  0.0515 -0.0211
25830W        W45364  15.890  19.484   0.768  0.1515  0.0524 -0.0135
25831W        W45365  16.961   6.043  12.688 -0.1977  0.1675  0.0261
25832W        W45366   4.766  10.549   0.652 -0.0142  0.0729 -0.1662
25833W        W45367  17.239  12.198  13.435  0.1226  0.2141 -0.6057
25834W        W45368   8.415  16.435   2.138  0.1387  0.2538  0.1893
25835W        W45369  17.475   0.225  12.664 -0.5501 -0.0451 -0.2393
25836W        W45370  12.843   0.839  12.044 -0.3417 -0.0866  0.0318
25837W        W45371   4.034  17.813   0.023  0.2194 -0.1632  0.0212
25838W        W45372  18.248   8.933   1.165  0.0701 -0.1266 -0.0914
25839W        W45373  14.140   9.770  10.950 -0.0301 -0.1085  0.0140
25840W        W45374   5.981  17.059  13.992  0.1916  0.0123 -0.0333
25841W        W45375   8.429  15.600   3.368 -0.2140  0.4703 -0.0492
25842W        W45376   2.417  14.957  12.862  0.1294 -0.1863  0.0519
25843W        W45377   6.308  10.081  11.335 -0.1678 -0.2306 -0.0563
25844W        W45378   3.834  12.303  13.149 -0.0709 -0.2372  0.0257
25845W        W45379   1.721   5.371  10.924 -0.1811  0.0547  0.1355
25846W        W45380   1.683  19.312  14.052 -0.0765  0.2677 -0.3577
25847W        W45381   4.208   6.805  14.063 -0.1772 -0.1255 -0.2631
25848W        W45382   2.685   1.028   2.323 -0.1963  0.1450 -0.1554
25849W        W45383  16.077  17.700   3.078 -0.0113 -0.0637 -0.0540
25850W        W45384  15.059  13.243   0.068  0.0417  0.0315 -0.2494
25851W        W45385  13.484   4.513  10.812 -0.0729  0.1698 -0.1179
25852W        W45386  17.978   1.968   3.082 -0.2973  0.2080  0.1029
25853W        W45387  12.507  11.570  13.796  0.2872 -0.1063  0.2989
25854W        W45388  12.948  19.223   3.806 -0.0144  0.0308 -0.2114
25855W        W45389   9.802   4.556  13.202  0.0380 -0.0347  0.0021
25856W        W45390   8.216  11.771   0.544  0.1963 -0.1486  0.4873
25857W        W45391   9.081  14.938  10.573 -0.2448  0.1437 -0.0653
25858W        W45392  15.349  14.604   1.009 -0.1666  0.0329 -0.3373
25859W        W45393  10.952  11.606  10.686  0.3342 -0.1718  0.1059
25860W        W45394  10.322  16.161  10.663 -0.2483 -0.1395  0.1269
25861W        W45395   5.767  17.383  10.668 -0.0205  0.0278  0.0911
25862W        W45396  14.934  17.692   1.769 -0.0221  0.0949 -0.0968
25863W        W45397  17.643   1.015   2.960 -0.0955  0.1045  0.1395
25864W        W45398  17.715  14.441  11.184 -0.0342 -0.0815  0.1644
25865W        W45399   8.018   1.945  11.353  0.0234 -0.1131 -0.2112
25866W        W45400   7.656   0.106   0.607  0.0812  0.4203 -0.1533
25867W        W45401  19.453  17.550   2.233  0.1026 -0.3616 -0.3122
25868W        W45402  12.849   6.647  12.246 -0.1901  0.1760 -0.1937
25869W        W45403  11.816  19.391   2.658 -0.0145  0.1940 -0.4065
25870W        W45404  19.310  19.281   0.648 -0.3144  0.2276 -0.1824
25871W        W45405  10.562   4.382  11.979  0.0709 -0.0025 -0.1531
25872W        W45406   7.018   9.902   3.712 -0.1229 -0.0165  0.1530
25873W        W45407   0.535  18.128   3.365  0.0323  0.0975 -0.3833
25874W        W45408  14.316   8.734  12.086  0.0297  0.0097 -0.2579
25875W        W45409  11.946   1.274   3.797  0.2431  0.0613  0.1512
25876W        W45410   9.113  11.709   2.951  0.0599 -0.0334 -0.1781
25877W        W45411  16.962   9.946  10.189 -0.1000  0.1827 -0.2617
25878W        W45412   2.974   2.182   2.913 -0.3952 -0.2708  0.0950
25879W        W45413  10.368  16.494   3.553  0.3165  0.1405 -0.3732
25880W        W45414  13.464  11.926   0.514  0.1624  0.0756  0.0561
25881W        W45415  13.058   7.895   4.376 -0.0892  0.1493  0.1295
25882W        W45416  13.478   8.783  11.768  0.0510  0.0028 -0.0802
25883W        W45417   9.895  11.367  12.468  0.0548  0.4074  0.1182
25884W        W45418   2.935  14.838  12.342  0.3062  0.1622 -0.0142
25885W        W45419  17.321  18.879   4.280  0.1964  0.2118  0.4280
25886W        W45420   4.426  16.912   2.832  0.1316 -0.0984  0.0402
25887W        W45421   0.569  16.795   3.991 -0.0249  0.1240 -0.2605
25888W        W45422  10.235  11.787   9.402 -0.1438  0.3366  0.0245
25889W        W45423  10.652  11.880   3.439  0.0769  0.1838  0.1922
25890W        W45424   2.729  11.956   2.293  0.0402  0.1957  0.2117
25891W        W45425  10.698  11.138  10.777  0.1689 -0.0842 -0.1127
25892W        W45426   0.258   7.768   0.352 -0.0082 -0.0054  0.1094
25893W        W45427  15.030   5.683   2.414  0.1519  0.0777 -0.1508
25894W        W45428  11.716   9.028   2.757  0.1172 -0.0181 -0.2130
25895W        W45429  12.407  12.592   3.981 -0.3675  0.0196  0.1874
25896W        W45430   2.995   7.352   4.278  0.1028  0.0137  0.1162
25897W        W45431  16.499  18.839   2.881 -0.1152  0.0334 -0.0276
25898W        W45432  19.364   6.888   2.035  0.0894 -0.2465 -0.1889
25899W        W45433   5.297   8.995  10.794  0.1592  0.0048 -0.0068
25900W        W45434   0.131   5.018   4.032 -0.3329 -0.3303  0.1803
25901W        W45435  13.962   5.422  11.189  0.0258  0.0890  0.1684
25902W        W45436   5.916  11.768   4.273  0.1624  0.1292 -0.2787
25903W        W45437   3.355   5.976   0.024 -0.0678  0.0986  0.0370
25904W        W45438   3.484  10.193  13.893  0.0555  0.0632 -0.1330
25905W        W45439   7.494   3.886  14.154 -0.3005 -0.1761 -0.0731
25906W        W45440   3.032  13.976   0.812 -0.1735  0.1227  0.1058
25907W        W45441  15.755   3.276  10.503  0.0120 -0.0560  0.2465
25908W        W45442  16.840   8.805  11.886  0.0290  0.4774 -0.0230
25909W        W45443   8.659   9.181   0.960  0.1469 -0.0525  0.2419
25910W        W45444   8.162  13.187   0.107 -0.1738  0.0467  0.3111
25911W        W45445  13.791   6.668   3.242 -0.0735 -0.1247 -0.2607
25912W        W45446  15.051   2.204  13.515 -0.0039  0.0588  0.4330
25913W        W45447  18.904  12.784  12.009  0.0220  0.0020 -0.4995
25914W        W45448  15.689   2.899   2.949  0.0444  0.0400  0.2196
25915W        W45449   4.879   0.411  11.077  0.2864  0.0898 -0.1540
25916W        W45450  18.289   2.074   4.564  0.0855  0.2305  0.2146
25917W        W45451  19.422  18.539   1.365  0.0430 -0.1710  0.0674
25918W        W45452   8.627   2.876   2.059 -0.1326  0.3316  0.1130
25919W        W45453  19.423   8.211   1.549  0.2908  0.0885  0.2037
25920W        W45454   8.342   9.124  14.339 -0.0698 -0.0246  0.0320
25921W        W45455   0.797   8.673   3.652  0.2085  0.0034 -0.2231
25922W        W45456  13.144  12.702   3.655  0.1635 -0.4754 -0.1771
25923W        W45457  10.954   2.064   1.137  0.1409 -0.0991  0.4670
25924W        W45458   7.577   1.414   3.715 -0.1757 -0.4084  0.0084
25925W        W45459   8.431  14.646  12.646  0.0282 -0.0204  0.1684
25926W        W45460   3.842  15.595   1.723  0.1198 -0.5950 -0.2945
25927W        W45461  18.576   0.596  11.385  0.1309  0.0051  0.1695
25928W        W45462  12.751  18.038  10.450 -0.0540  0.0876  0.3008
25929W        W45463  16.790  12.606  13.829 -0.1994 -0.1908  0.0814
25930W        W45464   1.239  15.473   4.121 -0.0133 -0.1973  0.1861
25931W        W45465   2.510   3.769  11.654  0.1378  0.0115  0.0965
25932W        W45466  11.596   8.583  12.965  0.1244  0.0928 -0.0454
25933W        W45467   9.572  11.463  11.595  0.0166  0.0831 -0.1505
25934W        W45468  17.515  13.798  11.926 -0.0050  0.0339  0.0222
25935W        W45469  16.558  17.805   1.871  0.1112  0.0784  0.1441
25936W        W45470   6.506   5.408  10.778  0.1122 -0.0048 -0.2676
25937W        W45471   9.937   1.734  10.654 -0.1751  0.1527  0.0427
25938W        W45472   4.219  14.646   3.118  0.2258 -0.3056 -0.0546
25939W        W45473  17.060  18.377   3.795  0.3635 -0.0654  0.0033
25940W        W45474  11.687   2.637  11.384  0.0779 -0.1754  0.1849
25941W        W45475  11.998   1.391  10.527  0.0859 -0.0126 -0.4638
25942W        W45476   3.027   4.482   3.967  0.0781  0.0207  0.0222
25943W        W45477   6.233   7.348   1.840  0.0565  0.0314 -0.1897
25944W        W45478   2.029  18.787   0.561  0.0762  0.0438  0.3360
25945W        W45479   4.890  13.124   3.700 -0.1514 -0.1907 -0.0357
25946W        W45480   0.226  15.522  10.335  0.0075  0.0986  0.1072
25947W        W45481   6.519  17.434   3.898 -0.2139 -0.0231 -0.1727
25948W        W45482   7.250   8.892   2.637 -0.2076 -0.1692 -0.2501
25949W        W45483  14.392  10.001   0.071 -0.0602  0.1712  0.0788
25950W        W45484   7.570   5.764   5.081 -0.0344 -0.1303 -0.0155
25951W        W45485   7.549   8.213  12.367  0.2926  0.0398 -0.0094
25952W        W45486   3.356   7.008   3.538 -0.0603  0.1888  0.2119
25953W        W45487  11.356  10.787  13.735  0.1447  0.4359 -0.1204
25954W        W45488   4.162  15.732   2.685  0.2137 -0.0043 -0.1356
25955W        W45489  15.818  10.935  14.347 -0.0686  0.1102  0.4341
25956W        W45490   0.255  14.401   2.299 -0.1643  0.1791 -0.3562
25957W        W45491  16.539  11.174   9.220  0.0872 -0.0470  0.2391
25958W        W45492  12.103  19.172  12.387  0.2974 -0.1517 -0.1191
25959W        W45493   8.252   1.529  12.052 -0.2060  0.1424  0.0101
25960W        W45494  17.278  18.978   3.373  0.1252 -0.2636 -0.1354
25961W        W45495  16.379  14.779  11.656  0.3135 -0.0369  0.1068
25962W        W45496  16.624   4.225  14.183 -0.2710  0.0747 -0.0140
25963W        W45497  16.575  16.876   0.674  0.0242  0.3763  0.1910
25964W        W45498   3.243  14.874  13.363  0.0616 -0.1786 -0.0658
25965W        W45499  14.094  15.532   9.175 -0.0898 -0.1096  0.0818
25966W        W45500   8.296  13.956   1.634  0.1044  0.1261  0.1792
25967W        W45501  18.181   4.679   0.896  0.1898  0.1291  0.2117
25968W        W45502   2.775   2.924  13.877 -0.0023 -0.2585  0.3700
25969W        W45503  10.253   4.760  12.748 -0.0737 -0.1411  0.1627
25970W        W45504  17.661   8.718  12.798 -0.0462  0.0081  0.5539
25971W        W45505  18.752   9.758  12.831  0.0446 -0.2520  0.1900
25972W        W45506   3.367  14.572  12.540 -0.0035  0.1894  0.0747
25973W        W45507  13.366   5.659  12.730  0.1040  0.0172  0.0859
25974W        W45508  12.708   4.252   2.400  0.2386  0.1865 -0.0893
25975W        W45509  18.805  11.637   1.177 -0.1613 -0.1851 -0.1038
25976W        W45510   5.692   2.390  12.050  0.1109 -0.1837 -0.0567
25977W        W45511   5.962   1.296   1.844 -0.0419 -0.3532  0.2231
25978W        W45512   7.268   0.352   1.489 -0.1764 -0.0262  0.2427
25979W        W45513   5.468   4.100   3.491 -0.2354 -0.2288 -0.0195
25980W        W45514  14.016   2.848  14.257  0.1466  0.0025  0.0515
25981W        W45515   3.799  12.042   2.381  0.0236 -0.0407  0.1171
25982W        W45516   8.490  10.430  11.111  0.0404 -0.0767  0.0828
25983W        W45517   3.755   2.642   3.503  0.0950  0.1300  0.0131
25984W        W45518  13.682   9.735  12.622 -0.0304  0.0851  0.2330
25985W        W45519   8.423  18.768  13.615 -0.1043 -0.1017  0.0237
25986W        W45520   5.439  18.333  14.067 -0.2745  0.0589  0.1814
25987W        W45521  16.875   8.055  10.708  0.2007 -0.1682 -0.0351
25988W        W45522  13.616  13.529  12.618 -0.1643 -0.1821 -0.1013
25989W        W45523  10.133   4.267  11.579 -0.2758 -0.1643  0.0349
25990W        W45524  15.962   3.694   3.942 -0.0057 -0.0894 -0.0388
25991W        W45525   7.841   6.802   4.030 -0.1918  0.0243  0.0733
25992W        W45526  14.858  15.743  11.100 -0.0560 -0.1814 -0.1431
25993W        W45527   2.389   0.069   0.630  0.0482  0.1318  0.0861
25994W        W45528  16.169   8.818  13.652 -0.0502  0.0044  0.1011
25995W        W45529   9.840  10.284   5.385 -0.3325 -0.0606 -0.2476
25996W        W45530  18.571  12.684  14.166 -0.2635  0.1354 -0.1021
25997W        W45531   6.585  18.491  10.575  0.2935 -0.1277  0.1254
25998W        W45532  16.510   2.247  11.168 -0.1118  0.1795  0.0012
25999W        W45533  17.218  12.138  12.222 -0.0839 -0.1969  0.1289
26000W        W45534  14.652   9.570  13.755 -0.0844 -0.1937 -0.1944
26001W        W45535  17.289   1.762  11.299  0.0747 -0.2790  0.0093
26002W        W45536   2.062   4.408  13.526 -0.0534 -0.0229 -0.1636
26003W        W45537   2.958  10.681   3.826  0.0176 -0.0501 -0.1097
26004W        W45538  10.839   5.001   2.902 -0.0858 -0.2658  0.0182
26005W        W45539  13.318  13.275   1.852  0.1479 -0.0011 -0.1714
26006W        W45540   5.370   3.534  11.900 -0.0881 -0.2792  0.0893
26007W        W45541   5.556   9.918   1.229 -0.2646  0.1558 -0.3665
26008W        W45542  11.105   9.231   2.158  0.1878  0.0536 -0.0832
26009W        W45543  18.091   3.317   2.293 -0.0403  0.2866  0.1729
26010W        W45544  11.162   1.796   0.661 -0.1638 -0.2646 -0.4971
26011W        W45545   4.993   5.768  13.121 -0.1399 -0.2041  0.0691
26012W        W45546  17.157  11.034  10.257  0.1495  0.1025 -0.0092
26013W        W45547  14.764  15.296  12.969 -0.3068 -0.0929 -0.0031
26014W        W45548  14.387  14.403   1.468 -0.0572 -0.2181  0.1712
26015W        W45549  10.101   5.090   4.287 -0.0403  0.2744 -0.0302
26016W        W45550  12.604  15.129  11.340  0.0067 -0.2738  0.0307
26017W        W45551  15.899  14.942  10.331  0.0337 -0.0805  0.1250
26018W        W45552   8.510   8.593   1.396  0.4397  0.2582 -0.1911
26019W        W45553   8.390  18.239  10.691 -0.0425  0.1376  0.2609
26020W        W45554  14.519   7.768   2.862 -0.1327  0.1102  0.1398
26021W        W45555   5.026   3.532  13.418 -0.0016 -0.3818  0.4688
26022W        W45556  10.331   5.013   3.002 -0.0531 -0.1559 -0.0188
26023W        W45557   1.405  19.462  11.402 -0.1915 -0.2652 -0.0956
26024W        W45558   4.322  13.470   0.699 -0.1809  0.3697 -0.1327
26025W        W45559  14.483   8.806  10.745 -0.1080  0.0264  0.1898
26026W        W45560  11.720   6.580   2.447  0.3306 -0.0718 -0.1977
26027W        W45561   7.672  10.493   9.597 -0.0859 -0.3720  0.1510
26028W        W45562  11.489  17.812  12.165 -0.1137 -0.0588 -0.2412
26029W        W45563   2.049   2.280   3.260  0.1586 -0.0306  0.2166
26030W        W45564  17.312  11.472   2.395  0.3164  0.0689  0.0962
26031W        W45565   0.625   6.133   0.648 -0.1435 -0.4241 -0.1939
26032W        W45566   2.404   9.760   2.721  0.1449 -0.2272  0.0682
26033W        W45567  17.527  14.570   2.389  0.0964 -0.0199  0.3580
26034W        W45568  17.693  18.494   2.346 -0.0860 -0.0495 -0.0063
26035W        W45569   6.019   6.581   0.192 -0.2441  0.0151  0.1078
26036W        W45570   8.721  17.608  12.862 -0.4188  0.1349  0.2015
26037W        W45571  10.212  11.541  11.459  0.1416 -0.2538  0.1548
26038W        W45572   3.844  15.232  13.671  0.3248 -0.0313 -0.0459
26039W        W45573   7.920  11.685   2.258 -0.3569 -0.0919  0.2271
26040W        W45574   9.846  16.260  12.839 -0.0966  0.0757  0.1662
26041W        W45575   1.411   5.165  13.044 -0.1011  0.0223  0.1747
26042W        W45576   9.956   9.042  13.053 -0.0991 -0.0085  0.2775
26043W        W45577  17.652  10.283  14.225  0.0353 -0.0123 -0.0306
26044W        W45578  18.352   2.907   1.982  0.0743 -0.3413 -0.0044
26045W        W45579  18.154   5.148   1.628  0.0624  0.3606 -0.0196
26046W        W45580  15.385  16.339   1.689 -0.3279  0.6201  0.1713
26047W        W45581  14.185  15.300   0.047  0.0644 -0.1129 -0.2297
26048W        W45582   3.390  13.791  11.012  0.2219 -0.1144 -0.0755
26049W        W45583  11.873  15.552  13.370  0.0083  0.2043 -0.1270
26050W        W45584  11.650  16.633  11.885 -0.0830  0.0274 -0.1841
26051W        W45585  16.183  15.430   0.335 -0.0484 -0.1907  0.1699
26052W        W45586   6.696   0.270   2.198  0.0721  0.1392 -0.0327
26053W        W45587  14.685   0.575   4.266  0.1143  0.3988  0.0461
26054W        W45588   5.757   4.860   4.737 -0.1395 -0.0855 -0.3374
26055W        W45589   8.082  17.937   3.600 -0.2861 -0.0427  0.0246
26056W        W45590   1.110   3.776   0.206 -0.4014  0.1669 -0.0379
26057W        W45591   9.803   2.650   2.893 -0.0686 -0.2084  0.1733
26058W        W45592   3.282   2.394   0.609  0.0021 -0.4103  0.2808
26059W        W45593  12.379  10.546   1.534 -0.0089  0.0625 -0.3609
26060W        W45594   2.872   5.494  12.511 -0.0759  0.4546 -0.0053
26061W        W45595   2.019   3.947  12.785  0.1573 -0.0911 -0.5211
26062W        W45596   9.924   7.195   0.549  0.1731  0.2215 -0.4081
26063W        W45597  13.293   1.688  14.098  0.1032  0.3711 -0.0976
26064W        W45598   9.174   5.582  11.568  0.1587 -0.1061 -0.0362
26065W        W45599  17.516   1.783   2.984 -0.0908 -0.1685 -0.0914
26066W        W45600  18.092   5.198   0.978 -0.0631 -0.2003 -0.2056
26067W        W45601   5.489   9.670  13.211 -0.0266 -0.1070  0.0826
26068W        W45602   8.747   1.434  11.944  0.1016  0.1172 -0.2473
26069W        W45603  16.193  10.283  10.439 -0.0384  0.0138 -0.2366
26070W        W45604   4.406  14.299   9.435 -0.1906 -0.2157 -0.1227
26071W        W45605   0.136   0.287  12.131  0.0767  0.1615  0.0254
26072W        W45606  18.404   7.931  13.340  0.0361  0.1643 -0.0976
26073W        W45607  11.839   3.512   3.451 -0.4446 -0.5997  0.2519
26074W        W45608  15.892  12.309  12.135 -0.0086  0.0647 -0.4024
26075W        W45609  11.478  19.505  11.493 -0.0989  0.0542  0.2479
26076W        W45610  17.611  14.849  13.237 -0.0012  0.2917 -0.0419
26077W        W45611   5.372   5.791   0.657 -0.0373  0.0023  0.1812
26078W        W45612   0.724   5.054   1.255  0.0547  0.2174 -0.0309
26079W        W45613   7.935   0.568   3.404 -0.0214 -0.5721  0.2872
26080W        W45614   0.053  16.236  13.734  0.3137 -0.2235 -0.0436
26081W        W45615  19.128   4.849   2.446 -0.0224 -0.1572 -0.2663
26082W        W45616  18.195   6.728   2.938  0.1940  0.1106 -0.1415
26083W        W45617   1.494  10.929  13.689 -0.4590 -0.1226 -0.1918
26084W        W45618   5.028   7.797  11.865  0.1615  0.0864 -0.0578
26085W        W45619   1.648   0.817   0.997  0.1329 -0.1816 -0.0214
26086W        W45620  13.879   9.923   3.916 -0.0915 -0.1971  0.0410
26087W        W45621   7.162   0.885   4.333 -0.1337 -0.0628 -0.1506
26088W        W45622  13.856  14.668   2.725  0.1107 -0.0800  0.0914
26089W        W45623  15.080   5.388   0.987  0.1212 -0.1836 -0.0226
26090W        W45624   7.091  13.496   3.274 -0.3132  0.1059 -0.3643
26091W        W45625  13.857   3.252  11.182  0.1499  0.1127  0.2802
26092W        W45626  18.296  15.206   2.319  0.0458 -0.1383 -0.1319
26093W        W45627  12.104   0.717  12.985 -0.0167  0.3269 -0.1245
26094W        W45628   5.891  16.634  13.749 -0.0618  0.0815 -0.0018
26095W        W45629   0.438  18.183   0.504 -0.0334  0.5962  0.2123
26096W        W45630   0.840  12.290  14.121  0.3178 -0.1043  0.0050
26097W        W45631  10.679  11.195  12.478  0.1998  0.0384 -0.0807
26098W        W45632  15.461   0.766   3.098  0.0041  0.1399  0.0991
26099W        W45633  17.221   8.293   3.215  0.1542  0.1823  0.1690
26100W        W45634   4.098   5.507  14.303  0.2001 -0.1637  0.1033
26101W        W45635   5.860   0.663  11.626 -0.0420  0.1495 -0.1293
26102W        W45636   4.908  10.302   2.494 -0.2016 -0.1159  0.0889
26103W        W45637  15.276   2.004   3.607  0.0726  0.0045 -0.0300
26104W        W45638   3.496   1.818   3.772 -0.1987 -0.1044  0.3651
26105W        W45639   0.432   3.108  12.589 -0.0957  0.1614 -0.1934
26106W        W45640   9.404  17.192   4.186 -0.2994  0.0026 -0.0006
26107W        W45641   9.251  12.556  10.929  0.1103 -0.1798  0.1881
26108W        W45642  12.615  18.711   5.731 -0.2988 -0.2684  0.0149
26109W        W45643   0.546  19.530  14.299  0.0668  0.0775 -0.1837
26110W        W45644   7.067  17.105  14.041 -0.1984 -0.2526  0.1574
26111W        W45645  16.804   1.666  13.613  0.0163 -0.2330  0.1052
26112W        W45646   9.211   0.123  14.113 -0.0189  0.1355  0.0681
26113W        W45647  11.016   1.824   2.194 -0.2452  0.2143 -0.2039
26114W        W45648  12.138   7.815  12.778 -0.0031 -0.2689 -0.1774
26115W        W45649  18.164  11.309  12.373 -0.1423  0.1907  0.1398
26116W        W45650   3.578   9.157   0.278 -0.1308 -0.2132  0.0115
26117W        W45651  15.455   8.503   2.863  0.2330  0.1350 -0.0622
26118W        W45652   7.473  12.482   0.213 -0.5082 -0.0232  0.0349
26119W        W45653  14.445   7.485  13.575  0.1148  0.1819 -0.0008
26120W        W45654  15.283   8.348   1.772 -0.0872  0.0314  0.3043
26121W        W45655   2.655  12.433   4.660  0.0987 -0.1584 -0.0462
26122W        W45656  16.911   1.412   3.432 -0.0903 -0.6510  0.2176
26123W        W45657  16.903   5.717   1.022 -0.3811  0.3257 -0.0626
26124W        W45658   9.587  10.986   4.293 -0.0083  0.3004 -0.2597
26125W        W45659   2.031   5.181  11.276  0.0791 -0.1013 -0.1022
26126W        W45660  17.465   5.731  13.457  0.1456  0.1175 -0.1339
26127W        W45661   5.193  13.965   1.790  0.0458  0.1092 -0.1219
26128W        W45662   9.904   7.227  12.761 -0.1374 -0.0861  0.0431
26129W        W45663  12.336   8.712  10.813 -0.1583 -0.1674 -0.3101
26130W        W45664  10.289   8.146   2.362  0.0005  0.1032 -0.2200
26131W        W45665   2.785  18.175  13.704 -0.1266 -0.2267  0.1371
26132W        W45666  15.941   9.959   0.625  0.1001  0.2720  0.2470
26133W        W45667   6.212  17.254   0.039  0.0921 -0.1308 -0.1062
26134W        W45668  18.704   4.376  12.345 -0.0079  0.0712  0.0863
26135W        W45669  11.141  18.002  10.550 -0.2222 -0.0741  0.3373
26136W        W45670  17.270   4.764   2.393 -0.1106  0.0539 -0.2948
26137W        W45671   6.953  18.517   2.412  0.1050 -0.1936  0.0148
26138W        W45672   4.262  19.059  12.013  0.0712 -0.2652 -0.1703
26139W        W45673  10.604   4.764   1.919  0.0472  0.1779  0.0294
26140W        W45674  19.264  11.820   3.227 -0.0479  0.2243 -0.3678
26141W        W45675  17.514   2.228   0.040  0.1732  0.2363  0.0189
26142W        W45676  10.342  17.097   4.257  0.0530  0.0236  0.0426
26143W        W45677  17.982  16.980   2.141 -0.0711  0.0561 -0.0120
26144W        W45678   0.478   9.266   3.998  0.0943  0.2110 -0.4036
26145W        W45679  17.186  13.473  13.654 -0.2758  0.0423 -0.1456
26146W        W45680   1.056   7.813   0.384  0.3300 -0.1203 -0.1315
26147W        W45681   9.472  10.614  12.430  0.2314  0.1252 -0.1742
26148W        W45682   5.026  16.251   3.874  0.3482  0.1338  0.2088
26149W        W45683  16.555  18.953  12.580  0.0923 -0.0830  0.0037
26150W        W45684   0.233  13.485  11.832  0.2182  0.2753  0.1028
26151W        W45685  15.680   6.296  13.182  0.0818 -0.1791 -0.0363
26152W        W45686  10.183  15.131  10.366 -0.2892  0.0440  0.1852
26153W        W45687  13.898  13.689  10.552  0.0557  0.0221  0.0677
26154W        W45688  16.048  12.204  11.584 -0.0117 -0.0300 -0.4565
26155W        W45689   4.375   2.531   2.829 -0.0316 -0.2844 -0.0044
26156W        W45690  11.515  10.050  12.958 -0.1127 -0.0848  0.3281
26157W        W45691  12.454   6.516   3.181 -0.0849 -0.1642 -0.0075
26158W        W45692   0.303  13.824  13.310 -0.0652  0.1390  0.1796
26159W        W45693   7.936   1.245  13.746 -0.2394 -0.0388 -0.0203
26160W        W45694   6.374   1.773   1.037  0.0704  0.3411  0.0921
26161W        W45695  16.090  19.397  11.840  0.0279  0.0578 -0.0673
26162W        W45696   9.334   2.684   2.197 -0.1555  0.0969  0.0484
26163W        W45697  16.470   8.939  12.275 -0.1057  0.1561 -0.0419
26164W        W45698   5.501   4.142  10.549  0.0090 -0.3629  0.0529
26165W        W45699   6.888   6.217  10.658 -0.0446 -0.0920  0.0541
26166W        W45700  14.204   8.873  11.159  0.0845  0.1617 -0.0103
26167W        W45701   7.823   6.659  14.204 -0.2137  0.0176 -0.1067
26168W        W45702   3.799  13.138   4.933 -0.1230  0.2020  0.0325
26169W        W45703  11.487  13.110   2.333  0.0404  0.1193  0.0149
26170W        W45704  10.522   3.992  11.609 -0.0688  0.0071  0.3610
26171W        W45705  12.817  10.935  14.221  0.0146  0.1492 -0.2133
26172W        W45706   6.583  11.308   1.547  0.1763  0.1620 -0.3178
26173W        W45707  12.968  19.106  11.653  0.1073 -0.0952  0.1685
26174W        W45708  10.820  15.894   4.130 -0.1428  0.0405  0.0302
26175W        W45709  15.871  16.679  10.709  0.0369  0.1514  0.4697
26176W        W45710  16.261   1.321  12.320  0.2772 -0.2268  0.2342
26177W        W45711   4.077   3.592  13.898  0.2638 -0.1484 -0.0997
26178W        W45712   8.889  12.715   0.001  0.0204 -0.2910  0.2925
26179W        W45713  15.502   1.402   0.583  0.0838  0.3988  0.0295
26180W        W45714  18.109   4.130   1.581  0.0726  0.0846 -0.1793
26181W        W45715  11.055   9.830  12.836 -0.2420  0.1098 -0.1246
26182W        W45716  10.669  10.202  11.814 -0.3375  0.2247 -0.6850
26183W        W45717   4.901   1.042  13.724  0.0672  0.1027  0.0680
26184W        W45718   1.744   8.755  12.798  0.0535  0.1573  0.1434
26185W        W45719   1.942   0.459   3.894  0.1335  0.0979 -0.0563
26186W        W45720   2.392  17.233   0.603  0.2228  0.2898  0.1724
26187W        W45721   8.723  15.080   3.142 -0.0427 -0.3059  0.2951
26188W        W45722   2.858   4.575   3.538  0.1276  0.2381 -0.1608
26189W        W45723   4.939   3.969   3.423 -0.1041 -0.2506 -0.2049
26190W        W45724  17.634  11.825  11.233 -0.0030 -0.1599  0.2618
26191W        W45725   8.689  18.513   0.085  0.1075  0.0269 -0.2832
26192W        W45726  12.283   6.066   0.367 -0.3913  0.2219  0.2506
26193W        W45727  15.381  18.293   0.079  0.1174 -0.1288 -0.0921
26194W        W45728   6.214  18.362  11.387  0.0879 -0.1587  0.0838
26195W        W45729  13.522   0.261  13.360  0.0742  0.3439  0.3695
26196W        W45730   9.950  16.134  11.728  0.0884 -0.0628 -0.0473
26197W        W45731  13.680  19.046  10.648  0.2133  0.0408 -0.0849
26198W        W45732  11.895   2.681  10.854  0.2037 -0.2562 -0.3649
26199W        W45733  11.471   2.423  10.920 -0.4321 -0.1340 -0.1103
26200W        W45734  16.621   5.300   2.763  0.2335  0.3879  0.3645
26201W        W45735  11.506  17.347  13.475 -0.0558  0.1396  0.0822
26202W        W45736  18.585   1.456  13.708  0.1072  0.0036 -0.1758
26203W        W45737  17.188   8.145  13.581 -0.0864  0.0199 -0.0657
26204W        W45738  10.704   1.716   2.552 -0.6389 -0.4554 -0.2803
26205W        W45739  11.570   0.428   3.411  0.0665 -0.0503 -0.0376
26206W        W45740  11.250   3.033   4.123 -0.1238  0.1488  0.1173
26207W        W45741   5.900   0.764   1.847 -0.0211 -0.1672  0.0994
26208W        W45742  12.340  11.081  14.112 -0.1184 -0.2416  0.2903
26209W        W45743   9.822   7.201   1.994 -0.0168  0.0918 -0.3654
26210W        W45744   6.661   2.862   0.690  0.1595  0.1564  0.0089
26211W        W45745   5.758   1.412  11.130  0.1940 -0.1268  0.3129
26212W        W45746  15.392   0.951   3.646 -0.3419  0.0037  0.1405
26213W        W45747  13.040  17.668  13.157  0.1641  0.2176  0.1002
26214W        W45748  15.910   7.558  13.184  0.2941  0.1483  0.0481
26215W        W45749   4.814  16.666  11.096 -0.2773  0.2206 -0.1264
26216W        W45750  18.601   6.089  11.157 -0.2713 -0.0299 -0.0778
26217W        W45751   3.628  18.191   0.121  0.0984 -0.0715  0.1356
26218W        W45752   5.415  11.003   3.035  0.1414 -0.1355  0.0967
26219W        W45753   6.377  15.951   1.501  0.0315 -0.2149 -0.2260
26220W        W45754   8.411  17.451   2.089  0.0765 -0.1283 -0.2093
26221W        W45755   4.379  17.796   1.622  0.2583  0.3152 -0.0449
26222W        W45756  16.552   1.519   1.333 -0.1463 -0.0680 -0.0062
26223W        W45757   7.337  18.185  11.994 -0.0173  0.1249 -0.1203
26224W        W45758  12.576  17.956  11.769  0.1046 -0.2493 -0.2388
26225W        W45759  10.171   1.345  10.895  0.1258  0.0972 -0.1917
26226W        W45760   8.853   4.441  11.754  0.0560 -0.3351  0.2977
26227W        W45761  16.860   5.396  12.009 -0.0673 -0.1276 -0.1302
26228W        W45762   9.478   1.704   1.983 -0.1656 -0.0307  0.0599
26229W        W45763  17.158  15.457  10.853 -0.0495  0.1015  0.0247
26230W        W45764   6.005   7.436  12.987 -0.0206  0.1126  0.0683
26231W        W45765   5.900  11.847   0.441 -0.1570 -0.0371  0.1439
26232W        W45766   6.929  17.118  11.364  0.0266 -0.0748 -0.0718
26233W        W45767  11.734  11.035  10.971 -0.0416  0.1411 -0.3232
26234W        W45768  10.124  10.425  14.211  0.2659 -0.2358 -0.0197
26235W        W45769   3.621   0.493   4.054 -0.1186  0.3625 -0.1608
26236W        W45770  11.248   0.115   4.376 -0.3498 -0.1084 -0.1375
26237W        W45771   4.534   9.463   4.200  0.1388  0.0845 -0.0340
26238W        W45772  19.397  13.664   1.848  0.0272 -0.2418 -0.0958
26239W        W45773   3.184  10.710   2.590  0.1487 -0.0786  0.1332
26240W        W45774  14.176   5.641   0.709  0.0913 -0.5367  0.1170
26241W        W45775  15.184  10.908  12.518  0.0641  0.0694  0.0190
26242W        W45776  15.663   1.779  12.605 -0.1121  0.0284 -0.1761
26243W        W45777  13.155   8.162   3.000 -0.3293 -0.1558  0.0427
26244W        W45778  14.735   7.822  11.936  0.0966  0.0210  0.0746
26245W        W45779   1.541   5.863  13.579 -0.1426 -0.0863  0.1961
26246W        W45780   1.504  12.254   2.436  0.0989  0.1238 -0.2576
26247W        W45781   3.675  13.514  13.664  0.0555  0.1251  0.0793
26248W        W45782   7.723   2.462   2.294  0.2567 -0.1935  0.2853
26249W        W45783  16.876  16.550  14.251  0.0188 -0.1139 -0.3287
26250W        W45784  12.803  12.660   0.690  0.1380  0.3199 -0.5953
26251W        W45785  18.849   3.342  13.377  0.4140  0.1425 -0.1502
26252W        W45786  15.023  19.271   1.152 -0.2187  0.0204  0.0440
26253W        W45787  17.952   2.856  12.423  0.0847  0.3415  0.2202
26254W        W45788   5.071   8.148   3.293 -0.0051  0.1161 -0.1352
26255W        W45789  17.008   9.782   2.360  0.4874  0.2334  0.0124
26256W        W45790  13.234  12.210  11.982 -0.0670 -0.1178 -0.1549
26257W        W45791  16.991   2.209  13.663 -0.2018  0.1244  0.1269
26258W        W45792  15.306   7.753   1.743 -0.0972  0.1315  0.0392
26259W        W45793   2.261   6.482   9.825 -0.0180  0.0649 -0.1774
26260W        W45794  15.098   6.504  10.689 -0.3809  0.0503  0.0805
26261W        W45795   9.424  13.830   9.492 -0.1716 -0.0669  0.0202
26262W        W45796  13.532   5.727   0.382 -0.0956 -0.1303  0.0466
26263W        W45797   7.795   9.636   1.799 -0.1436 -0.1797 -0.2273
26264W        W45798  16.489  10.896   8.772 -0.0527 -0.1289  0.0383
26265W        W45799   7.971  17.876  10.833 -0.4246  0.1317 -0.5393
26266W        W45800   9.750   4.125   0.445  0.0923  0.0856  0.1716
26267W        W45801  11.073  10.347  12.793 -0.0677  0.0462  0.2216
26268W        W45802   2.340  18.731   0.058 -0.1325  0.1246 -0.1336
26269W        W45803  10.575  13.093  10.634  0.1862  0.1367 -0.2168
26270W        W45804   2.299   9.854  11.744 -0.4448  0.0353  0.0367
26271W        W45805   2.816   3.959   1.827 -0.0551  0.2879 -0.2932
26272W        W45806   6.257  17.334  12.071 -0.0579  0.3072  0.2007
26273W        W45807   0.471   3.092  13.365  0.3022 -0.0535 -0.1038
26274W        W45808  15.962   8.668  13.091 -0.1061 -0.0465 -0.0069
26275W        W45809   3.061   6.624  10.277 -0.1827  0.0167 -0.1687
26276W        W45810  18.909  18.654   0.066 -0.1815 -0.0584  0.0266
26277W        W45811   9.371   9.958   3.585 -0.2463  0.2075 -0.0402
26278W        W45812   9.550  18.285   3.959 -0.0109  0.4415 -0.2136
26279W        W45813  12.475  17.243   2.531  0.1192  0.1518 -0.1994
26280W        W45814   3.062   0.158  14.312 -0.2828  0.0854  0.0524
26281W        W45815   5.439  17.710   1.469 -0.3018  0.0688 -0.2861
26282W        W45816  14.589  11.127   1.923  0.0311  0.0262 -0.1078
26283W        W45817   9.810   0.108   0.760 -0.0380  0.2898 -0.3961
26284W        W45818  10.465  14.066   1.267 -0.1313 -0.2302 -0.3703
26285W        W45819   1.480   5.458   0.475 -0.0463  0.1057 -0.0269
26286W        W45820   8.675   6.807   2.269  0.1066 -0.0447 -0.2193
26287W        W45821   5.020   0.495  13.489 -0.1456 -0.0228  0.1222
26288W        W45822   1.190  10.826   1.126  0.0911  0.1110  0.0909
26289W        W45823   1.294   9.583  14.062 -0.1964  0.0788 -0.0396
26290W        W45824  14.780  18.698   3.626 -0.1001  0.0684 -0.0519
26291W        W45825  12.194  19.040  11.867 -0.0809 -0.2527  0.0492
26292W        W45826  11.534  17.633   0.747 -0.1678 -0.0334 -0.0992
26293W        W45827  14.400   4.390  13.177  0.1116  0.0248 -0.2205
26294W        W45828   6.425  11.744   0.490  0.4023 -0.0113  0.1272
26295W        W45829  17.237   1.587   0.579  0.6106 -0.0286 -0.0293
26296W        W45830   0.261  19.154   0.093 -0.1220 -0.1230  0.1762
26297W        W45831   8.552  13.451  13.379  0.0236  0.2036  0.4689
26298W        W45832  12.193  11.727   1.633  0.0876  0.1559  0.2604
26299W        W45833   9.707   0.473  14.228 -0.0978  0.1824  0.0325
26300W        W45834  11.698  16.613  11.121  0.6182  0.0215 -0.2350
26301W        W45835   0.179   2.754  11.129 -0.1780  0.3274 -0.0857
26302W        W45836   9.680  18.834  11.191 -0.2059  0.1931 -0.2634
26303W        W45837  15.537   5.380  11.429 -0.3321 -0.0782  0.1833
26304W        W45838   8.684  13.053  11.295  0.2383 -0.1911  0.1011
26305W        W45839  10.446  18.195  13.649 -0.0943  0.1616  0.0004
26306W        W45840  18.191   4.735   3.610 -0.4713  0.2030  0.0160
26307W        W45841   4.738   5.258  10.967 -0.0225 -0.0046  0.0321
26308W        W45842   2.639   5.568  14.336 -0.0581 -0.0603  0.0054
26309W        W45843   7.728  19.054   2.351  0.0588  0.0791  0.0002
26310W        W45844  10.981   5.474  11.914 -0.0963  0.3847 -0.0283
26311W        W45845  17.768  15.147   0.159 -0.4838  0.1832  0.2900
26312W        W45846  15.516  12.833  14.145 -0.0823 -0.0001 -0.0673
26313W        W45847   9.139   6.751  11.768 -0.1517  0.0219  0.4363
26314W        W45848  18.627   0.527  13.253  0.1615  0.0804  0.0805
26315W        W45849  11.625   3.176   2.619 -0.0398  0.2104 -0.0257
26316W        W45850   8.065   7.262   1.267  0.3251 -0.0759 -0.0355
26317W        W45851   5.410  11.171   4.099 -0.1435  0.1702 -0.2202
26318W        W45852  12.915  18.504  11.064  0.1564 -0.0123 -0.1809
26319W        W45853  19.384  10.860   3.287 -0.1872 -0.1515 -0.3030
26320W        W45854   5.630   1.337  12.561  0.3815 -0.4867  0.0080
26321W        W45855  14.216   2.813   4.856 -0.1484 -0.0129 -0.2291
26322W        W45856   3.522  16.586  11.405 -0.0286 -0.1031  0.1345
26323W        W45857   4.503   9.842  14.079  0.1188  0.0105  0.0164
26324W        W45858   5.160   0.979  10.137 -0.0815 -0.2906  0.3629
26325W        W45859   9.572  13.379  13.166 -0.1111  0.0119  0.1304
26326W        W45860   5.907  14.118   0.593  0.0858  0.2733  0.0986
26327W        W45861   2.885  16.043   2.542 -0.1727 -0.3748 -0.0739
26328W        W45862  17.610   1.775   9.498 -0.0571 -0.0086 -0.4879
26329W        W45863  16.767   9.381  10.931 -0.0404 -0.1971 -0.1254
26330W        W45864  15.123  15.918   9.495 -0.1836 -0.0356  0.2812
26331W        W45865  16.290   4.246   1.456 -0.1239  0.0814  0.3233
26332W        W45866   6.206   5.253   3.096 -0.2082  0.1419 -0.1716
26333W        W45867   8.138  19.493  13.546  0.0347  0.0552 -0.3340
26334W        W45868   4.950  19.385   4.122 -0.3387  0.1097  0.1056
26335W        W45869  12.390  14.357   0.230  0.0156  0.1888  0.0567
26336W        W45870   6.569   2.693   3.091  0.0915  0.1120 -0.1414
26337W        W45871   5.157   3.024   1.784 -0.4593 -0.1523  0.0799
26338W        W45872   8.324   0.906   4.255 -0.0701  0.1160 -0.0484
26339W        W45873   5.754   5.747   4.684 -0.0125 -0.1821 -0.1076
26340W        W45874   6.527  12.434   0.304  0.1899  0.2870  0.0304
26341W        W45875   0.108  11.650  11.163 -0.1826 -0.0615 -0.2312
26342W        W45876  12.787  12.309   9.830  0.2199 -0.2259  0.0906
26343W        W45877   2.940   5.190  11.680 -0.2185 -0.0036 -0.1947
26344W        W45878   4.302   0.130   0.079 -0.1656  0.0533  0.0440
26345W        W45879  18.293  12.671  13.703  0.1125 -0.2656  0.2029
26346W        W45880  11.488   5.491  11.121 -0.2342 -0.0292  0.3053
26347W        W45881  16.436  19.481   2.312  0.3431 -0.0839 -0.0936
26348W        W45882  16.295  11.740   1.358 -0.0441 -0.2657  0.0496
26349W        W45883  11.207  12.440  12.745  0.0472  0.0658  0.3836
26350W        W45884   8.174   1.844   0.208  0.0887  0.0092 -0.0791
26351W        W45885   1.381  14.162  13.568 -0.1881 -0.0821 -0.1079
26352W        W45886   6.626  11.690  11.154 -0.0996 -0.0130  0.2342
26353W        W45887  10.997  12.592   0.673 -0.0390 -0.0747  0.0193
26354W        W45888   6.348  16.679   0.973  0.2692 -0.1472  0.1432
26355W        W45889   1.735   2.338  12.421  0.3188 -0.3109 -0.3395
26356W        W45890  13.710  19.178   0.475  0.3380  0.2340  0.1834
26357W        W45891  13.542  18.233  12.204 -0.0664  0.5737 -0.0557
26358W        W45892   6.973   0.566   1.869 -0.3301  0.3100 -0.1714
26359W        W45893   0.078  12.325   1.475  0.0783 -0.3701 -0.1915
26360W        W45894  17.601  17.622   0.727 -0.0027 -0.2912  0.0818
26361W        W45895   3.268  10.992  12.861 -0.2654 -0.1638 -0.2521
26362W        W45896   4.165   8.678  11.093  0.0525 -0.2288  0.0025
26363W        W45897   8.675   4.703   1.621  0.0814 -0.0259 -0.1197
26364W        W45898  11.351   6.490   0.250 -0.3438 -0.1868 -0.0004
26365W        W45899   9.443  15.155  10.846  0.1557  0.1816  0.0140
26366W        W45900   9.122  11.183  13.088 -0.2678  0.1737 -0.3392
26367W        W45901   5.469  17.168  11.022  0.0776 -0.1419  0.2369
26368W        W45902   4.854   4.599  13.922 -0.2638 -0.1438 -0.0989
26369W        W45903   9.211   9.672  13.960 -0.2573  0.0614  0.1630
26370W        W45904  19.195  13.698  12.868  0.0534  0.2690 -0.5432
26371W        W45905  10.419   0.088   2.818 -0.1591 -0.0069 -0.1248
26372W        W45906  18.049   9.365  12.486  0.0052 -0.0704  0.1368
26373W        W45907   6.513   4.172   1.868 -0.0285 -0.0194 -0.2128
26374W        W45908   4.470  12.498   1.887  0.0318  0.2439  0.0912
26375W        W45909  16.662   9.111  14.069  0.0299 -0.1489  0.1439
26376W        W45910   9.750   3.656  10.910 -0.1448  0.0328  0.4083
26377W        W45911  10.251  18.625   0.341  0.1457  0.2686  0.1786
26378W        W45912  18.088  10.550   1.625  0.2860  0.1148  0.0788
26379W        W45913   9.694   0.793  13.348  0.2581 -0.2160  0.0595
26380W        W45914  10.759  12.746   3.053  0.2261 -0.0856  0.0657
26381W        W45915  17.393  15.959  10.659  0.0302 -0.0561 -0.3774
26382W        W45916   7.035   8.149  12.148  0.1749  0.0610  0.1352
26383W        W45917  19.319   0.838  13.626 -0.1117 -0.1215  0.1418
26384W        W45918   5.865  19.431  13.747  0.0383  0.1156 -0.1887
26385W        W45919  17.475  15.986   2.935  0.1100 -0.0124 -0.0298
26386W        W45920  18.175   2.914  12.915 -0.1046  0.2233  0.0408
26387W        W45921  16.514   9.390   1.085  0.4448  0.0473  0.2409
26388W        W45922   9.397  17.606   2.208 -0.3786 -0.4063 -0.0204
26389W        W45923   6.549   4.420  12.026  0.2103  0.0166 -0.4278
26390W        W45924   9.000  12.759   0.485  0.3892  0.0087 -0.1606
26391W        W45925   1.966  14.536   0.936 -0.2315 -0.0043 -0.0432
26392W        W45926  17.898   6.917  13.016 -0.3005  0.1198 -0.1362
26393W        W45927   2.383   6.603   1.247 -0.2273 -0.2007  0.3467
26394W        W45928  12.016  14.219   0.595  0.0002  0.0881  0.0671
26395W        W45929  10.166  14.864  13.606  0.3035  0.1446  0.0353
26396W        W45930  16.953   3.339   4.376  0.0925 -0.3025 -0.1429
26397W        W45931   2.375   2.052  13.742  0.2254 -0.1708  0.0109
26398W        W45932   7.657  19.399   4.096 -0.2128  0.2617  0.1041
26399W        W45933   8.640   8.158  11.777 -0.1714  0.0129 -0.0052
26400W        W45934   6.687   1.528   2.789  0.1773 -0.3031 -0.1032
26401W        W45935   6.991   0.551  12.780  0.0798  0.3381 -0.1016
26402W        W45936  16.853   0.860   0.175  0.3502 -0.0590 -0.1356
26403W        W45937  17.501   9.159   1.001 -0.0278  0.0918 -0.4066
26404W        W45938  11.113   7.693   1.462  0.1082 -0.0397  0.0325
26405W        W45939  13.040   6.728  10.763 -0.1949 -0.0166 -0.2866
26406W        W45940  18.059   7.883   0.137 -0.0138  0.0277  0.0652
26407W        W45941   6.967  10.182   0.471  0.0395 -0.0849 -0.0365
26408W        W45942  13.436   9.187  10.005  0.0306 -0.1862 -0.3775
26409W        W45943   7.683   1.821   4.001  0.0610 -0.1431  0.0147
26410W        W45944  10.281  19.476   3.369 -0.0814 -0.4676  0.1173
26411W        W45945  18.959  10.420  10.924  0.0715  0.1544  0.0132
26412W        W45946  15.516  12.828   1.838 -0.1036  0.1433 -0.1518
26413W        W45947   8.172   3.527   1.562  0.0226  0.0771 -0.0065
26414W        W45948   1.532   2.366   0.070  0.1369 -0.0241 -0.3629
26415W        W45949   5.667   1.164  11.607 -0.1628 -0.0742  0.1145
26416W        W45950   8.757  10.128  11.424 -0.1303  0.0458 -0.0951
26417W        W45951   8.265   9.624   2.905 -0.2852  0.1792 -0.0208
26418W        W45952   9.638   8.310  10.799  0.1608  0.0513 -0.3879
26419W        W45953  19.185   7.274  10.456 -0.3447  0.0730 -0.0759
26420W        W45954  17.866   5.197   4.337  0.0668 -0.3116 -0.2199
26421W        W45955  10.495  17.928  10.106 -0.1426  0.0481  0.2377
26422W        W45956   1.335   1.886   3.750 -0.0449  0.3174 -0.0899
26423W        W45957   8.724   5.667  12.547 -0.3146  0.0950 -0.0163
26424W        W45958   9.391   2.756   0.127 -0.0266 -0.0511 -0.2375
26425W        W45959   9.937  14.605   0.030  0.1466 -0.0405  0.1270
26426W        W45960   4.160   0.047  12.326  0.2030 -0.1445 -0.1097
26427W        W45961   9.380  14.608   2.667  0.1954 -0.1256 -0.1509
26428W        W45962  14.061   1.293   3.763  0.1254  0.1388 -0.0706
26429W        W45963   1.896  13.623   2.487  0.1996  0.2844 -0.1601
26430W        W45964   9.305   0.747   3.943 -0.1253  0.0228  0.0501
26431W        W45965   8.877   4.733  11.127 -0.1629  0.0608  0.0585
26432W        W45966  15.889   9.224   1.729  0.3363  0.1196 -0.1847
26433W        W45967   9.783  10.992  11.665  0.1447 -0.0585  0.1546
26434W        W45968   4.122  19.459   4.242  0.3088 -0.0932 -0.1453
26435W        W45969  11.129  17.979  13.001 -0.0672  0.1810  0.3991
26436W        W45970   1.961   7.308   3.328 -0.1525  0.1748 -0.2700
26437W        W45971   4.311  19.516  12.869 -0.0867 -0.2723  0.0214
26438W        W45972  10.889  15.964   3.260  0.0479  0.0250  0.1844
26439W        W45973  11.183  18.252  12.013  0.2935 -0.0035  0.1737
26440W        W45974   0.105   1.727  11.068 -0.0429 -0.1566 -0.1399
26441W        W45975   7.676   2.734   3.745  0.0982 -0.0838 -0.1218
26442W        W45976  17.546  14.918  11.257 -0.0584  0.1840  0.1357
26443W        W45977   9.263  10.258  11.332  0.1428 -0.2237  0.1377
26444W        W45978   4.858  18.244   3.316 -0.1487 -0.2520  0.0253
26445W        W45979  10.171  10.863   9.732 -0.0927 -0.1702  0.0198
26446W        W45980   7.898   5.233   2.959  0.2024  0.1122  0.1222
26447W        W45981  12.957  13.913  12.677 -0.2401 -0.5230  0.1636
26448W        W45982   2.700  13.638   1.954 -0.0856 -0.0155  0.2649
26449W        W45983   8.833  11.091   2.808  0.0032  0.0480 -0.1243
26450W        W45984   1.680  17.396  13.058  0.2013  0.0105 -0.1132
26451W        W45985   3.382   4.023  13.610  0.1230 -0.0618  0.2082
26452W        W45986  13.562  13.240   1.303  0.0963 -0.3883  0.0167
26453W        W45987  15.012  10.673   2.575  0.1670  0.1839 -0.2870
26454W        W45988   1.602   5.061  10.023 -0.0686 -0.1968  0.1533
26455W        W45989  12.544  13.333   3.589 -0.0625  0.1336 -0.0493
26456W        W45990   3.269   4.947   0.149  0.1270  0.3172 -0.3351
26457W        W45991   9.091  17.758  12.396  0.1577  0.2892  0.1939
26458W        W45992   8.807  19.501   2.011 -0.0184  0.4192  0.0097
26459W        W45993   9.156  12.565   0.967  0.0765 -0.2457  0.0003
26460W        W45994   5.149   3.973  13.082 -0.1834  0.0720  0.0119
26461W        W45995   3.730   4.853  11.800  0.0706 -0.0870 -0.1385
26462W        W45996   7.399   5.702   3.864 -0.0399 -0.2369 -0.0278
26463W        W45997   4.946   5.549   2.705 -0.2557  0.1164  0.2186
26464W        W45998   8.370  14.608   2.402 -0.1692 -0.2467  0.1931
26465W        W45999   9.223  16.712  10.741 -0.3547 -0.1322  0.1496
26466W        W46000  13.231  18.224  11.832  0.0119  0.0433  0.0365
26467W        W46001  11.097  19.258   0.587 -0.3535 -0.0078  0.1077
26468W        W46002   4.002  13.825   3.164 -0.2311 -0.0227  0.1768
26469W        W46003   0.655  10.282   3.045 -0.0309  0.1075 -0.1371
26470W        W46004  14.451   4.984  10.513  0.1203  0.0078 -0.0066
26471W        W46005  18.419   0.844  10.909  0.0215  0.1514  0.3234
26472W        W46006  11.385   6.100  13.498  0.0061  0.2126 -0.0304
26473W        W46007   6.330  11.027  14.035 -0.0663  0.0665 -0.0585
26474W        W46008   9.932  18.188  13.871  0.0572 -0.0470  0.3719
26475W        W46009   7.557  15.915  11.435 -0.1295 -0.0043  0.0613
26476W        W46010   2.070   4.560  11.626 -0.0392 -0.3046  0.1538
26477W        W46011   1.315  12.217   1.092 -0.1396  0.0799  0.1922
26478W        W46012  17.257   4.058  12.965 -0.0479  0.0154 -0.0457
26479W        W46013  13.616  17.538   3.916  0.1367 -0.0636 -0.0686
26480W        W46014  14.107  13.379   9.746  0.0171  0.3851 -0.2345
26481W        W46015  15.235   4.302   3.118  0.1054  0.1837 -0.2790
26482W        W46016   9.062  12.487   4.133 -0.0986 -0.0789 -0.0333
26483W        W46017  10.858  16.913  14.238 -0.0116 -0.3329 -0.0853
26484W        W46018   5.295  17.163   0.358  0.0758  0.1935  0.1143
26485W        W46019  10.246   3.767  10.771 -0.0979 -0.0447  0.3066
26486W        W46020   2.529  10.679   3.393 -0.1042  0.4938  0.1915
26487W        W46021   9.916  11.385  13.006 -0.2756  0.0729  0.1471
26488W        W46022   6.019  14.980  12.663  0.2001  0.0083  0.2392
26489W        W46023   1.059  18.978  10.187 -0.0024 -0.2696 -0.1582
26490W        W46024  14.052  11.695  11.494  0.1187  0.1855  0.0463
26491W        W46025   0.531   0.648  12.809 -0.1867  0.1650 -0.1940
26492W        W46026  17.187  14.807   2.054  0.1317 -0.0078  0.1487
26493W        W46027   4.117   9.175   3.498  0.1740  0.2792  0.1541
26494W        W46028  14.637   8.481  14.273  0.3691  0.0388 -0.2116
26495W        W46029   3.971   0.367  10.335 -0.0724 -0.0706 -0.1422
26496W        W46030  11.467   9.459  12.537 -0.1253  0.3757 -0.0853
26497W        W46031   6.645   1.802   0.530  0.0996 -0.2197 -0.1426
26498W        W46032   8.095  18.476  13.939 -0.1237  0.2604  0.7780
26499W        W46033   0.745   1.936  10.450  0.0778  0.1117  0.0809
26500W        W46034  13.303   9.790   1.607  0.0203  0.3878  0.2175
26501W        W46035  12.328  12.226  11.150  0.0274 -0.1436 -0.2097
26502W        W46036   6.723   6.836   2.412  0.0487 -0.1700  0.0569
26503W        W46037  10.526  11.660   0.927 -0.2476  0.4022 -0.1010
26504W        W46038  13.007  15.911   3.274 -0.0378  0.1017 -0.2136
26505W        W46039  12.953  11.421   3.347 -0.1161 -0.2064  0.3464
26506W        W46040   6.939  11.177   1.951  0.0450 -0.0938  0.0029
26507W        W46041   4.182  10.630  14.175  0.0740 -0.0274 -0.0986
26508W        W46042  18.605  12.571  11.036 -0.1165  0.2119 -0.1717
26509W        W46043  18.897   8.207  13.989 -0.0096 -0.0230  0.0336
26510W        W46044   9.892   0.483  10.460  0.3519 -0.1624  0.1351
26511W        W46045   1.292   8.917   2.255  0.0329  0.2015  0.1541
26512W        W46046  13.762  16.328   3.251  0.2163  0.3139 -0.0229
26513W        W46047  15.986  10.900   3.736 -0.1377 -0.1688  0.0414
26514W        W46048   4.979  11.878  10.816  0.5276  0.0664 -0.0667
26515W        W46049   7.718  13.644  13.852  0.1680  0.0727  0.2410
26516W        W46050   1.915   0.603   1.390 -0.1659 -0.1266 -0.3430
26517W        W46051  14.607  12.944  11.660  0.0586  0.1635  0.2001
26518W        W46052   9.467  12.042  13.455  0.2399  0.0580 -0.1731
26519W        W46053   2.925  10.475   1.641 -0.1824  0.2842 -0.2855
26520W        W46054  14.814   1.405  14.333 -0.0626  0.1757  0.0633
26521W        W46055  16.332   2.727   3.713  0.0294 -0.4579 -0.0317
26522W        W46056   1.265   0.066   3.878 -0.0661  0.2685 -0.0056
26523W        W46057  12.848   0.084   3.375 -0.0655 -0.1573  0.0106
26524W        W46058  11.717  18.273   3.838  0.0268  0.0870 -0.2047
26525W        W46059   0.481   1.509  12.410  0.2510 -0.0357  0.1858
26526W        W46060  18.021  16.146   0.571 -0.3238  0.0183  0.3122
26527W        W46061  14.118  14.026   0.594  0.2046 -0.2871  0.0233
26528W        W46062  15.124   7.729  12.436  0.2088 -0.1320 -0.0984
26529W        W46063  18.128  13.533   2.726  0.0142  0.1617  0.3155
26530W        W46064  16.518  13.778  12.091  0.2393 -0.0188  0.2067
26531W        W46065  18.293   6.897  13.428 -0.0018  0.1639  0.1712
26532W        W46066   5.680  18.164   4.784 -0.0629  0.1034  0.1412
26533W        W46067   4.316   8.866   3.130  0.3010  0.1571  0.1569
26534W        W46068   8.088  16.486  12.629 -0.1864  0.3081  0.1220
26535W        W46069   5.348   8.846   2.464 -0.1366 -0.0702  0.1446
26536W        W46070  10.218   8.582   3.045  0.0008  0.0375 -0.3820
26537W        W46071  19.088  16.453  12.092  0.1398 -0.0789 -0.1255
26538W        W46072  16.565  14.468  12.426  0.0484  0.1267  0.0140
26539W        W46073   0.502   1.659  11.514 -0.1027 -0.0609 -0.0772
26540W        W46074   7.014  16.799   2.523  0.0487  0.1680 -0.1988
26541W        W46075   6.171   3.473  11.525 -0.0985 -0.3751  0.1272
26542W        W46076   4.727   0.223  11.601  0.0089  0.1423  0.3569
26543W        W46077  17.534  15.645  12.706 -0.0299  0.1828 -0.1724
26544W        W46078  18.436   2.563   1.639  0.0475 -0.2895 -0.0532
26545W        W46079   5.864   1.993   3.528  0.1828  0.2966  0.1538
26546W        W46080   9.988  17.920   1.629 -0.0631 -0.1309  0.0307
26547W        W46081  10.952  19.462  11.775 -0.0915  0.1438 -0.1815
26548W        W46082   0.359   9.727  11.442 -0.1077 -0.1995 -0.2963
26549W        W46083   6.568   2.479  13.544 -0.3420 -0.1334  0.1178
26550W        W46084  19.465   2.138   0.764  0.3984 -0.0422 -0.0939
26551W        W46085  15.215   2.768  10.991  0.0428  0.3672 -0.0006
26552W        W46086   2.276   1.375  13.267  0.0004 -0.2010  0.1984
26553W        W46087  18.373  15.690   2.478  0.1022  0.1533  0.1552
26554W        W46088   1.740   8.196   1.703 -0.3807  0.0040 -0.0682
26555W        W46089  14.082  10.848  10.129  0.1977  0.4509  0.0996
26556W        W46090   6.879  19.055   2.622  0.0185  0.3681 -0.0101
26557W        W46091  10.181   1.826  13.047 -0.1207  0.1685  0.2826
26558W        W46092   6.706  10.791   4.073  0.2665 -0.1635 -0.0178
26559W        W46093   8.444  16.605  11.805 -0.1034 -0.6843  0.0802
26560W        W46094   3.242  16.569   4.019  0.2129 -0.0788 -0.0630
26561W        W46095   4.565  12.220   3.325 -0.1948 -0.4007 -0.2361
26562W        W46096   7.522   4.842   3.952  0.1551  0.0828  0.0023
26563W        W46097   7.869  11.578  13.706 -0.1526 -0.3293 -0.1639
26564W        W46098  18.164   6.676   1.885  0.1355 -0.0014 -0.0647
26565W        W46099   6.274  18.642   3.110  0.0754  0.2073  0.0297
26566W        W46100  13.811  17.364   2.652  0.1030  0.2784 -0.0759
26567W        W46101  10.773   2.746   2.756  0.2538  0.0789  0.2454
26568W        W46102   4.312   0.741   3.168  0.0057 -0.4454  0.0027
26569W        W46103  12.427   9.445  11.818 -0.1486  0.1351 -0.1444
26570W        W46104   1.590  15.329  10.776  0.3415 -0.0017  0.4571
26571W        W46105   8.811   8.514  12.129 -0.2033 -0.0862  0.0414
26572W        W46106   0.982  11.303   2.112  0.2689 -0.0237  0.0031
26573W        W46107   0.391  12.919  12.568  0.1954  0.1168 -0.1134
26574W        W46108  17.941  10.251  13.809 -0.3129  0.0171 -0.0898
26575W        W46109  15.745   8.383   3.337  0.3105 -0.0551 -0.2952
26576W        W46110   2.682  13.349  13.178  0.2627  0.0359 -0.0060
26577W        W46111   9.936  10.238   2.966  0.0512 -0.3547  0.2010
26578W        W46112  11.798  18.794   1.705  0.3037  0.1351  0.0157
26579W        W46113   1.941   7.761   0.367  0.0652 -0.2341  0.1644
26580W        W46114  11.322   9.700   3.945  0.1589  0.0837 -0.3539
26581W        W46115  13.381   5.982  11.722 -0.0326 -0.1154  0.1192
26582W        W46116  12.161   8.470   4.033 -0.0807  0.1321 -0.0819
26583W        W46117   2.188   6.595   2.194 -0.0087 -0.0010 -0.4633
26584W        W46118  19.397  19.402   1.757  0.2995 -0.1594 -0.3006
26585W        W46119  13.463   8.138   5.582 -0.0904  0.0558 -0.0746
26586W        W46120   3.022   9.451  11.782 -0.0792 -0.2741  0.1546
26587W        W46121  17.082   8.891  13.265 -0.2118  0.4182  0.0051
26588W        W46122   9.808  17.699  12.101  0.0528  0.1127 -0.3344
26589W        W46123   4.168   1.058  14.284 -0.1162  0.0156 -0.0049
26590W        W46124   5.173  13.821   3.185  0.0662  0.3450 -0.1248
26591W        W46125  10.029   1.622  11.396  0.1628  0.1149  0.0511
26592W        W46126   6.481   7.430   9.588  0.1610 -0.1882  0.3806
26593W        W46127   1.736   9.495   1.133 -0.0772 -0.1102 -0.2515
26594W        W46128   7.468  18.630   4.324 -0.0460  0.1309 -0.0251
26595W        W46129  10.556   4.704   3.347 -0.0162 -0.0644 -0.0385
26596W        W46130  19.035   4.394   1.111  0.2356  0.0663 -0.2877
26597W        W46131  15.071  11.582   0.387  0.1469 -0.2364 -0.1107
26598W        W46132  12.762  16.880  11.813  0.2709  0.1209  0.1057
26599W        W46133  11.336   6.548   1.137  0.0746 -0.0327 -0.0016
26600W        W46134  10.639   6.822   2.275 -0.0165  0.1385  0.3885
26601W        W46135   5.829  12.004  14.094  0.0799  0.0378 -0.1774
26602W        W46136  19.287   0.884   4.088 -0.1951  0.1036 -0.0351
26603W        W46137  11.726   8.252   3.144 -0.0626  0.0894  0.3896
26604W        W46138   6.928  18.986   1.531  0.0535  0.1928  0.0644
26605W        W46139  11.607  16.210   0.909  0.1110  0.4654  0.0262
26606W        W46140   0.870  14.480  10.092  0.0775  0.1170  0.0957
26607W        W46141   4.409  12.930   2.066 -0.2132 -0.4500 -0.1693
26608W        W46142   8.722   9.331  10.554  0.0682  0.0621  0.0431
26609W        W46143  17.340  18.979   0.266 -0.1749 -0.1379 -0.2654
26610W        W46144   6.494   4.573  12.706  0.0214 -0.0766  0.2399
26611W        W46145  15.700   7.464   3.659  0.0953  0.0148  0.1269
26612W        W46146  12.116   3.759  13.960 -0.1140 -0.4705 -0.1239
26613W        W46147   6.231   0.239  10.729  0.0491 -0.1073  0.4027
26614W        W46148   7.812  17.070  13.726 -0.0002  0.3193 -0.1367
26615W        W46149  13.687   1.463  10.849 -0.4307 -0.2172  0.1887
26616W        W46150   7.591   6.938   0.205  0.0872  0.1280  0.1270
26617W        W46151   4.072  16.360   0.681  0.3665  0.2119 -0.0222
26618W        W46152  11.911   9.041  10.804 -0.2655 -0.0259 -0.2328
26619W        W46153   9.149   1.177   3.548 -0.0312 -0.1349 -0.0624
26620W        W46154  18.416   9.650   4.730 -0.0216  0.2142 -0.4171
26621W        W46155  17.029   0.288   9.390  0.1815 -0.1004  0.2308
26622W        W46156   2.207  11.564   0.575  0.0136  0.0280  0.0116
26623W        W46157   2.331  16.879  10.126  0.1212  0.1784 -0.0328
26624W        W46158   3.237  16.001  14.108 -0.2350  0.1382  0.0724
26625W        W46159   4.863  17.017  12.490  0.0668  0.1594  0.0026
26626W        W46160   5.793   5.168  13.001 -0.1906  0.2434  0.2102
26627W        W46161  11.446  17.625  11.045  0.1209  0.2318 -0.0099
26628W        W46162  18.004   8.041  10.087 -0.0715  0.0319  0.0558
26629W        W46163  12.510  14.140   1.085  0.1830  0.1339 -0.1392
26630W        W46164   9.274  13.846  13.539  0.0591 -0.1490 -0.0481
26631W        W46165   6.245  16.462   1.487  0.1781  0.0376  0.1261
26632W        W46166   2.341  14.395   2.211 -0.0949 -0.1926  0.1724
26633W        W46167   4.484  11.586   9.619 -0.2452  0.0449 -0.3352
26634W        W46168   4.157   9.652   2.386  0.2383 -0.0024 -0.2264
26635W        W46169  15.257  18.427   3.371 -0.5528  0.3787  0.1321
26636W        W46170   5.476  16.014   3.823  0.0058  0.2179  0.0105
26637W        W46171  11.262  13.414  10.398  0.0330 -0.1134 -0.1618
26638W        W46172   7.768  16.127   3.314  0.2009  0.0107  0.0053
26639W        W46173  15.814  18.462  11.052 -0.0382  0.1598  0.2942
26640W        W46174  12.357   3.793   3.640  0.1937  0.2004  0.3722
26641W        W46175  15.887  10.385   0.315  0.0018 -0.0544 -0.1784
26642W        W46176  13.065  10.584   0.802  0.1446 -0.0392  0.0208
26643W        W46177   2.468  14.179  10.942  0.1326  0.0117 -0.1650
26644W        W46178  16.774   1.137  13.967 -0.0963  0.2057 -0.0742
26645W        W46179   0.461  14.366  10.367  0.0246  0.4772 -0.1428
26646W        W46180   2.557   7.893  10.805 -0.1104 -0.2962 -0.2468
26647W        W46181  17.892   1.622  12.771 -0.1809 -0.1522  0.1343
26648W        W46182  12.355  16.699   9.422  0.0640  0.0227 -0.0111
26649W        W46183   2.411  15.348   1.888  0.0982  0.0687 -0.1508
26650W        W46184  14.396  16.893   0.089  0.1459  0.0957  0.0206
26651W        W46185  18.534  11.402   2.624 -0.1200  0.2439 -0.4005
26652W        W46186   3.965  17.223  10.805 -0.0540  0.1735  0.0398
26653W        W46187  18.147   6.017  11.445 -0.0751 -0.0947  0.0332
26654W        W46188   6.437  13.220  11.727 -0.0933  0.1399  0.0506
26655W        W46189   9.905   0.337   4.507  0.0147 -0.0652 -0.3050
26656W        W46190  15.697  12.665   3.443  0.3596 -0.2068 -0.0021
26657W        W46191  10.404  15.580  10.378  0.0793  0.0977 -0.0256
26658W        W46192  18.628   0.793  13.679 -0.0512 -0.2389 -0.0185
26659W        W46193  15.491   5.889   4.297 -0.1951  0.2771  0.0164
26660W        W46194   7.368  14.746  10.655  0.0464  0.0168  0.0850
26661W        W46195  18.916   3.658   1.584 -0.3899 -0.1058 -0.0621
26662W        W46196  11.660   1.734   0.570  0.1231 -0.0631 -0.0111
26663W        W46197   6.637   2.090   0.029  0.0523  0.4471  0.0182
26664W        W46198   3.658  13.975   2.244 -0.1619 -0.0117  0.0119
26665W        W46199  12.311   3.347   3.331 -0.3093 -0.0532  0.1652
26666W        W46200  18.143  11.245   3.529 -0.0074 -0.0608  0.1838
26667W        W46201  18.554  15.015   1.248 -0.0622 -0.0008 -0.1799
26668W        W46202  16.671  16.133  13.243 -0.4198  0.2441 -0.0101
26669W        W46203   4.630   9.594   0.128  0.2313  0.0689  0.2487
26670W        W46204   3.289  17.402   2.885 -0.3441  0.2565  0.0322
26671W        W46205  16.308  19.498   0.420  0.0628 -0.1570  0.1117
26672W        W46206   4.119  12.347  10.646 -0.0657 -0.0539 -0.1363
26673W        W46207   2.550   9.808   3.219 -0.0609 -0.1614  0.2006
26674W        W46208   1.220  14.321   0.975 -0.3824  0.0470  0.2526
26675W        W46209   9.714   2.411   4.720 -0.2210 -0.0865 -0.1013
26676W        W46210   6.895  10.664  13.400 -0.1054 -0.1667  0.5159
26677W        W46211   1.177   5.071   9.736  0.0256 -0.1648 -0.0477
26678W        W46212  17.331   7.837  12.154 -0.0392  0.0992  0.0690
26679W        W46213   2.718  19.189   0.758 -0.2739  0.1653 -0.3031
26680W        W46214   2.728  12.646  12.530  0.1064  0.0235 -0.0442
26681W        W46215   6.131   1.568  10.398  0.1545 -0.4667 -0.2117
26682W        W46216  10.389   3.428   1.980 -0.0887  0.3428  0.0387
26683W        W46217   2.161  11.514  11.360  0.0630  0.2346 -0.1850
26684W        W46218  10.035   6.233   1.650 -0.1982  0.0537  0.1267
26685W        W46219  10.643   1.694  13.672 -0.2870  0.1763  0.1754
26686W        W46220   1.544  17.835  13.279 -0.0914  0.0233 -0.0962
26687W        W46221  15.170  15.105  14.162  0.1255 -0.0539 -0.1577
26688W        W46222  13.448   4.785   5.165  0.3543 -0.0775 -0.0502
26689W        W46223  15.191  14.914   2.516 -0.1648 -0.3483 -0.0529
26690W        W46224   3.108   3.896  12.710  0.1251 -0.0501 -0.4032
26691W        W46225   2.089   2.846   2.296 -0.2171 -0.1450 -0.1940
26692W        W46226  14.259   7.450   0.213 -0.0799 -0.0574 -0.0941
26693W        W46227   6.649   4.772  10.917 -0.0106  0.1237  0.2697
26694W        W46228  14.830   6.739   1.396 -0.2437  0.2235 -0.0189
26695W        W46229  17.983  11.444   2.559  0.0722  0.0736 -0.1789
26696W        W46230   4.925   9.658  10.651  0.3375  0.0252  0.1134
26697W        W46231   9.247  17.255   0.827 -0.2053 -0.1333  0.2039
26698W        W46232   7.468  10.171   0.541 -0.1038 -0.0275  0.0092
26699W        W46233   4.693  16.909  13.763  0.0497  0.1943  0.1751
26700W        W46234   0.312   6.800   2.295  0.1052  0.0154 -0.2818
26701W        W46235  13.093   8.451  12.935 -0.1153  0.1888  0.2459
26702W        W46236  17.724  10.091   0.505  0.0409  0.1473  0.3660
26703W        W46237  10.217   6.804   0.696 -0.2088  0.1396  0.4866
26704W        W46238  18.504   9.664  13.343  0.3058 -0.0077 -0.0508
26705W        W46239  18.498   3.261   3.415  0.0667 -0.1509  0.0176
26706W        W46240   9.808   4.979  10.595 -0.1682 -0.0779 -0.2188
26707W        W46241  13.824   7.179  12.445 -0.3408 -0.2421 -0.0494
26708W        W46242  17.965   6.876  12.398  0.1876 -0.0073 -0.1618
26709W        W46243  17.748   9.480   2.943  0.0238  0.0384 -0.2807
26710W        W46244  15.217   7.744   3.427 -0.0909 -0.2251 -0.1150
26711W        W46245   3.876  10.870   1.100  0.2010 -0.3030 -0.2205
26712W        W46246  11.578  13.823   0.029 -0.1518 -0.0445  0.1984
26713W        W46247  15.599   8.801   1.256 -0.2658  0.2445  0.0921
26714W        W46248   3.056  18.575  12.255  0.0784 -0.0577  0.1577
26715W        W46249   0.251   2.774  12.216  0.0042 -0.0198  0.2118
26716W        W46250   3.898  13.882  13.962  0.0930 -0.0300 -0.1479
26717W        W46251   5.036  10.812  12.467 -0.0774 -0.2182  0.1207
26718W        W46252  17.925  19.366   1.914  0.2167 -0.1450 -0.1267
26719W        W46253  11.156  13.511   3.093 -0.1658  0.2584  0.1170
26720W        W46254  13.801   2.396  10.960  0.0053  0.2010  0.2470
26721W        W46255  17.455   9.563   4.488 -0.1318 -0.0411 -0.0249
26722W        W46256   5.877  13.856   2.865 -0.1668 -0.0489 -0.0406
26723W        W46257   3.126   8.909   0.505 -0.0541  0.1050  0.3223
26724W        W46258  14.244  12.350   2.550 -0.0227  0.0894  0.3074
26725W        W46259   8.716  12.706  10.944 -0.1082  0.1264 -0.1820
26726W        W46260  17.589  16.934  13.486  0.0957  0.0492 -0.1396
26727W        W46261  18.522   6.885   2.280  0.0286  0.0888 -0.2432
26728W        W46262   0.887   9.526  12.320  0.2699 -0.0068 -0.0293
26729W        W46263   2.170  17.609   0.217 -0.1085  0.3529 -0.0686
26730W        W46264  17.529  18.613  11.435  0.0751 -0.0882  0.0485
26731W        W46265  12.362  11.033   0.564 -0.0932  0.2563  0.0082
26732W        W46266  14.826  18.159  11.472  0.0145  0.2024 -0.2198
26733W        W46267  14.533   3.609   2.963 -0.4103  0.0618 -0.2272
26734W        W46268  15.094   7.243   3.523  0.1140  0.1933  0.0451
26735W        W46269   8.572  15.133  11.791 -0.1328 -0.2385 -0.1226
26736W        W46270  16.490   9.967   3.303 -0.0763  0.0422 -0.1576
26737W        W46271   5.689   8.333  11.604  0.0639  0.4652  0.0672
26738W        W46272  19.391   3.339   0.300 -0.1300 -0.1471 -0.0534
26739W        W46273   0.571   1.190  10.621  0.0860  0.0380  0.0861
26740W        W46274   5.919  13.798  10.242 -0.1580  0.1142 -0.0670
26741W        W46275   6.706  12.736   2.768 -0.2037 -0.1530 -0.1004
26742W        W46276   0.010   1.658  14.274  0.0233  0.2336  0.1093
26743W        W46277   4.390   8.871   2.325  0.0428  0.0766  0.0436
26744W        W46278  17.010  12.461  11.329 -0.0137  0.0431  0.3613
26745W        W46279  10.103  13.325  13.043 -0.1913  0.0586 -0.1034
26746W        W46280   3.123   6.196  11.121 -0.0449  0.3434 -0.0617
26747W        W46281   1.983  11.313   3.385 -0.1126  0.3325 -0.0136
26748W        W46282   5.297   5.202   2.744  0.0576 -0.0059 -0.1550
26749W        W46283  16.506   4.352   0.609 -0.1891 -0.2947  0.0479
26750W        W46284   1.477   8.176  10.551 -0.4811 -0.1799 -0.1196
26751W        W46285   4.191   4.981   3.273 -0.1428  0.0543  0.0037
26752W        W46286   1.446  17.122   1.458 -0.2920  0.0264  0.3019
26753W        W46287  15.294   4.190   2.609 -0.3521  0.2802  0.0753
26754W        W46288   3.271  18.069  13.202  0.1326 -0.4417  0.1499
26755W        W46289  13.828  13.406   3.327 -0.0034 -0.1746  0.1750
26756W        W46290   7.913  11.599  14.208 -0.2056  0.0627 -0.4485
26757W        W46291  17.492  13.283   0.994  0.2542  0.0067  0.0045
26758W        W46292  16.336   1.762  13.981 -0.2204 -0.0379  0.2245
26759W        W46293  14.513  12.051  11.786 -0.0242  0.0780 -0.1336
26760W        W46294  18.330   2.817  11.798 -0.0395  0.0121 -0.1603
26761W        W46295   9.530   2.968  11.959 -0.2032 -0.5360 -0.1157
26762W        W46296   5.724   7.765   2.714  0.2107  0.0663 -0.0787
26763W        W46297  13.306  19.022  12.272  0.0319  0.0962  0.1659
26764W        W46298   3.629  16.548   1.797  0.2019 -0.0875 -0.0892
26765W        W46299  16.039   9.439  12.400  0.0308 -0.0029  0.2415
26766W        W46300  10.567  18.648  14.284  0.2483 -0.0081 -0.2265
26767W        W46301  18.228  16.268   1.364 -0.1024  0.0477  0.0634
26768W        W46302   1.629  16.488  12.625  0.2165 -0.0034  0.1382
26769W        W46303   0.605  14.921   4.325 -0.0089 -0.0644 -0.1036
26770W        W46304   4.021   6.762  11.217  0.2412 -0.2096  0.0770
26771W        W46305  15.909   4.628  14.234  0.4081 -0.3422 -0.1590
26772W        W46306  10.813  14.322  11.920 -0.0358 -0.1395 -0.3753
26773W        W46307   8.304  10.529   3.408  0.1294 -0.0384 -0.1000
26774W        W46308   2.582  14.651  10.178 -0.0367  0.0770 -0.0730
26775W        W46309  10.867   3.205   1.815  0.1614 -0.0601  0.1168
26776W        W46310  11.376   8.939  13.977 -0.0227 -0.2129  0.2194
26777W        W46311  12.408  18.478  14.097  0.0408 -0.0726 -0.1263
26778W        W46312  15.886  16.290   3.129 -0.2667 -0.1604  0.0214
26779W        W46313  13.687   8.342  11.088 -0.2041  0.1714  0.0392
26780W        W46314   7.563   6.862  10.400 -0.1759 -0.1343  0.1129
26781W        W46315  15.912  14.631  11.109  0.1524  0.0812  0.0491
26782W        W46316  15.329  19.249   5.404  0.0602  0.3003  0.1994
26783W        W46317   2.788   4.808   0.455 -0.0734 -0.2612  0.2208
26784W        W46318   5.729  17.595  11.120  0.0830  0.2440  0.0088
26785W        W46319  19.494   1.633   5.239 -0.3498 -0.1697  0.0430
26786W        W46320   2.332   5.366   4.267  0.3198 -0.0660 -0.2736
26787W        W46321  13.157   3.182   1.037  0.2344  0.3311 -0.1363
26788W        W46322  11.493   2.059  14.119 -0.2827  0.0738  0.0972
26789W        W46323   8.644   7.465   0.248 -0.1822  0.2716  0.0010
26790W        W46324   2.880  11.995   1.066  0.1029  0.0759 -0.0709
26791W        W46325  12.291   4.515  12.244  0.0882 -0.0880 -0.0374
26792W        W46326  19.319  19.359   1.213  0.0379 -0.1328 -0.0242
26793W        W46327   5.299  10.633   2.508 -0.1826 -0.3925  0.1451
26794W        W46328   3.510  17.979   3.081 -0.2904 -0.0903 -0.1779
26795W        W46329  12.882  17.144  13.175 -0.2321  0.0035  0.0301
26796W        W46330  10.533  15.221   2.686  0.1093 -0.0676  0.2067
26797W        W46331   8.599   2.955   3.895  0.0116 -0.1156 -0.0139
26798W        W46332  19.351   3.915   1.519  0.3407 -0.0118 -0.3258
26799W        W46333   6.648  13.838   3.173 -0.0845  0.0355 -0.3271
26800W        W46334  16.318   1.226  10.498  0.0441 -0.0265 -0.1176
26801W        W46335   6.032   8.580  11.140 -0.1082 -0.5035 -0.0173
26802W        W46336  18.938   0.276  13.656 -0.1338 -0.0480 -0.0405
26803W        W46337   6.705  15.542  13.862 -0.0920 -0.1803 -0.3133
26804W        W46338   8.695   3.312  12.985 -0.1212 -0.1211 -0.1123
26805W        W46339  12.737   5.875   2.754  0.4434  0.0767 -0.0459
26806W        W46340  14.142   3.340  10.098  0.1506 -0.0818 -0.2173
26807W        W46341   4.411   7.350  13.041  0.1850 -0.0399 -0.0123
26808W        W46342  18.467  13.188  11.760  0.0772 -0.0937  0.0029
26809W        W46343  11.215   1.459  12.888 -0.0058  0.1577  0.0121
26810W        W46344  17.589  16.873   3.151  0.0840  0.1400  0.2599
26811W        W46345   2.433  11.110   2.612  0.3460  0.0675  0.0507
26812W        W46346   0.105   2.309  12.008  0.0369 -0.0239 -0.0641
26813W        W46347  12.883   2.063  12.177 -0.2424 -0.0226 -0.2828
26814W        W46348  12.088   4.302  11.096 -0.2254 -0.3339 -0.1948
26815W        W46349  11.547  14.404   2.841 -0.0915  0.0227 -0.1817
26816W        W46350   1.850  18.828   4.421  0.2951 -0.4387  0.0494
26817W        W46351  10.804  15.534   1.104  0.1402 -0.0358 -0.2339
26818W        W46352   0.345  16.122  11.390 -0.2887 -0.1351  0.2417
26819W        W46353   2.614  19.368   3.702  0.3743 -0.0784  0.1073
26820W        W46354   5.011  11.699  12.510 -0.0921 -0.0367  0.1815
26821W        W46355  12.833  19.191   2.417  0.1288  0.0102  0.1713
26822W        W46356   2.607   1.150  13.842  0.1088  0.1448  0.0709
26823W        W46357  11.053  15.785   3.699 -0.0187  0.1849  0.0690
26824W        W46358  16.849   6.524   3.086  0.1754 -0.0325 -0.0574
26825W        W46359   5.340   5.675   3.262  0.2318 -0.1983  0.1013
26826W        W46360   7.896   2.917  13.649  0.1801  0.0950 -0.4402
26827W        W46361   1.872  16.331   3.980 -0.3287 -0.0740  0.0714
26828W        W46362   4.997  10.966  10.403 -0.2335 -0.2050  0.3134
26829W        W46363   8.121   2.578  12.745 -0.0689  0.0392 -0.0628
26830W        W46364   2.169   0.002  11.892  0.0246 -0.2873  0.1912
26831W        W46365   1.007   7.707  11.714  0.1251  0.1318  0.1232
26832W        W46366  18.316  17.186  10.795 -0.3056  0.2031 -0.0415
26833W        W46367   0.650   3.537  11.702  0.1385 -0.3643 -0.0538
26834W        W46368  15.945   8.221   2.927  0.3289 -0.1455  0.2775
26835W        W46369   1.979   3.217   4.095 -0.0580  0.3563  0.1206
26836W        W46370  18.873   5.916   2.334 -0.2887 -0.2090 -0.1387
26837W        W46371  13.356  17.335  11.987 -0.1485  0.1925 -0.1864
26838W        W46372   8.829   5.000   3.975 -0.1072 -0.2383 -0.0630
26839W        W46373   5.775   0.910  11.116 -0.3056  0.1022  0.3142
26840W        W46374   2.778   3.452  12.681 -0.0361  0.0060  0.0809
26841W        W46375   7.954   9.322  13.432  0.1954 -0.0650  0.1839
26842W        W46376  14.660   4.578  10.847 -0.3778 -0.3685  0.3147
26843W        W46377   9.212  15.018   0.549 -0.3549  0.0697 -0.0935
26844W        W46378  13.715  13.472  13.203 -0.1869  0.3297  0.3387
26845W        W46379   9.982   0.988  10.472  0.2135 -0.0506  0.2103
26846W        W46380   2.008  13.180   0.669 -0.1949  0.1242 -0.0248
26847W        W46381   4.323  12.030  12.124 -0.1086  0.1018  0.1841
26848W        W46382  11.608  11.768  13.470 -0.2519 -0.0671 -0.1485
26849W        W46383   3.948  16.777  11.606  0.1345 -0.0795  0.2555
26850W        W46384  17.206   1.604  13.174 -0.0573  0.2667  0.1343
26851W        W46385   5.593  12.790   0.206 -0.0213 -0.1612  0.3617
26852W        W46386   6.512  12.994  14.269  0.1185 -0.0648 -0.1926
26853W        W46387  11.607   0.670  13.060 -0.4264 -0.3896  0.1337
26854W        W46388   4.701  12.339  14.203  0.0558  0.0153 -0.0606
26855W        W46389  15.592  15.732   9.329  0.1059 -0.0518 -0.1980
26856W        W46390  12.412   8.781  11.713  0.1360  0.2329  0.3174
26857W        W46391  17.817   1.684   3.456 -0.0543 -0.0901 -0.2107
26858W        W46392  16.397   6.578   3.682 -0.0740  0.1955  0.0504
26859W        W46393   5.001  17.304   3.579  0.1047 -0.3633 -0.0231
26860W        W46394  17.575   1.120   2.415  0.2231  0.2458  0.0143
26861W        W46395   3.524   8.265   2.962 -0.0801  0.1686  0.1903
26862W        W46396   2.059  12.034   3.214  0.2512 -0.1850 -0.1932
26863W        W46397  15.466   4.158  13.050  0.0905  0.2054  0.0548
26864W        W46398   5.332   6.058  11.376  0.0008 -0.0961 -0.1057
26865W        W46399   3.824  12.800   0.755 -0.2063  0.2430 -0.1530
26866W        W46400  15.721  14.505  11.558  0.1000 -0.1688  0.1836
26867W        W46401   4.680  15.746  11.368 -0.0755  0.2390 -0.0582
26868W        W46402   7.090   2.232   9.646 -0.1357 -0.1524 -0.1644
26869W        W46403  13.909  12.867   1.443 -0.1569 -0.2846 -0.0463
26870W        W46404   6.891   5.284  12.549  0.1254  0.1700  0.3561
26871W        W46405  17.693   0.923  13.581  0.3495  0.0263 -0.0250
26872W        W46406   5.042   7.189   2.479  0.1924  0.2114 -0.1580
26873W        W46407   3.147   0.099   2.833 -0.0935 -0.3940 -0.2677
26874W        W46408  10.078  11.817  10.486  0.1061 -0.0612 -0.1413
26875W        W46409   1.228   3.722  10.337  0.1965  0.2247 -0.0883
26876W        W46410  13.408  18.640  12.731 -0.1866 -0.0391  0.2123
26877W        W46411   4.167   7.900   0.707  0.1474 -0.3025 -0.1271
26878W        W46412  17.410   7.960  10.685 -0.3180 -0.3143  0.0047
26879W        W46413   2.495  10.585   0.640  0.2430 -0.0892 -0.5657
26880W        W46414   2.615   8.096  11.869 -0.0779 -0.1225 -0.1223
26881W        W46415  16.066  15.629   2.246  0.3183 -0.1181 -0.3217
26882W        W46416  14.570   3.526  14.010  0.0376  0.2890 -0.3084
26883W        W46417   9.962   3.905   1.426  0.0406 -0.0756  0.1526
26884W        W46418  11.023   9.864  13.704  0.2209 -0.0346 -0.1826
26885W        W46419  12.296  17.565  14.291 -0.2003  0.0698  0.0628
26886W        W46420   4.571  13.365  12.908  0.3844  0.0639 -0.1449
26887W        W46421  18.985   4.786  10.936 -0.1633 -0.0054  0.2545
26888W        W46422  10.611   2.579  11.554 -0.0689  0.3773  0.1684
26889W        W46423  12.837  10.198  12.584  0.0606 -0.0085 -0.0535
26890W        W46424  17.715   3.922   4.191  0.2798 -0.4109 -0.0722
26891W        W46425   1.758   6.166   4.428 -0.1136 -0.0764 -0.0663
26892W        W46426   9.238  13.585  12.557  0.1760  0.0458 -0.0459
26893W        W46427  12.837   6.170   3.180  0.3846  0.0399 -0.3273
26894W        W46428  18.219   5.852   3.378  0.0186  0.1479  0.0095
26895W        W46429   7.820  15.128   2.729 -0.2503  0.1271 -0.1518
26896W        W46430   0.229  10.121   3.443  0.0284  0.2864  0.1093
26897W        W46431   1.501  12.443   0.348 -0.2929 -0.0365  0.0038
26898W        W46432   9.384  14.058  12.204 -0.1058  0.1950  0.1531
26899W        W46433  15.880   8.577   0.509  0.3057 -0.1490 -0.0332
26900W        W46434  16.714  10.938   2.940 -0.0985 -0.1205  0.1828
26901W        W46435  11.487   1.969   2.219  0.0637  0.2444  0.2133
26902W        W46436   0.903  18.751   4.445  0.0605  0.0221 -0.1397
26903W        W46437   0.326   8.213   1.858 -0.2316 -0.0818  0.2320
26904W        W46438  15.108   0.695   3.996  0.0441  0.1937  0.0957
26905W        W46439   5.500  18.059  12.625  0.0582 -0.1155  0.0538
26906W        W46440  13.085  13.087   2.293  0.1027 -0.2043 -0.0847
26907W        W46441   2.749  15.694  11.177  0.1664  0.0389  0.0045
26908W        W46442   7.447   9.325  10.025  0.1038  0.2326 -0.2540
26909W        W46443  14.852  17.527   0.789  0.1452 -0.0236 -0.2109
26910W        W46444   3.350  18.435  11.879  0.0901 -0.0097  0.2434
26911W        W46445   5.174   7.806   2.394 -0.0225 -0.1392 -0.2026
26912W        W46446  16.535  18.147  13.781  0.0167  0.3943  0.3659
26913W        W46447  15.442   2.125  11.906 -0.3593 -0.0260  0.0091
26914W        W46448  19.124   5.364  12.248  0.0256  0.0459  0.1466
26915W        W46449  17.659   2.382  12.283 -0.0666 -0.0462 -0.3210
26916W        W46450  15.221   4.542   0.738  0.1479  0.2802 -0.0360
26917W        W46451  13.916  14.310   1.785 -0.0190 -0.0281  0.3139
26918W        W46452   4.438   2.303  11.218  0.0484  0.0120 -0.2628
26919W        W46453   6.099  15.509  12.666  0.0271 -0.0603 -0.4882
26920W        W46454  16.528  13.926   0.510  0.1402 -0.0917 -0.3096
26921W        W46455   7.989  13.250  12.092 -0.2225  0.0071 -0.1149
26922W        W46456   0.670  10.837   1.964  0.0344 -0.0599 -0.0513
26923W        W46457  14.178  15.213  13.156 -0.4580 -0.2979 -0.0299
26924W        W46458   4.324   5.304   1.569 -0.1810  0.1713 -0.0755
26925W        W46459   4.429   1.933   4.084  0.0193  0.1523  0.0732
26926W        W46460   6.885  10.645   0.746 -0.5252  0.3943 -0.0129
26927W        W46461   2.473  11.244  14.148 -0.0245  0.3722 -0.0225
26928W        W46462   3.969  13.878   3.716 -0.1757 -0.1879 -0.0395
26929W        W46463  18.428   8.190  14.231 -0.0226 -0.3951 -0.1536
26930W        W46464  15.989   3.478   0.072 -0.1073 -0.2054  0.2734
26931W        W46465  16.782  14.174  11.996  0.0368 -0.2086 -0.1170
26932W        W46466  14.865  18.418   2.064 -0.1445 -0.0563 -0.1590
26933W        W46467  17.759   3.811   1.873  0.2979  0.1401  0.0751
26934W        W46468   9.986   2.258   2.681 -0.3085  0.1363 -0.1190
26935W        W46469   6.710  17.971  13.758  0.1173 -0.0254 -0.0972
26936W        W46470  11.075  18.259   2.422  0.4810  0.2832  0.0196
26937W        W46471   2.018   1.418  12.556  0.2077  0.2646  0.0912
26938W        W46472  15.471  16.772   2.553 -0.3018  0.2126  0.1489
26939W        W46473  16.834   3.734   2.404 -0.0174  0.1317  0.0409
26940W        W46474   7.599  12.996  11.694 -0.0350 -0.1730  0.0863
26941W        W46475   7.170  17.988  11.547  0.0907 -0.2250 -0.0524
26942W        W46476  12.078  17.496  10.694  0.1253  0.2148 -0.0250
26943W        W46477   6.792   4.201   3.883  0.3843 -0.0030  0.4949
26944W        W46478  15.286   0.119  13.223  0.0036 -0.1190 -0.4120
26945W        W46479   6.928  17.020  10.833 -0.2153 -0.0500 -0.2860
26946W        W46480   5.277   9.997  10.522 -0.1371 -0.1376 -0.1041
26947W        W46481   9.594   5.977  11.923 -0.3091  0.1101  0.4501
26948W        W46482   7.793   7.914  11.942  0.2552  0.0168  0.2034
26949W        W46483   1.342   0.079  13.191 -0.0852 -0.5395 -0.0555
26950W        W46484  14.450  16.986   2.348 -0.4800 -0.2391  0.0729
26951W        W46485   3.929   6.045   2.200 -0.0943  0.0965 -0.2713
26952W        W46486  11.020   9.147   1.658 -0.0928 -0.0100  0.1910
26953W        W46487   7.425   3.497   2.393 -0.1191 -0.0713 -0.4330
26954W        W46488   2.552   5.183   3.877 -0.0600  0.4088  0.2959
26955W        W46489   2.167  18.000   4.366  0.0570  0.0981 -0.4562
26956W        W46490   2.301  15.148   2.658  0.1678  0.1826 -0.1413
26957W        W46491  13.042   1.343   4.484  0.1534 -0.2900 -0.1303
26958W        W46492   8.691  16.605   1.506 -0.1217 -0.0511 -0.3174
26959W        W46493  11.877  15.518   0.212  0.3289  0.0892  0.1533
26960W        W46494  11.398  11.753  10.858 -0.0119  0.1490  0.3022
26961W        W46495   4.243  17.694   3.958 -0.0236  0.1526 -0.0981
26962W        W46496  18.265   7.492   2.991 -0.4751 -0.0494 -0.2022
26963W        W46497  16.293   5.297   0.481 -0.1391  0.1511  0.1519
26964W        W46498   6.253   7.000   9.308  0.1658  0.1138 -0.1175
26965W        W46499   8.244   1.810   1.605  0.0759  0.1242  0.1115
26966W        W46500   1.878   8.311  12.541 -0.0086 -0.2951 -0.0999
26967W        W46501  13.877  19.106   1.898  0.0237  0.1631  0.0612
26968W        W46502   3.692   9.215   3.798 -0.1933  0.1245 -0.3047
26969W        W46503  11.673   4.804   3.330  0.0125 -0.1444  0.1899
26970W        W46504  18.963   1.742   4.076  0.0969 -0.0911  0.0137
26971W        W46505   6.522   7.698  13.925 -0.3122  0.2768  0.1396
26972W        W46506   7.820  16.909  12.008 -0.1046  0.1878  0.1180
26973W        W46507  14.457   7.234  14.143 -0.3099  0.6050  0.2471
26974W        W46508  14.869  12.362   2.257  0.4322 -0.2455 -0.2582
26975W        W46509   0.836  11.738   1.931  0.0104 -0.0545  0.2385
26976W        W46510  13.412  13.235   3.588  0.3151 -0.0840  0.1577
26977W        W46511   9.795   4.521   9.534  0.2314  0.1877 -0.0083
26978W        W46512  15.576   1.974  14.231 -0.0598  0.1080  0.3519
26979W        W46513   8.999   8.329   3.046 -0.2194 -0.3482 -0.2633
26980W        W46514   8.128  17.735   1.632 -0.3136  0.0333  0.0815
26981W        W46515  15.515   7.888   9.517 -0.2729 -0.3764  0.0114
26982W        W46516   9.033  10.360   0.031 -0.1882 -0.3979  0.0282
26983W        W46517   6.218   7.292   0.884  0.0243 -0.3196 -0.0350
26984W        W46518  13.638  11.181   0.319  0.0597 -0.2926  0.0932
26985W        W46519   6.553   4.259   9.896  0.1121 -0.3416  0.2726
26986W        W46520  17.372   5.796   3.135 -0.2525  0.3089 -0.0702
26987W        W46521   3.781   6.545   4.020  0.2642  0.2080  0.0782
26988W        W46522   3.011   0.712  11.921 -0.2130  0.1024 -0.2443
26989W        W46523  16.382   6.786  11.908 -0.3131 -0.1860 -0.0464
26990W        W46524   1.661   3.781   0.577 -0.1977  0.0238 -0.3563
26991W        W46525  11.413   6.247  11.908  0.0649 -0.0940  0.4778
26992W        W46526  19.112   2.048  13.670 -0.0070  0.1069  0.3319
26993W        W46527  11.334  14.295  11.176  0.0591 -0.1772  0.1593
26994W        W46528  12.852  11.494  10.904 -0.2418 -0.2015  0.1424
26995W        W46529   9.753   3.257   1.102  0.0129  0.0716 -0.1414
26996W        W46530   8.579  19.346  10.132 -0.0815 -0.1446 -0.1187
26997W        W46531   7.433  15.445   3.591  0.4082  0.2383  0.2255
26998W        W46532  18.961   4.940   1.202 -0.3853 -0.0648  0.4051
26999W        W46533   2.607   9.672   9.995 -0.1072 -0.0404  0.1229
27000W        W46534  10.588   3.579  13.455 -0.3581  0.1661  0.0818
27001W        W46535   2.210  18.058   0.064 -0.0732 -0.0101  0.1963
27002W        W46536  13.386  13.619   0.141  0.0282  0.0715 -0.1791
27003W        W46537   1.852  11.952  13.329  0.2324  0.2455  0.2324
27004W        W46538  16.343  15.590  11.530 -0.0203 -0.0666  0.3921
27005W        W46539  18.605  18.449   1.503 -0.3465 -0.1895 -0.1453
27006W        W46540  16.316  16.520   0.163 -0.0609 -0.1126 -0.4936
27007W        W46541  16.037  13.753  10.561  0.0750 -0.0437 -0.1486
27008W        W46542  13.291   1.528   1.346  0.0381 -0.1039 -0.1965
27009W        W46543   9.167   7.165  10.951  0.0177  0.1545  0.0847
27010W        W46544   3.251  17.387  14.261 -0.1707 -0.2300  0.0551
27011W        W46545   0.827   8.189   3.807 -0.0508 -0.5065  0.2675
27012W        W46546  14.221   2.360   1.859 -0.1578  0.0575  0.0596
27013W        W46547  13.131   7.119   1.656  0.0698 -0.0215  0.0792
27014W        W46548   3.140  15.618   2.583 -0.2376 -0.0951  0.0300
27015W        W46549  18.609   7.669   0.897  0.4369  0.0817  0.3156
27016W        W46550  13.401  16.270   1.824  0.2869 -0.0305 -0.2750
27017W        W46551   1.936   2.519   3.672 -0.0426 -0.1555  0.1665
27018W        W46552  14.376   2.389   2.410  0.0693  0.0440 -0.0847
27019W        W46553   5.100  17.619  11.201 -0.1858 -0.0515 -0.4323
27020W        W46554  10.382  17.190   2.755 -0.2941  0.1929 -0.1761
27021W        W46555   9.826   4.226  13.818  0.2206 -0.0870 -0.0950
27022W        W46556   0.897   6.593   1.504  0.0124 -0.2751 -0.1636
27023W        W46557  16.790  17.357  11.600  0.0314  0.0628  0.2735
27024W        W46558  11.331   5.503   1.945  0.1923 -0.1202  0.2234
27025W        W46559  11.966   9.143   0.530  0.0425  0.0878  0.2611
27026W        W46560   0.678   2.555  11.109  0.5012  0.1946  0.0702
27027W        W46561  11.314  19.071  12.999 -0.0910  0.0539  0.3289
27028W        W46562   4.801  18.667  11.329  0.0531  0.2360  0.1073
27029W        W46563   1.622   3.016  13.768  0.1758 -0.6069  0.2239
27030W        W46564   4.136  14.006   0.952 -0.0183 -0.1655  0.0179
27031W        W46565   4.917   3.538  11.968 -0.0210 -0.0172  0.1898
27032W        W46566  14.108  10.439   1.224 -0.1076  0.1334 -0.2280
27033W        W46567   4.554   6.857  11.088  0.0268  0.1927  0.0671
27034W        W46568   0.540   6.716   1.828 -0.1483 -0.0087 -0.1046
27035W        W46569  11.739   6.005   1.965  0.1044 -0.1990 -0.3222
27036W        W46570   8.506   4.815   2.935 -0.1976 -0.0424  0.1822
27037W        W46571   6.503   8.735  12.509  0.7691  0.0351  0.2634
27038W        W46572  18.150   9.602  12.971  0.0564  0.0776 -0.1564
27039W        W46573   0.796   6.573  11.150 -0.0715 -0.0303  0.0233
27040W        W46574   0.411   7.694  11.584 -0.1541  0.0186 -0.4607
27041W        W46575   4.304   4.216   1.557  0.1682 -0.3701 -0.1426
27042W        W46576  10.581  12.299   3.903  0.1826 -0.2230  0.0275
27043W        W46577   5.729  15.974   1.177 -0.2140 -0.1998  0.0138
27044W        W46578   0.816  11.033  12.444  0.0195  0.1694  0.0024
27045W        W46579   9.839  15.497  11.729 -0.0270 -0.0172 -0.3188
27046W        W46580   4.559  14.288   0.065  0.1680  0.0973  0.0469
27047W        W46581  11.990  18.389  13.781 -0.0925  0.3577 -0.3898
27048W        W46582   9.802   2.088   2.168 -0.2370  0.4209  0.0616
27049W        W46583  13.342  12.391   2.902 -0.3565  0.3095 -0.1688
27050W        W46584   4.354   1.942   2.400  0.0121 -0.3168 -0.1614
27051W        W46585   8.437  12.044   4.769 -0.1735 -0.1572  0.1673
27052W        W46586   2.875   2.280   0.327 -0.0206 -0.1557  0.1521
27053W        W46587  15.653   2.898  12.420 -0.1715 -0.0116 -0.1569
27054W        W46588  11.295   8.774   1.997 -0.0662 -0.1477 -0.1506
27055W        W46589   2.620   7.784   2.196 -0.2332  0.2248  0.1595
27056W        W46590   5.017  11.988  14.037  0.0921  0.2649  0.0018
27057W        W46591   3.714   2.442  13.096  0.0837 -0.0446 -0.3835
27058W        W46592  10.234  10.360   0.781 -0.0266 -0.0526  0.1312
27059W        W46593   2.299   8.011   1.726  0.1611  0.3784 -0.3376
27060W        W46594  14.819  13.299  13.125  0.1246  0.1577  0.2299
27061W        W46595   7.108  13.719  13.978  0.0968  0.0845  0.1118
27062W        W46596  14.346   0.582  13.620 -0.0295  0.0206  0.1604
27063W        W46597  15.829   1.322   4.138 -0.0351  0.0892  0.0814
27064W        W46598   3.679   7.572   0.662  0.0192  0.2387 -0.2128
27065W        W46599   6.181   0.095   2.927  0.0754  0.0503 -0.1330
27066W        W46600   0.517   0.730   3.255 -0.1231 -0.0411  0.0102
27067W        W46601  18.135  18.996   0.249  0.2744 -0.2477 -0.1574
27068W        W46602   2.627  11.492  11.164 -0.2639  0.0185 -0.2719
27069W        W46603   5.602  11.725   1.876 -0.1295  0.2290 -0.3116
27070W        W46604  19.093  16.846  13.754  0.2838 -0.3143 -0.1331
27071W        W46605  14.007   3.330  11.985 -0.1475  0.3556  0.2243
27072W        W46606  12.309   1.484   9.359  0.0791  0.0520  0.2206
27073W        W46607  17.615  19.031  11.063  0.3357 -0.0066  0.1523
27074W        W46608  12.535   4.680   1.434  0.0057 -0.1067  0.0075
27075W        W46609  11.308  16.440  13.470 -0.0879 -0.2925 -0.1452
27076W        W46610  16.501   5.917   1.312  0.2289  0.3427 -0.0896
27077W        W46611  12.061   3.898  10.565 -0.0364  0.0277 -0.1763
27078W        W46612   7.193   7.007   2.256 -0.1131  0.0006 -0.1777
27079W        W46613  19.223  17.840  11.117 -0.1623 -0.0642 -0.1390
27080W        W46614   2.959   4.998  10.658  0.0019 -0.1558  0.1723
27081W        W46615  14.942   4.231  11.043  0.1170  0.5896  0.1062
27082W        W46616  11.202   3.526  12.152 -0.1833  0.0697  0.3669
27083W        W46617  18.912   5.072  13.475 -0.1762  0.0535  0.0478
27084W        W46618  14.439  16.707  11.454  0.0624 -0.1211  0.2711
27085W        W46619  13.763  13.650  13.720  0.1267  0.0094 -0.0748
27086W        W46620  14.415   7.046   1.592  0.0213  0.1107  0.3354
27087W        W46621   2.825   9.895  11.737 -0.6640 -0.1580  0.1030
27088W        W46622   9.119  10.999   0.473 -0.0192 -0.2044 -0.2799
27089W        W46623  10.410  11.642   4.478  0.1866 -0.0050  0.2773
27090W        W46624   3.090  11.536  11.314 -0.1296  0.2421 -0.1415
27091W        W46625  10.019   4.786   1.947  0.2522 -0.0547  0.1394
27092W        W46626   5.711   9.216  13.127  0.0114 -0.0286  0.1682
27093W        W46627   6.041  10.322   2.107 -0.0745  0.2052  0.2275
27094W        W46628   4.026   5.826   1.697 -0.0133 -0.3183 -0.1398
27095W        W46629  14.276  12.106  11.164 -0.2088 -0.0712 -0.1370
27096W        W46630  10.221   8.217  11.716 -0.0493 -0.2460 -0.1288
27097W        W46631  14.027  11.747  14.093 -0.1708  0.0326 -0.2691
27098W        W46632  10.958   0.982  10.089 -0.0072 -0.1333  0.0790
27099W        W46633  13.047   3.506   3.459 -0.0156  0.0175 -0.2419
27100W        W46634  18.935   7.353   4.985 -0.1576 -0.1309 -0.0426
27101W        W46635  12.747   2.708   3.674  0.2089 -0.0397 -0.1103
27102W        W46636   3.689   2.592  14.303  0.0487 -0.3033  0.0241
27103W        W46637  17.939   2.711  13.508  0.2689  0.3161  0.2210
27104W        W46638   4.330  10.023  10.113  0.0553  0.1377  0.1259
27105W        W46639   2.833   0.542   0.189  0.1335 -0.2986  0.2198
27106W        W46640   2.880  10.962   2.180 -0.1276  0.2682  0.2020
27107W        W46641   7.154   1.243  11.192 -0.2990 -0.1137 -0.3273
27108W        W46642   0.658   8.270   0.228  0.2497  0.4300 -0.2170
27109W        W46643   7.848  17.411  13.314 -0.0455  0.0219  0.0414
27110W        W46644  10.615  13.602  12.337  0.0730 -0.1143  0.2521
27111W        W46645  15.718  10.399  10.633  0.0057 -0.2867 -0.1438
27112W        W46646  14.409   1.556  12.372 -0.0600  0.0095  0.1169
27113W        W46647  13.073  14.063  12.124  0.2178 -0.0227 -0.0329
27114W        W46648   2.520   9.293   2.981 -0.0364  0.0825  0.0013
27115W        W46649   9.411   8.926  14.279  0.0440 -0.1254  0.1459
27116W        W46650  15.950  13.460  11.976  0.0382  0.0764 -0.1486
27117W        W46651  11.536  14.259   3.632  0.0006 -0.2027  0.1345
27118W        W46652  14.069  15.701  14.177  0.1592 -0.0330  0.0458
27119W        W46653  17.573  16.683   1.790  0.0081 -0.0973 -0.1299
27120W        W46654  11.354  13.247  13.323  0.1780  0.0282 -0.1403
27121W        W46655   2.045  16.429   0.094  0.1182  0.2144  0.0998
27122W        W46656  11.670   9.039  12.245 -0.0152 -0.0925  0.1566
27123W        W46657  11.136  18.330   0.516  0.1169  0.2281 -0.0459
27124W        W46658   5.640  13.489   3.087 -0.0100 -0.1309  0.2470
27125W        W46659   0.473   3.354   3.024  0.3800  0.1561 -0.0442
27126W        W46660  14.996   0.355  12.862 -0.3486  0.0605  0.1946
27127W        W46661  18.215  14.017  11.577  0.0110  0.1837  0.1723
27128W        W46662   0.765   9.117  12.548  0.1849 -0.0164 -0.1928
27129W        W46663  17.436  12.851   3.594  0.0687 -0.0105 -0.0593
27130W        W46664   5.283   2.056   1.592  0.0336  0.0769 -0.1418
27131W        W46665   4.635  12.512   2.385  0.2526 -0.1895  0.1917
27132W        W46666  10.510   5.693  12.152 -0.1172  0.2304  0.0013
27133W        W46667   2.952  14.024  14.330 -0.1410  0.1969 -0.1892
27134W        W46668   1.610  19.316   1.698 -0.0476  0.1918 -0.0973
27135W        W46669   2.365  18.889   0.947  0.4960 -0.2298  0.0630
27136W        W46670  12.646   6.738   0.833  0.1681  0.2661  0.0315
27137W        W46671  13.157   4.948  13.613  0.1203  0.1421 -0.0570
27138W        W46672  14.580   1.326  10.441  0.1440  0.1499  0.1086
27139W        W46673  10.969  12.913  10.428 -0.2159  0.3883  0.1539
27140W        W46674  17.147  17.815   0.012 -0.2003  0.0863  0.0482
27141W        W46675   6.417   4.233   3.136  0.1371  0.1119 -0.1102
27142W        W46676  18.827  12.230   2.849 -0.2067 -0.1906  0.1249
27143W        W46677  14.477   0.465  10.341  0.1467  0.0016  0.2065
27144W        W46678   9.178   9.787  11.561  0.1475  0.3042  0.1158
27145W        W46679   6.463   7.308  10.119 -0.1762  0.2503 -0.1514
27146W        W46680   3.604  10.479  10.691  0.0914 -0.0814 -0.1667
27147W        W46681   4.563   3.727   4.477  0.2273 -0.2841  0.1607
27148W        W46682  10.415   2.873   0.324 -0.0267 -0.0984 -0.1977
27149W        W46683   5.621   4.410   1.362  0.1728  0.3111 -0.0048
27150W        W46684  14.381  11.602   3.962 -0.1661 -0.2330 -0.1147
27151W        W46685  14.191  12.331  13.357  0.0089  0.0343  0.0969
27152W        W46686   7.952  10.437   4.660 -0.0578  0.1156  0.0422
27153W        W46687  12.955   2.549  11.858 -0.1674  0.0252 -0.0611
27154W        W46688  18.044   6.485  13.211  0.0346 -0.1941 -0.0411
27155W        W46689   7.151   6.910   0.488 -0.0688 -0.1002  0.1461
27156W        W46690   1.383  12.201  13.268  0.1169  0.0159  0.0296
27157W        W46691  15.962   9.966   1.569  0.0530 -0.2727  0.0481
27158W        W46692   1.546  18.204  12.000  0.1278 -0.2587  0.1379
27159W        W46693  10.414   7.221   0.192 -0.0226  0.0092 -0.1809
27160W        W46694  15.828  15.164  10.896  0.0108  0.1108 -0.0702
27161W        W46695   1.956  15.062   0.866  0.3519 -0.0738  0.0148
27162W        W46696  10.590  18.940  11.079 -0.0212  0.4359 -0.2274
27163W        W46697  14.740   9.018   2.377 -0.1210 -0.1969  0.0830
27164W        W46698  19.041  14.370  13.294 -0.0356 -0.1761  0.1324
27165W        W46699   7.792  15.255   1.242 -0.0764  0.0211 -0.0910
27166W        W46700   3.350   1.994  12.969 -0.1240 -0.1247 -0.2931
27167W        W46701  11.465  15.714   3.416 -0.0638  0.0426 -0.1062
27168W        W46702  19.043  13.035  12.919  0.0051 -0.0816 -0.2935
27169W        W46703   1.425  10.648   1.620 -0.2090  0.3247  0.1979
27170W        W46704   9.848   7.423  12.208 -0.2396 -0.1779  0.0923
27171W        W46705   0.863  17.374  14.153  0.4790  0.3752 -0.0352
27172W        W46706   8.969  14.732   3.642 -0.0710 -0.4164  0.0661
27173W        W46707   8.814   9.969  14.058  0.2695  0.5934  0.1034
27174W        W46708  11.906  17.201   1.807  0.0102  0.0773 -0.0187
27175W        W46709  10.097   1.872  12.434  0.1299  0.1546 -0.0741
27176W        W46710   3.113  16.176   4.339 -0.1792 -0.0378  0.4252
27177W        W46711  13.817  14.104   0.156  0.1865 -0.0364  0.0714
27178W        W46712   7.407  16.999  11.609  0.1625  0.1488 -0.0633
27179W        W46713   6.954  16.732  11.696  0.0580  0.1473  0.0180
27180W        W46714  15.334   5.638  10.928  0.0028 -0.0670  0.0008
27181W        W46715  12.832   6.559   2.092 -0.1035  0.0275  0.1800
27182W        W46716   8.223   0.475   9.481  0.2570 -0.0246 -0.5306
27183W        W46717  16.131   8.793   1.753  0.1796  0.3819 -0.1061
27184W        W46718   6.631   2.066  11.310 -0.1809 -0.1271 -0.0029
27185W        W46719  17.305   1.325   4.274  0.0014 -0.0182  0.3014
27186W        W46720  15.536  12.808  10.261  0.2112 -0.2463 -0.0714
27187W        W46721  17.650   1.423  11.189 -0.0642  0.0833 -0.1540
27188W        W46722  18.190  11.663   9.993  0.0643 -0.0319 -0.4796
27189W        W46723  16.651   6.854   5.131 -0.0641  0.5982 -0.0201
27190W        W46724   0.958  14.517   0.117 -0.1000 -0.2424 -0.0081
27191W        W46725   5.746   0.681  10.610  0.2695  0.1279 -0.2834
27192W        W46726  15.873   5.318   1.786 -0.0086 -0.3563  0.4570
27193W        W46727   2.795  16.774  13.682 -0.1881 -0.1958 -0.1963
27194W        W46728  15.926  12.317   1.867 -0.0470 -0.2509  0.1604
27195W        W46729   0.532   2.081  11.746 -0.1660  0.0276  0.1695
27196W        W46730  17.674  18.419  11.018  0.0466 -0.2882  0.1490
27197W        W46731  14.942  14.500   3.715 -0.0071 -0.0457  0.1437
27198W        W46732   5.837  18.107   3.202  0.0252  0.1616  0.2419
27199W        W46733   7.090   1.467   3.587  0.3810 -0.5801 -0.3069
27200W        W46734   9.197   5.991   4.874 -0.2477 -0.0466  0.1071
27201W        W46735  17.124  10.866  12.290  0.2561  0.1269  0.1188
27202W        W46736  12.555   9.970   0.848  0.2472 -0.2344 -0.0684
27203W        W46737   4.125   7.429   0.824 -0.0028  0.2058 -0.1261
27204W        W46738  11.607  12.179  10.607  0.0249 -0.2404 -0.3921
27205W        W46739   2.806  11.562   1.341 -0.0759  0.1041 -0.0039
27206W        W46740  17.623   6.151   4.083  0.1106  0.0412 -0.2610
27207W        W46741  15.532  14.243  13.460 -0.0963 -0.3148 -0.1788
27208W        W46742   9.268   1.048  13.520 -0.3036  0.1696 -0.4446
27209W        W46743   6.938   6.039   0.011  0.0587 -0.1327  0.0112
27210W        W46744  13.712   6.064  13.894  0.0181  0.0472 -0.2842
27211W        W46745   6.099  13.371  12.599  0.0400  0.0566 -0.1212
27212W        W46746  15.274   1.097   2.499 -0.0810 -0.0545  0.0108
27213W        W46747  15.834   8.968  12.030  0.0343  0.0335  0.0610
27214W        W46748  10.763  17.339   4.137  0.1317  0.2347  0.0479
27215W        W46749   8.101  18.438  12.731  0.0457  0.2891 -0.2620
27216W        W46750   4.593   3.137   2.880 -0.0590 -0.0798 -0.1993
27217W        W46751   8.557  15.608   2.418  0.0030  0.4033 -0.1249
27218W        W46752  14.310  11.637   2.150  0.3406  0.1159 -0.1916
27219W        W46753  16.099  12.122   2.788  0.2842  0.1320 -0.1986
27220W        W46754  15.808   1.832   0.515  0.1300 -0.0241  0.0776
27221W        W46755  13.256   1.310   9.930  0.2535  0.1102  0.0340
27222W        W46756  17.220   9.637  10.988  0.3444 -0.1543  0.0774
27223W        W46757  13.408   8.044  13.736 -0.0477  0.0281 -0.1055
27224W        W46758  19.446   8.825   1.069  0.0438 -0.1554  0.0005
27225W        W46759   2.899   3.344   1.260  0.1649 -0.1682 -0.0684
27226W        W46760   4.699  16.987   1.241 -0.3409 -0.1067  0.0763
27227W        W46761   6.082  18.243  12.391 -0.0491  0.0211  0.3291
27228W        W46762   7.757  10.141  13.148  0.3728 -0.3474 -0.0738
27229W        W46763  10.619  18.159  10.565  0.0170  0.3246 -0.3338
27230W        W46764   8.472  14.112  10.559 -0.3040 -0.4048 -0.4120
27231W        W46765   1.335  14.003   0.534 -0.1038 -0.0529  0.3329
27232W        W46766  19.305   9.304   1.166 -0.0794 -0.0427 -0.1823
27233W        W46767   6.137  13.310   0.233 -0.1715 -0.0667  0.0716
27234W        W46768   5.163  12.801  14.255  0.2129 -0.1318 -0.0749
27235W        W46769   8.300   5.022   2.513 -0.0716  0.2115 -0.1362
27236W        W46770  15.524  11.675   9.983  0.4740 -0.1679  0.4111
27237W        W46771   9.738  14.522  13.791  0.2022 -0.1600 -0.2714
27238W        W46772  11.803   2.687   2.795  0.0909 -0.2327  0.2857
27239W        W46773   0.028  12.679   1.791 -0.0817 -0.0649  0.1062
27240W        W46774   2.933   6.203   3.319 -0.0162 -0.1712 -0.1081
27241W        W46775  18.337  15.718   9.697  0.1680  0.0568 -0.3579
27242W        W46776  17.890   8.015   3.010 -0.0497  0.0787  0.0915
27243W        W46777  10.549  10.652  10.944  0.2312 -0.1136 -0.2253
27244W        W46778   5.081   8.500   3.627 -0.5010 -0.0373 -0.3317
27245W        W46779  11.299   8.900  12.596  0.2145  0.1259  0.3690
27246W        W46780  10.719  18.250   1.437  0.1251 -0.0209 -0.1962
27247W        W46781   1.813   8.239   2.805 -0.2036 -0.1196  0.0222
27248W        W46782   0.594  19.150  13.012  0.0061  0.0058  0.0469
27249W        W46783  10.013   3.740  13.684  0.0401 -0.0452 -0.1231
27250W        W46784  15.946   1.188   0.798 -0.3569 -0.1514 -0.2268
27251W        W46785  13.562   3.225   1.448  0.2562  0.2412 -0.0622
27252W        W46786  17.337  19.072  14.117 -0.1732  0.0649  0.2461
27253W        W46787   9.997  16.372   1.326 -0.1227 -0.1308  0.0677
27254W        W46788   3.367   0.402   2.539 -0.1479 -0.0598  0.3974
27255W        W46789  10.153   1.019  13.480  0.1270 -0.3387 -0.1268
27256W        W46790  16.649  17.484   2.247  0.0004 -0.1085 -0.3267
27257W        W46791  12.747  19.391  12.943  0.3036 -0.1505 -0.2365
27258W        W46792   0.028   6.016  13.033 -0.0259 -0.2339  0.1768
27259W        W46793  15.963   0.353   0.481  0.0568 -0.1779 -0.2837
27260W        W46794  13.351   5.942   4.085  0.0837 -0.3691  0.0608
27261W        W46795   5.785   9.523   3.047  0.0636 -0.0448  0.1344
27262W        W46796  17.435  19.449  13.016 -0.0475  0.1608 -0.3880
27263W        W46797   4.506   5.286   4.601 -0.1065 -0.0235  0.4455
27264W        W46798  12.707   0.159   4.991  0.0822 -0.4370 -0.1433
27265W        W46799  16.437  10.061   2.079  0.2940  0.1619 -0.0046
27266W        W46800  15.540   9.450   3.335 -0.0334 -0.0104 -0.2369
27267W        W46801  11.377   0.906   2.371  0.2149 -0.0752  0.1735
27268W        W46802  16.822  16.761   2.917 -0.2515 -0.0515 -0.0395
27269W        W46803   0.064   9.132   5.092  0.0949 -0.1503  0.0686
27270W        W46804  15.433   5.664  14.326  0.2088 -0.3170 -0.0181
27271W        W46805  11.549  12.636  14.005 -0.0395  0.2453 -0.1586
27272W        W46806   8.838   9.634   2.944  0.0452  0.2682  0.3299
27273W        W46807  12.409   2.062   0.241  0.4404  0.1035 -0.0904
27274W        W46808  12.496   9.153  10.822  0.3999  0.0934 -0.2735
27275W        W46809   9.928  15.105  11.380 -0.2114 -0.4102 -0.0021
27276W        W46810  11.389   1.245   3.051  0.0407  0.0075  0.1539
27277W        W46811  13.657  14.441  13.023 -0.2287 -0.1883  0.1527
27278W        W46812  19.100   4.750  12.226 -0.0217 -0.2581  0.0735
27279W        W46813  19.040   5.377  11.428  0.2091 -0.1772 -0.0245
27280W        W46814   6.481   9.136   2.444 -0.0438  0.2366 -0.0199
27281W        W46815  10.007   7.567   0.089  0.0018 -0.0224  0.0086
27282W        W46816  14.094  14.704   0.873  0.0415 -0.0459  0.0523
27283W        W46817   3.622  12.335  10.573  0.1183 -0.0147 -0.0879
27284W        W46818  11.124   5.146   1.201 -0.0467  0.1699  0.0490
27285W        W46819  12.893  11.867  13.132 -0.1805  0.1526  0.1617
27286W        W46820  17.396   5.023   4.185  0.0838 -0.0535 -0.0768
27287W        W46821   2.421  12.442   2.256  0.1412  0.0266 -0.0893
27288W        W46822   0.862  18.210   1.248  0.0997  0.0083 -0.2538
27289W        W46823   6.731   2.883  13.962 -0.2394  0.3186 -0.2299
27290W        W46824  10.474   3.871   2.301  0.1288  0.0555  0.1385
27291W        W46825   6.176   0.744  10.226  0.2172  0.0716  0.1020
27292W        W46826   3.968  19.453  14.102  0.2202  0.1771 -0.3848
27293W        W46827   8.780  18.764   0.521 -0.1071 -0.2595 -0.2550
27294W        W46828  18.611  14.400   1.225  0.0969 -0.1718 -0.1499
27295W        W46829  12.934   9.415   1.515  0.0518  0.0790 -0.1037
27296W        W46830   3.183  14.919   9.456  0.1101  0.0073  0.0031
27297W        W46831   4.121  15.521   9.978 -0.2573  0.1181  0.1240
27298W        W46832  12.125   3.033   4.457  0.0236  0.0457  0.1625
27299W        W46833  11.751   5.643   2.320 -0.1024  0.0218  0.0229
27300W        W46834   5.940  14.134   3.644  0.0137  0.0664  0.0593
27301W        W46835   4.024   3.087   3.523  0.1209 -0.2929 -0.0897
27302W        W46836  18.503   8.473  13.776 -0.2692 -0.1178  0.1642
27303W        W46837  16.568   2.655   2.786 -0.2185  0.1072  0.2386
27304W        W46838  10.193  17.230  11.651  0.2380  0.2190 -0.1403
27305W        W46839  14.980  17.853   4.725  0.0098  0.2067  0.0171
27306W        W46840   5.978   7.287   3.739  0.0559  0.0965  0.5007
27307W        W46841  16.015  10.718  10.162  0.1730 -0.2597  0.1866
27308W        W46842  12.532   8.559  10.338  0.1150  0.1176  0.0710
27309W        W46843  13.780   4.212   0.620 -0.1483 -0.0305  0.0558
27310W        W46844  13.612  18.034  13.957 -0.0477 -0.0737  0.5867
27311W        W46845  19.027   2.921  14.186 -0.2243  0.1320  0.2976
27312W        W46846  17.605  12.483  12.660  0.0099  0.0511  0.1042
27313W        W46847   3.102   3.817   1.076  0.0761  0.3600 -0.3316
27314W        W46848  16.302   6.424   1.324  0.0878  0.1154 -0.0619
27315W        W46849   1.702  12.208   1.445  0.0703  0.0755  0.1195
27316W        W46850  12.317   7.118  13.311  0.3104 -0.0655 -0.3424
27317W        W46851   9.060   7.326  13.488  0.2019 -0.1087  0.2241
27318W        W46852   3.231   8.557  12.660  0.0771  0.0278 -0.0078
27319W        W46853  15.333   5.211   0.611 -0.1865 -0.1717  0.0132
27320W        W46854   4.597  15.377  10.161 -0.0595 -0.1484 -0.3639
27321W        W46855  11.104  16.213  11.069  0.3117  0.3654  0.0193
27322W        W46856  18.074   8.274   5.067  0.1987  0.0556 -0.3207
27323W        W46857   0.747   5.339  11.313  0.4666 -0.1524 -0.0335
27324W        W46858  13.909   0.623  13.322  0.1350 -0.1180  0.0005
27325W        W46859  14.227   9.667  13.510 -0.2243  0.0893 -0.1708
27326W        W46860  14.476  17.788   4.061 -0.0825  0.1632 -0.2121
27327W        W46861   5.431   1.587  10.787  0.0005 -0.0363 -0.0718
27328W        W46862  11.730   8.684   9.410 -0.0276  0.1483  0.0444
27329W        W46863  14.422   9.500  14.186  0.2369 -0.1910  0.2088
27330W        W46864   9.755   3.477   3.438  0.2621  0.1340  0.0526
27331W        W46865  10.065   3.028   1.712  0.1510 -0.2774 -0.1253
27332W        W46866  16.351   4.770   9.756 -0.0709 -0.2941  0.1712
27333W        W46867  15.849   3.206   4.276 -0.0158  0.0759  0.0879
27334W        W46868  19.260  16.349   1.392  0.0116  0.4441 -0.2759
27335W        W46869   3.193  14.818   3.093 -0.0156 -0.1936  0.1601
27336W        W46870  12.869  14.914  12.659 -0.4283 -0.1446 -0.2962
27337W        W46871  10.405   7.545  14.160  0.0685  0.0805  0.4062
27338W        W46872  17.459  10.527  12.976  0.2253 -0.1715  0.1360
27339W        W46873   2.398   6.949   2.968  0.1876 -0.2297 -0.3499
27340W        W46874  10.335  13.903  13.241 -0.1176  0.0164  0.0129
27341W        W46875   5.230   1.814   2.393 -0.0389 -0.3618 -0.1015
27342W        W46876   5.553  10.277   2.191 -0.1423  0.0140 -0.0546
27343W        W46877  17.279   7.784   3.429 -0.1626 -0.0119 -0.3718
27344W        W46878   6.337   3.086  10.386 -0.0888  0.0264  0.3145
27345W        W46879   1.752  12.385  13.726 -0.1569  0.1716  0.3398
27346W        W46880   1.552  16.234   0.024 -0.2069 -0.0491 -0.1070
27347W        W46881   5.063  10.308   1.982 -0.1216 -0.0242  0.1650
27348W        W46882  15.019   8.191  14.319  0.0534  0.1365 -0.3881
27349W        W46883   2.533   9.571   0.459  0.1614 -0.2073 -0.0191
27350W        W46884   8.357   0.078   3.530  0.3520 -0.4163 -0.0416
27351W        W46885   1.959  11.422  11.907 -0.2192  0.0185  0.1898
27352W        W46886   7.773   3.161   1.957  0.1356  0.0031  0.1631
27353W        W46887  16.536  16.143  11.979  0.1037  0.0427 -0.1413
27354W        W46888   1.690   6.455   1.038  0.1006  0.0776 -0.0815
27355W        W46889   8.555   6.759   9.307 -0.0206 -0.3738  0.0488
27356W        W46890  15.283  12.083  10.187 -0.4071  0.2047  0.0665
27357W        W46891   4.556   4.438  12.017  0.1356  0.0386  0.0398
27358W        W46892   9.576   5.630   3.049 -0.3049 -0.0167  0.2006
27359W        W46893   2.690  12.221   2.713 -0.2149 -0.3137  0.0676
27360W        W46894   2.926   3.680   4.399  0.1195 -0.1335 -0.1786
27361W        W46895   1.175  14.763  10.608  0.0677 -0.1753 -0.3401
27362W        W46896   7.353  18.309  13.405 -0.0615  0.1101  0.0745
27363W        W46897   5.416   7.619   5.237  0.3254 -0.3645 -0.2101
27364W        W46898   4.426  13.087  11.297 -0.0325 -0.1786 -0.1288
27365W        W46899  10.813   8.905  12.471  0.0198  0.2818  0.5519
27366W        W46900   6.795   7.727   3.363 -0.2264 -0.0485  0.1080
27367W        W46901   9.542  17.542  12.582  0.3586  0.0811  0.1008
27368W        W46902   1.617   1.239  11.971 -0.1134  0.1056  0.2075
27369W        W46903  15.293   0.475  10.378 -0.2701 -0.0285 -0.4086
27370W        W46904   9.638   7.184   0.077  0.2969 -0.1128 -0.1608
27371W        W46905  11.472   5.148   1.639  0.1686  0.0500  0.3471
27372W        W46906   7.212  10.518  10.846  0.0225 -0.1814 -0.0241
27373W        W46907   3.555  12.096   0.153  0.2681  0.0077  0.2802
27374W        W46908   0.640   1.495   2.717 -0.0841 -0.0213  0.1525
27375W        W46909   5.805   6.109   0.526 -0.1626 -0.0620  0.2246
27376W        W46910   9.032  13.591   9.934 -0.0073  0.0083 -0.0681
27377W        W46911   7.379   9.372   2.512 -0.1992  0.0080 -0.2316
27378W        W46912  15.754  15.694   3.517  0.1693  0.2120 -0.1269
27379W        W46913  11.513  17.041   3.245 -0.2629 -0.2727  0.0422
27380W        W46914   6.655   3.848  10.660 -0.0041 -0.2451  0.1710
27381W        W46915   5.096  17.484   1.725 -0.0051 -0.0147  0.0582
27382W        W46916   0.325   9.237  11.554 -0.0661  0.4406  0.2808
27383W        W46917   1.499   8.308   1.084  0.1344  0.2312  0.4808
27384W        W46918   1.176  11.952  11.839  0.0732  0.0015 -0.2060
27385W        W46919   8.703  14.423  11.744  0.0345 -0.0603  0.2903
27386W        W46920   6.073   4.610   1.468 -0.1864  0.2686  0.0752
27387W        W46921  14.125   1.851  11.489  0.1474  0.0566  0.0023
27388W        W46922   4.614  12.056   2.080  0.0638 -0.3090  0.0611
27389W        W46923   9.330  16.075   4.375 -0.1181  0.1161 -0.0161
27390W        W46924  16.935  15.842  10.111  0.0018 -0.0223 -0.2049
27391W        W46925   1.218   3.623  13.088  0.1733  0.0035  0.0870
27392W        W46926   4.357   6.249  11.872 -0.3436  0.0042 -0.0182
27393W        W46927   0.495   8.402  14.085  0.3742  0.0894  0.2190
27394W        W46928  11.893   0.357  12.683 -0.6561 -0.0561  0.0120
27395W        W46929   2.376  15.470  10.083 -0.1748 -0.0523  0.0580
27396W        W46930   5.333  12.815  11.504  0.0898 -0.0643 -0.0551
27397W        W46931  19.168  16.495  13.424 -0.0616 -0.2671  0.0381
27398W        W46932   1.188   9.911  11.706  0.0784  0.2509  0.0502
27399W        W46933  13.877  17.038  13.634 -0.0795  0.5134 -0.0590
27400W        W46934  17.205  16.454   2.974  0.2151  0.1346  0.0379
27401W        W46935  13.814  16.976   1.743  0.0477  0.0228 -0.1174
27402W        W46936   4.719   0.178  13.917 -0.0649 -0.3841 -0.0827
27403W        W46937  17.806   6.931  13.541  0.1875 -0.0146 -0.3273
27404W        W46938  19.451   3.754  11.836 -0.4735 -0.0354  0.1373
27405W        W46939   5.598  13.771  11.472  0.1135  0.0519 -0.0305
27406W        W46940   4.716   8.741   2.879  0.3034  0.1244 -0.2325
27407W        W46941  12.772  16.975   1.624 -0.2546  0.3320  0.0531
27408W        W46942  16.333  13.334   2.814 -0.4840 -0.0281  0.0242
27409W        W46943   7.780   5.188   1.510 -0.1869  0.1193 -0.2543
27410W        W46944  17.056   6.664  12.318 -0.1784 -0.2461 -0.1517
27411W        W46945   8.916   8.845   4.322  0.1607 -0.1004  0.0062
27412W        W46946  10.783   2.596   0.113  0.1733  0.1607 -0.0990
27413W        W46947   1.189   8.267  12.925  0.2160 -0.2266 -0.0052
27414W        W46948  19.001  13.744   2.190 -0.3875 -0.0617 -0.2239
27415W        W46949  11.118  17.470   0.435 -0.2236  0.2931 -0.1272
27416W        W46950   7.848   3.690  12.841 -0.1911  0.0952  0.0112
27417W        W46951   1.576  13.231   2.114  0.0573  0.1125  0.1185
27418W        W46952   8.473  16.280  10.801 -0.1548 -0.1033  0.0232
27419W        W46953   7.327   1.367   0.126  0.0516 -0.2557  0.0799
27420W        W46954  13.083  11.752   9.829 -0.1004  0.4483  0.1955
27421W        W46955   1.278   5.275   4.222  0.0840 -0.1375 -0.0076
27422W        W46956  11.663   5.877  13.123  0.1849 -0.1015 -0.0014
27423W        W46957  13.153   7.736  12.506  0.0269  0.2357  0.0066
27424W        W46958  19.047  10.391   2.579  0.0892 -0.1921 -0.2567
27425W        W46959  14.650   5.417   2.676  0.1747 -0.0950 -0.1424
27426W        W46960  12.475  10.331  11.526 -0.0292 -0.0454 -0.2377
27427W        W46961   7.674  15.711  12.762 -0.2097 -0.1706 -0.1564
27428W        W46962  11.053  10.513   1.445 -0.1517 -0.2493  0.0989
27429W        W46963  15.471  12.601  12.257  0.0804  0.1049  0.0095
27430W        W46964  17.917   3.768  12.351 -0.0018 -0.3333  0.0388
27431W        W46965  14.546   2.613  11.611  0.0434  0.1543  0.0349
27432W        W46966   6.521   8.682  11.400 -0.0235  0.2725 -0.0554
27433W        W46967   1.666  18.760  10.889  0.0884  0.0987  0.1146
27434W        W46968  16.471  10.309  10.908 -0.1498 -0.1119 -0.1469
27435W        W46969  13.366   1.247   0.611  0.2128  0.3425 -0.0774
27436W        W46970  19.094   6.213   1.393  0.1233 -0.0730  0.2536
27437W        W46971   7.373   9.575  12.117  0.0527  0.0387 -0.3644
27438W        W46972  16.268   5.043  10.985  0.0148  0.3019  0.1467
27439W        W46973   1.914   0.516   2.464  0.2568  0.0417 -0.2839
27440W        W46974  14.881  18.293  10.340  0.0879 -0.1875  0.2953
27441W        W46975  13.078  19.001  12.976 -0.1682  0.1837  0.0518
27442W        W46976  14.705  18.263  10.784  0.1036 -0.3369 -0.0032
27443W        W46977  14.571   9.526   1.488 -0.1301 -0.0378 -0.3028
27444W        W46978  18.084   8.226   3.449  0.0284 -0.0404 -0.2828
27445W        W46979   2.778  18.242   0.251 -0.1213 -0.0297 -0.1607
27446W        W46980  16.920   3.539   1.891 -0.0529 -0.0852 -0.1193
27447W        W46981  16.829  10.793   0.107 -0.0227  0.2579 -0.1337
27448W        W46982   5.840  16.443   1.135  0.1204  0.1456  0.2025
27449W        W46983  19.173   2.499  11.886 -0.1263  0.0035 -0.3501
27450W        W46984   6.085  16.114   0.194 -0.0928 -0.2272 -0.1674
27451W        W46985   7.110   3.773  13.523  0.1015  0.0567  0.0978
27452W        W46986  11.210   3.954   0.713  0.0671  0.0764  0.1173
27453W        W46987  17.700   3.633  12.774 -0.0681 -0.2896  0.1382
27454W        W46988   3.457  16.633   3.196  0.1813 -0.4234  0.0849
27455W        W46989  18.138  11.118   9.923 -0.0304 -0.1513  0.0218
27456W        W46990  13.614   5.372   1.782 -0.1076  0.1007  0.3445
27457W        W46991  15.403   3.728  12.694  0.0909 -0.0538 -0.1155
27458W        W46992  18.134   6.133   4.062  0.1052 -0.0094 -0.1084
27459W        W46993   8.137  17.871   0.501  0.0992 -0.1265  0.2909
27460W        W46994   7.249  18.834   0.221 -0.1452  0.2809 -0.0742
27461W        W46995   0.675  11.912   2.379 -0.0542 -0.0488 -0.2383
27462W        W46996   5.363   3.073  11.594 -0.2218 -0.0176  0.0541
27463W        W46997  12.818   7.358  11.148 -0.1901 -0.4695  0.2159
27464W        W46998   7.017  18.239  10.674 -0.0821  0.0981 -0.2406
27465W        W46999   7.319   1.695  11.984  0.3764  0.0390  0.0558
27466W        W47000   8.642  13.363  14.003 -0.3609  0.0201 -0.1491
27467W        W47001  18.865  15.406   3.528  0.0920 -0.2128  0.1355
27468W        W47002  19.349   9.937   0.317 -0.1815 -0.0158 -0.0437
27469W        W47003   7.350  17.500  11.554 -0.1843 -0.2006  0.3135
27470W        W47004  15.017   0.560   1.582  0.0329  0.0559  0.2319
27471W        W47005  18.335  10.921   1.903  0.3847  0.2902  0.3154
27472W        W47006   9.031  18.186   1.188  0.0980 -0.0228 -0.2705
27473W        W47007  12.228  18.178  12.122 -0.1443 -0.0879 -0.1310
27474W        W47008  13.973   4.152  12.855  0.1496  0.3257  0.0242
27475W        W47009   8.193  16.127  13.417  0.1380 -0.0388  0.0901
27476W        W47010   0.636  10.753   3.307 -0.0480 -0.1492  0.1017
27477W        W47011  17.407  12.909   3.134  0.1385 -0.0361 -0.0080
27478W        W47012  10.945   2.540  11.946  0.1740  0.2814  0.2506
27479W        W47013  10.653   8.399   2.610 -0.1797  0.0147 -0.1744
27480W        W47014  14.074  17.491   1.742 -0.2270 -0.0830  0.0219
27481W        W47015   3.173  10.791   1.140  0.0903 -0.1177  0.2787
27482W        W47016   7.544  10.187  14.146 -0.0500  0.0091 -0.0063
27483W        W47017   9.714  17.813  12.950 -0.1660  0.1102  0.2479
27484W        W47018   7.726  18.139  12.495 -0.0920  0.1362 -0.1695
27485W        W47019  11.534   9.788  11.421  0.0402  0.1783 -0.0263
27486W        W47020  17.743   7.535   2.813  0.4215 -0.2677 -0.0313
27487W        W47021  19.155  16.506   0.932 -0.1206 -0.0109 -0.0476
27488W        W47022  13.035  13.297   1.363  0.1555 -0.0207  0.2889
27489W        W47023  16.027   1.174   2.960 -0.2666  0.0217 -0.0802
27490W        W47024  15.521   4.625  13.034  0.0459  0.0412  0.2002
27491W        W47025  13.119   3.655   1.243 -0.1519 -0.0033  0.2038
27492W        W47026  14.041  13.583   2.239 -0.1087 -0.0121 -0.0358
27493W        W47027  10.882  15.425  14.050  0.2535  0.1225  0.0533
27494W        W47028  11.392   7.404   2.050 -0.1347  0.1788  0.0498
27495W        W47029  18.273   6.523   0.815 -0.2764 -0.0251 -0.2583
27496W        W47030   9.331  18.022  10.287 -0.0384 -0.1253 -0.0084
27497W        W47031   2.703  17.585   1.296 -0.0692  0.2998  0.2132
27498W        W47032  14.482  19.057  13.848  0.0664  0.1314  0.0314
27499W        W47033  19.184   4.106   0.701  0.2409  0.1743  0.1501
27500W        W47034   3.104  15.710   1.580 -0.1236  0.0100 -0.2320
27501W        W47035   7.975   0.222  11.442 -0.0650 -0.2403 -0.3128
27502W        W47036   8.213   1.218   2.226 -0.1482  0.1889 -0.1716
27503W        W47037   5.626  12.118  12.198 -0.0657 -0.0178 -0.1431
27504W        W47038  16.185   0.426  11.079 -0.2096  0.0187 -0.1769
27505W        W47039  17.330   8.410   4.024 -0.6871  0.2262  0.1978
27506W        W47040   5.814   1.007  13.858 -0.0948  0.1332  0.2272
27507W        W47041   8.172   9.167   0.839 -0.0503 -0.2187 -0.0642
27508W        W47042  14.229  13.173  11.851  0.0176 -0.0581  0.0291
27509W        W47043   5.723   6.495   2.818 -0.1376  0.0728  0.1661
27510W        W47044  15.317  15.304   9.101  0.1036  0.0416  0.0817
27511W        W47045   4.406   2.589  12.614 -0.1597  0.0573  0.2338
27512W        W47046  16.874   9.798   2.931 -0.2376  0.2058 -0.2768
27513W        W47047   5.932  15.956   0.661  0.0522 -0.3631 -0.1950
27514W        W47048  12.735   6.446   1.221  0.3365  0.1409 -0.0790
27515W        W47049  12.443   2.401   2.129  0.3066 -0.1803  0.1828
27516W        W47050  17.875  12.541  11.684  0.1043 -0.2116  0.0965
27517W        W47051  17.060   3.714  13.422 -0.4149 -0.1436  0.2670
27518W        W47052  16.711  16.905  11.369  0.0269  0.0974 -0.0705
27519W        W47053   9.034   2.649   3.577 -0.2940  0.1883 -0.0479
27520W        W47054  16.821  16.474   3.374 -0.4147  0.1637 -0.1916
27521W        W47055   6.017   6.944   1.133  0.1499  0.1152  0.0611
27522W        W47056  14.630   8.365   0.482  0.2504 -0.3222 -0.1381
27523W        W47057   4.140  13.114  10.111  0.1001  0.1794 -0.0854
27524W        W47058   9.469   0.008   2.305 -0.2690 -0.2013  0.3497
27525W        W47059   8.673  15.903  12.172  0.2028 -0.0357 -0.3314
27526W        W47060  16.283  14.835   2.443  0.0879 -0.3418  0.0293
27527W        W47061   6.508  10.641  12.307  0.2107 -0.4471 -0.0160
27528W        W47062   3.827   0.877  11.953 -0.3585  0.1966  0.3844
27529W        W47063  10.512  15.544   3.084 -0.0207 -0.1842 -0.1027
27530W        W47064  14.276   1.733   3.583 -0.3459  0.1177  0.0924
27531W        W47065   0.693  17.164  12.539 -0.4003  0.1951  0.2486
27532W        W47066   9.623   5.788  13.855 -0.2495  0.0868 -0.1675
27533W        W47067   6.166  12.976   4.359 -0.2178 -0.1966  0.2836
27534W        W47068  15.821  18.429  14.308  0.3116 -0.2818  0.0986
27535W        W47069   5.236  14.869  11.408 -0.2796  0.0452 -0.2931
27536W        W47070  18.564   2.923   0.122  0.3061 -0.1651 -0.0619
27537W        W47071  15.132  17.785  14.085 -0.0498 -0.1482  0.1221
27538W        W47072   7.289  12.709   3.652  0.3211 -0.0754  0.0122
27539W        W47073  11.655   8.868   0.784  0.2284  0.0891 -0.0060
27540W        W47074   0.999  15.136   1.216  0.2784  0.0100 -0.0103
27541W        W47075  11.698   4.088   0.596 -0.3009 -0.0876 -0.1418
27542W        W47076  17.101  18.660  14.230  0.0238 -0.3654  0.0433
27543W        W47077  10.847  16.292   3.729  0.2086 -0.0911  0.0680
27544W        W47078   6.666   3.797  11.338  0.3827 -0.3729  0.0781
27545W        W47079  13.445   3.433   2.581 -0.1711 -0.0890 -0.1593
27546W        W47080  15.029   7.365  12.028  0.0194  0.0546  0.0983
27547W        W47081   2.884   1.127   0.296  0.0743  0.0422 -0.1252
27548W        W47082   3.810  11.649   0.367  0.0488  0.1332 -0.5014
27549W        W47083   8.744   0.265   3.826  0.1314 -0.3206 -0.1378
27550W        W47084  13.746  17.570  13.860  0.0243 -0.1254 -0.0832
27551W        W47085  16.155   1.515  12.800 -0.0328 -0.0795  0.1171
27552W        W47086  13.480  14.638   1.257  0.0363  0.1450 -0.2924
27553W        W47087   7.511  18.464   3.106 -0.2354  0.0623  0.2298
27554W        W47088   9.608   5.087   3.158  0.2846  0.0667 -0.3513
27555W        W47089   8.095   2.806   2.492 -0.0589 -0.1686  0.0303
27556W        W47090   0.719  18.346  12.201  0.1546 -0.0310  0.1519
27557W        W47091  15.600   4.287   1.158 -0.3151  0.1310  0.1162
27558W        W47092  16.457  12.910   2.985 -0.0631  0.0875 -0.0300
27559W        W47093   5.364  13.763   2.730  0.1355 -0.0877  0.1386
27560W        W47094   9.145   1.706   0.412  0.1892  0.0185 -0.0859
27561W        W47095   1.768  13.610  13.438 -0.1802 -0.2217 -0.0305
27562W        W47096  18.106   8.581   9.365 -0.0703 -0.0484  0.1678
27563W        W47097  19.447   3.168  10.942 -0.1837 -0.2585  0.2470
27564W        W47098  10.128   9.107   4.272  0.0037 -0.0722 -0.0607
27565W        W47099   1.083   6.145   1.686 -0.2801 -0.0148 -0.0439
27566W        W47100   3.082   5.329   1.670 -0.1419  0.1482  0.1619
27567W        W47101   7.226   1.889   3.842 -0.1697  0.1334 -0.2378
27568W        W47102   8.454  15.153  13.881 -0.0070 -0.1840  0.0581
27569W        W47103   4.828  17.393  13.894 -0.0604  0.2189  0.3319
27570W        W47104  13.572   6.995  14.289 -0.2171 -0.0507  0.1171
27571W        W47105   4.792  11.091   0.792  0.4607 -0.0975  0.2450
27572W        W47106   2.038  14.305  12.810  0.2040 -0.2288 -0.2742
27573W        W47107   9.529   1.017  12.202 -0.2205  0.0981 -0.1376
27574W        W47108  11.428  18.054  13.432  0.1102 -0.0607 -0.2295
27575W        W47109  10.161  12.829  12.220 -0.4411 -0.0174  0.3258
27576W        W47110  19.529   8.623  11.386 -0.2803 -0.1307  0.5144
27577W        W47111  14.462  10.274  12.618 -0.1694  0.3124  0.0179
27578W        W47112   2.481  12.009  12.548 -0.0300  0.0349  0.1565
27579W        W47113   6.636  11.422   4.744 -0.2867  0.3112  0.0589
27580W        W47114   3.096   5.113  14.011 -0.1249 -0.2794 -0.0600
27581W        W47115  19.145   9.196   0.644 -0.0690 -0.0410  0.1989
27582W        W47116  17.286   9.887   4.158 -0.2893  0.0602  0.2080
27583W        W47117   5.041   7.099   0.435  0.1708  0.0982  0.1557
27584W        W47118  16.979  13.789   0.365 -0.0911  0.0195  0.1191
27585W        W47119   7.414   9.757  13.220 -0.1613 -0.0248 -0.0167
27586W        W47120  17.728  17.342  13.846  0.3984 -0.5037 -0.2864
27587W        W47121   8.942   8.268   1.468  0.1597 -0.2875 -0.0849
27588W        W47122  16.204   0.471   1.274  0.1003  0.2366 -0.0629
27589W        W47123   4.871   9.393   1.565  0.2522  0.1191 -0.0654
27590W        W47124   5.563   2.596  12.880 -0.2018 -0.3010  0.0479
27591W        W47125  10.886  13.782   1.255  0.1473  0.2877 -0.0287
27592W        W47126   1.921  16.047   3.516 -0.0119 -0.2023 -0.0879
27593W        W47127   1.985  16.978  13.068  0.0602  0.0576  0.3452
27594W        W47128   0.384   5.868  12.158 -0.2252 -0.1009  0.1972
27595W        W47129   6.671  16.662  10.065  0.1007 -0.3160 -0.0027
27596W        W47130   6.234  18.629  12.623  0.0187 -0.1366  0.1194
27597W        W47131  14.614   3.616  10.589 -0.1229  0.0373 -0.2331
27598W        W47132   3.700   2.030  11.625  0.0017  0.2469  0.0019
27599W        W47133   0.681   6.275   2.045  0.0202  0.2749 -0.0169
27600W        W47134   5.051   2.508   2.728  0.3535 -0.2416 -0.2677
27601W        W47135  10.943  18.651  11.798  0.1467  0.0100 -0.0129
27602W        W47136  15.842  13.527   3.417  0.0012 -0.2958 -0.1965
27603W        W47137   5.630  12.823  12.061 -0.0822 -0.0773  0.1327
27604W        W47138  11.463  17.273   9.771  0.1094  0.0992 -0.2801
27605W        W47139   6.907   5.981   0.523 -0.1730 -0.0268  0.1008
27606W        W47140   8.839  15.588  13.589  0.0363 -0.1347  0.0123
27607W        W47141  16.470  17.575   9.132  0.0114  0.1820  0.3259
27608W        W47142  17.289  12.719   0.146  0.1138 -0.4282 -0.0919
27609W        W47143  19.517  17.475  11.916  0.0499  0.2190 -0.2331
27610W        W47144   5.498  18.326  11.530  0.0974 -0.2094  0.1517
27611W        W47145   4.925   3.367   1.432 -0.3902  0.2629 -0.4603
27612W        W47146  18.683  11.050  12.561 -0.0045 -0.3229 -0.0544
27613W        W47147  10.164   3.390   3.772 -0.0126 -0.0868 -0.1148
27614W        W47148   4.327   1.288  11.228  0.2560  0.2793  0.0448
27615W        W47149   9.182   5.192  11.913  0.1692  0.0818  0.1231
27616W        W47150  12.920   0.886   2.919 -0.3336  0.0527  0.1107
27617W        W47151  15.169  10.554  10.948  0.2907 -0.0569  0.2402
27618W        W47152   4.663   4.867   3.258 -0.3128 -0.2374 -0.1951
27619W        W47153  13.179  14.130  13.939 -0.0585 -0.2009 -0.0082
27620W        W47154  13.220   2.923   1.639  0.2039  0.0106 -0.2093
27621W        W47155   1.669  14.000   0.959 -0.1070 -0.1211  0.0376
27622W        W47156   5.823   4.170   0.448 -0.3702 -0.1082  0.1698
27623W        W47157  15.441  14.216   3.109  0.0583 -0.1048 -0.3591
27624W        W47158   1.876  15.619  11.342  0.0202  0.3932  0.1118
27625W        W47159   6.557  11.606  14.229  0.1253  0.0235 -0.0222
27626W        W47160   8.659  12.558   0.825  0.2514 -0.0128  0.1159
27627W        W47161  13.588   6.508  14.170 -0.0166 -0.0651  0.0098
27628W        W47162   4.807   2.083   2.595  0.1128  0.1004  0.0550
27629W        W47163  13.616  16.473   2.779 -0.0717 -0.0310 -0.1491
27630W        W47164  18.165   3.282  12.106  0.1118 -0.0517 -0.0296
27631W        W47165   8.666  15.635  14.017 -0.2378 -0.0922  0.0968
27632W        W47166  18.949   1.362   3.418  0.0588  0.1237 -0.1908
27633W        W47167   5.823  10.650   1.688 -0.0034  0.1851  0.0034
27634W        W47168   5.625  15.074   0.070  0.3367  0.1816 -0.0054
27635W        W47169  10.234   5.286  12.783 -0.0404  0.0034 -0.0782
27636W        W47170  16.336  13.001   1.771 -0.2509 -0.0000 -0.0618
27637W        W47171  10.151  15.188   3.087 -0.2327  0.2219 -0.0183
27638W        W47172  13.840  13.462  14.180  0.1241 -0.1325  0.0593
27639W        W47173  13.972  14.499  11.652  0.2228 -0.1598 -0.1215
27640W        W47174  12.675  18.598   4.033  0.0315  0.1334 -0.1081
27641W        W47175   8.531   5.986   3.989 -0.2662  0.0623  0.4423
27642W        W47176   6.734  14.298  13.001 -0.2080  0.0706 -0.2255
27643W        W47177   9.489  10.669   2.237  0.1091  0.1643  0.0480
27644W        W47178   3.487  10.942  10.577 -0.1269  0.0955  0.0303
27645W        W47179  15.357  15.472   0.769 -0.0094 -0.0857  0.0078
27646W        W47180   1.572  15.747   2.819 -0.1439 -0.0131  0.1425
27647W        W47181   6.141   8.831   2.225 -0.0710 -0.1031  0.0292
27648W        W47182   3.014   6.021  13.561 -0.1726  0.0812 -0.3036
27649W        W47183   3.019   7.256  11.936 -0.0927 -0.1401 -0.1247
27650W        W47184  10.338   2.535  14.098 -0.0765  0.2758  0.1090
27651W        W47185  17.006   7.998   4.306 -0.1118 -0.3298 -0.1097
27652W        W47186  10.169  14.316   3.418 -0.3780  0.3608 -0.0269
27653W        W47187  16.277  13.517   1.750 -0.0446  0.0356 -0.3231
27654W        W47188  17.886   6.478  11.331  0.0998 -0.1647 -0.2615
27655W        W47189   4.256  18.483   3.881 -0.3307  0.0302 -0.0087
27656W        W47190  17.336  14.603  12.286 -0.1143 -0.0868 -0.1199
27657W        W47191   0.691  17.424  13.114  0.1271  0.0396 -0.1633
27658W        W47192  14.416   8.747   0.668  0.0543 -0.2092  0.0099
27659W        W47193   9.017  18.685   1.434  0.0268 -0.0123  0.0990
27660W        W47194   4.840  11.048  13.791 -0.1710 -0.3930  0.2393
27661W        W47195   7.512  10.720  12.589  0.0037  0.1260 -0.2126
27662W        W47196   9.766   3.560  14.081 -0.0464 -0.1518  0.1870
27663W        W47197   6.208  18.983   4.504 -0.0219  0.1379  0.3373
27664W        W47198   7.627   5.612  13.457  0.5378  0.0909  0.2812
27665W        W47199   5.436  13.644  12.381 -0.0249 -0.4903  0.1342
27666W        W47200  10.891   6.212   3.858  0.1445  0.2229 -0.1132
27667W        W47201  13.732  16.593  12.282 -0.3332  0.2151 -0.0846
27668W        W47202  19.270   8.471  13.245 -0.1897 -0.0392 -0.0511
27669W        W47203   5.675   6.993   0.314 -0.1261  0.1089 -0.0199
27670W        W47204  12.021  11.823  11.512 -0.1320 -0.1264  0.0332
27671W        W47205  10.545  18.464   4.230  0.0722 -0.0961 -0.1720
27672W        W47206   1.523   5.058  10.546 -0.5858  0.1404 -0.0016
27673W        W47207  18.903   4.463   2.735 -0.0679  0.0203 -0.4459
27674W        W47208   6.873  13.172  13.878  0.0612 -0.1691 -0.1112
27675W        W47209   9.866   4.760  11.426  0.1985 -0.1687  0.2348
27676W        W47210   6.604   6.038  13.486 -0.1289 -0.5382 -0.0452
27677W        W47211   7.710  14.426   3.947  0.0166 -0.0869  0.0288
27678W        W47212   4.653  17.943   9.196  0.1458  0.0119 -0.0835
27679W        W47213   1.518  19.004   4.780  0.0021  0.0286 -0.1460
27680W        W47214   5.063   6.448  14.148 -0.1668  0.2319 -0.0196
27681W        W47215  18.930  17.065   3.717  0.0805 -0.1560  0.2702
27682W        W47216  18.152  14.602  13.864 -0.2201 -0.0950 -0.1049
27683W        W47217   7.560   1.932  11.597 -0.0136 -0.1205 -0.0012
27684W        W47218  12.057  17.849  12.541 -0.3182 -0.1633 -0.3884
27685W        W47219   5.303   0.489  10.791 -0.0375  0.1995  0.3232
27686W        W47220  11.297  14.915  11.528  0.0468 -0.0322  0.0036
27687W        W47221   1.592  15.402  13.763  0.3150 -0.0275  0.2824
27688W        W47222  11.756   3.801   1.010  0.3198 -0.0182  0.0030
27689W        W47223  15.290  10.196   0.407 -0.4392  0.0938  0.0203
27690W        W47224  16.306   0.250  13.620 -0.1658 -0.0741 -0.0828
27691W        W47225   0.544   8.792  11.436  0.2591 -0.0611 -0.0872
27692W        W47226   8.913  18.244  12.398  0.0963 -0.1531 -0.0107
27693W        W47227   1.392   1.409   0.639  0.1221  0.3151 -0.3064
27694W        W47228   8.217   9.595  10.879 -0.2353  0.2826  0.1043
27695W        W47229   1.048  19.143  13.296 -0.0453 -0.1136  0.0162
27696W        W47230  13.284   0.604   2.643 -0.0182 -0.0969 -0.4002
27697W        W47231   3.636  10.576   0.749  0.4526 -0.1172 -0.0129
27698W        W47232   1.211  16.802   0.394 -0.0222 -0.1113  0.3836
27699W        W47233   1.969   1.838  13.271 -0.2875  0.2131  0.2781
27700W        W47234   7.570   1.840   2.908  0.1277  0.2306  0.0414
27701W        W47235  19.078  15.123   0.589 -0.1535 -0.0096 -0.0516
27702W        W47236  14.683  12.707  12.211 -0.0791  0.0539  0.0199
27703W        W47237  13.601  14.020   4.582  0.1899  0.2056 -0.0084
27704W        W47238   5.317  11.792  11.178 -0.3459  0.2391 -0.1022
27705W        W47239   5.527   1.799   3.209 -0.1727 -0.2974 -0.1806
27706W        W47240   6.618  12.475  10.742 -0.3360  0.2468  0.2849
27707W        W47241   8.543  17.194   3.352  0.0509 -0.0785 -0.1193
27708W        W47242  12.519  18.352  10.804 -0.0627  0.1002  0.0211
27709W        W47243  13.941   4.679   0.728 -0.2505 -0.0785  0.0886
27710W        W47244  13.515   1.465  12.708 -0.1870  0.0445 -0.1082
27711W        W47245  12.317   1.468   3.495 -0.1892 -0.2729  0.0717
27712W        W47246   3.617   0.623  10.610 -0.3094 -0.1735 -0.2287
27713W        W47247   1.276   3.386   9.626  0.0226  0.2092 -0.1036
27714W        W47248  17.261  17.304   4.061 -0.0819 -0.1213 -0.3762
27715W        W47249  16.182  12.114  12.538 -0.0558  0.1661  0.1011
27716W        W47250  14.284   1.460  10.049  0.0583  0.1302 -0.0126
27717W        W47251   4.743   2.432  11.624  0.0974  0.0365 -0.4776
27718W        W47252   8.961  11.715   2.112  0.3704 -0.2138  0.0931
27719W        W47253   6.596  10.324   1.968  0.2958  0.0016  0.0969
27720W        W47254   6.044  17.622   2.144  0.1152 -0.1102  0.0288
27721W        W47255  17.408   3.138   3.667 -0.4018 -0.0311 -0.1594
27722W        W47256   4.528   7.349   2.465  0.1709 -0.0965  0.2799
27723W        W47257   9.247   4.390   2.448  0.0874 -0.3400 -0.2911
27724W        W47258  16.366  18.246   2.057  0.0483 -0.0778  0.0405
27725W        W47259   4.865  16.958  10.109 -0.0770  0.0248  0.1184
27726W        W47260   3.515  17.872  12.495  0.0734  0.2703 -0.0785
27727W        W47261  19.061   1.566  13.446  0.1119  0.1584 -0.2893
27728W        W47262   2.660   4.549  10.838  0.1336 -0.1437  0.0855
27729W        W47263  17.403  15.435  11.292  0.0323 -0.0071 -0.0484
27730W        W47264   4.790   8.783  12.821  0.1105  0.3222 -0.0038
27731W        W47265   6.006   6.344   3.288  0.1902 -0.0403 -0.6482
27732W        W47266  18.336   1.539  11.581 -0.0863 -0.0632 -0.2762
27733W        W47267  13.077   0.621   4.136  0.4646  0.2158  0.1798
27734W        W47268  16.764   1.851   3.287 -0.0729  0.0422 -0.1466
27735W        W47269  17.712   1.339   0.572  0.2724 -0.0500  0.0882
27736W        W47270   6.964   6.814  14.320  0.0372  0.1053 -0.1353
27737W        W47271   2.987   4.772   2.075  0.1044 -0.2066 -0.0462
27738W        W47272   3.527   9.615  12.894 -0.1176  0.0984  0.1129
27739W        W47273  16.888  18.596   3.286 -0.1319 -0.1985  0.0630
27740W        W47274   3.907  13.683   0.177 -0.1951  0.0521  0.1041
27741W        W47275   3.905  10.598  13.705 -0.2142  0.1021 -0.1280
27742W        W47276   2.772   7.633  11.715  0.3023  0.0980 -0.0194
27743W        W47277  14.765   7.425   0.140 -0.0216 -0.0526 -0.0826
27744W        W47278  15.520  11.284  12.962 -0.0235 -0.2314 -0.0216
27745W        W47279   7.030   2.604   2.843  0.0329 -0.2503 -0.2197
27746W        W47280   6.292  10.112  13.468 -0.2467 -0.1688  0.0963
27747W        W47281  15.270   5.222   2.351  0.0691 -0.0543  0.0993
27748W        W47282  18.104  12.230   1.238 -0.1076  0.2848 -0.2868
27749W        W47283   4.523  15.513  12.605  0.1460 -0.2105  0.2377
27750W        W47284   3.136   7.282  10.150  0.2232  0.0880 -0.1185
27751W        W47285   7.766   8.465  10.373 -0.0926  0.0513 -0.0271
27752W        W47286   1.891   0.875  13.088  0.1054 -0.0107  0.0032
27753W        W47287   9.193  10.201  13.804 -0.2754  0.0349 -0.3173
27754W        W47288   3.106  18.835   3.166 -0.0020  0.0448  0.2588
27755W        W47289  14.508   2.408   0.474 -0.1681  0.1893 -0.0092
27756W        W47290  13.536  16.783   0.974 -0.2209  0.1373 -0.0458
27757W        W47291  18.164  18.849  11.938 -0.0064 -0.0731  0.0350
27758W        W47292   5.888   6.129  10.722  0.1463  0.0086  0.1274
27759W        W47293   8.072  19.175   3.709 -0.0387 -0.1371 -0.0335
27760W        W47294   4.561  18.302   0.232 -0.0451  0.1336  0.0748
27761W        W47295   1.621   7.958  11.784  0.0086  0.1348 -0.1137
27762W        W47296  15.056   5.654  13.797  0.1857 -0.3371 -0.2437
27763W        W47297  12.459   3.905   2.642 -0.0192 -0.2771 -0.0095
27764W        W47298   9.882  13.592   1.553  0.2959 -0.1927  0.0449
27765W        W47299  14.134  16.211  10.424 -0.1968  0.0923  0.0752
27766W        W47300  11.751   4.013  11.110  0.3993  0.1336 -0.2702
27767W        W47301  16.005   4.277  13.798 -0.0785 -0.0184  0.0705
27768W        W47302   2.533  12.166  11.720 -0.1590 -0.1861  0.0611
27769W        W47303  16.268   7.344  12.612  0.2489  0.0829 -0.3568
27770W        W47304  10.345   8.722   1.241 -0.2273  0.0012 -0.1267
27771W        W47305  12.954   8.617  14.059  0.4095 -0.0974  0.3177
27772W        W47306  17.689   4.928   1.046 -0.2003  0.0092 -0.0478
27773W        W47307   1.707  17.411   2.443  0.2643 -0.0445 -0.0248
27774W        W47308  11.696  12.809  13.569  0.2586 -0.0828  0.1798
27775W        W47309   2.860   5.943   2.424 -0.1437  0.0867 -0.1682
27776W        W47310   3.958   2.776  13.931 -0.1320  0.1054 -0.1596
27777W        W47311  11.040  18.888  12.589 -0.2227  0.1349  0.2403
27778W        W47312   9.367   2.671  13.913 -0.0647 -0.0056  0.1405
27779W        W47313  19.136  15.068  13.930  0.0527  0.2305 -0.2729
27780W        W47314  12.735   1.590  11.374 -0.0351  0.1514  0.0803
27781W        W47315  11.847   6.266  12.825 -0.0728 -0.0691 -0.2570
27782W        W47316  15.899  14.856   1.126 -0.1041 -0.1209  0.0943
27783W        W47317  19.130  13.981  11.264 -0.1132 -0.2203 -0.3570
27784W        W47318  13.355  13.062   9.562  0.4422 -0.2551 -0.0011
27785W        W47319   4.535  10.806   1.109 -0.0304  0.3962 -0.0274
27786W        W47320  10.268  16.689  10.630  0.0010  0.1144 -0.2286
27787W        W47321   0.812   2.444   2.771  0.2462 -0.1107  0.0607
27788W        W47322  17.094   6.010  11.044  0.1488 -0.0047  0.2321
27789W        W47323  13.899  12.015   0.255  0.2779 -0.3390  0.0063
27790W        W47324   5.760  18.472  12.714  0.0341 -0.3568 -0.1891
27791W        W47325   6.202   4.569   1.973  0.0913 -0.2313  0.0846
27792W        W47326  11.830  16.433  13.500  0.0092  0.0526 -0.1320
27793W        W47327  15.591   0.823  12.735 -0.0411  0.2156 -0.1497
27794W        W47328  15.269   6.160   1.171  0.2204 -0.1192  0.0887
27795W        W47329   9.485   7.636   2.968 -0.4597  0.0692  0.3960
27796W        W47330  14.607  16.413  14.048 -0.0489  0.0566 -0.2213
27797W        W47331   2.095   8.205   3.351 -0.3700 -0.2198 -0.1283
27798W        W47332   4.548   9.167  14.202 -0.0797 -0.0515 -0.2107
27799W        W47333  12.674   8.614   4.079 -0.1035  0.2048 -0.1972
27800W        W47334   1.791  12.919  13.755  0.0593  0.0261  0.2323
27801W        W47335   4.358  17.776  11.352 -0.2529  0.1576 -0.1499
27802W        W47336   0.289  14.648  10.819 -0.1692 -0.0748  0.0398
27803W        W47337  15.083  19.053  12.757 -0.2775  0.0182  0.3360
27804W        W47338  15.288   3.563  11.462 -0.1978  0.1127 -0.1645
27805W        W47339   4.974  10.937  13.252  0.0390 -0.0816 -0.1343
27806W        W47340  14.293  18.774   1.459  0.1691 -0.2035  0.0381
27807W        W47341  10.043   0.273  12.152 -0.0368 -0.0968 -0.2812
27808W        W47342   7.806   5.235  12.158 -0.2219  0.1083  0.1083
27809W        W47343   8.090  17.473   0.809 -0.1922 -0.1683  0.0861
27810W        W47344   0.130   4.583   1.713 -0.1665  0.2111  0.3134
27811W        W47345  14.911   3.439   3.252 -0.0525  0.1134  0.2548
27812W        W47346  11.613  19.134   0.607 -0.1056  0.1095  0.0631
27813W        W47347  18.146   1.101   3.891 -0.1307  0.4284 -0.2025
27814W        W47348   1.106  17.191  13.739  0.2407 -0.2262  0.3966
27815W        W47349   7.104   6.147   3.744 -0.1666 -0.1799 -0.2093
27816W        W47350  16.737   4.900   0.429  0.0529  0.0511 -0.2279
27817W        W47351   2.622   2.054   2.539  0.0460 -0.1551  0.0613
27818W        W47352  19.171   5.905   0.544 -0.0225 -0.1079 -0.0453
27819W        W47353  13.601  15.334   1.534  0.4726 -0.2286  0.0737
27820W        W47354   3.487   4.093   3.196  0.2248 -0.0896  0.2538
27821W        W47355   5.842  17.302   3.637 -0.3542 -0.0493  0.0942
27822W        W47356   6.138  16.596  14.321  0.2497 -0.0859 -0.5947
27823W        W47357  13.062  10.847   2.101 -0.0302  0.0994  0.0514
27824W        W47358   1.373  17.849  14.326 -0.0964  0.0169  0.0961
27825W        W47359   9.446   6.237   3.670 -0.0381  0.0778 -0.0979
27826W        W47360  18.677  15.763  12.597  0.1927  0.1268 -0.2202
27827W        W47361  13.449  16.376  10.355 -0.1103 -0.0848  0.0181
27828W        W47362  10.716   9.529   1.864  0.0637 -0.2877 -0.2190
27829W        W47363   3.780   2.738   2.700  0.0878 -0.1154  0.1120
27830W        W47364  10.331   4.204   1.374 -0.2057  0.0150 -0.1728
27831W        W47365   5.274   2.936  12.082 -0.0059 -0.3334 -0.0084
27832W        W47366  11.959  18.856   2.625 -0.1268 -0.2032 -0.3678
27833W        W47367  19.518   6.890  13.295  0.3540  0.0357 -0.0850
27834W        W47368  17.734  16.451   2.693 -0.0326 -0.0649 -0.0555
27835W        W47369  11.356  15.495  12.631  0.4100 -0.1102 -0.1619
27836W        W47370   9.877  17.092   4.393  0.3474 -0.0861  0.1057
27837W        W47371   6.031   7.993  13.140 -0.4222  0.3246  0.2864
27838W        W47372  14.447  10.913   3.387 -0.1353 -0.2751 -0.0377
27839W        W47373   3.052   1.007   3.100 -0.1575  0.0486  0.1030
27840W        W47374   6.131   2.420   4.788 -0.1639 -0.1844 -0.0279
27841W        W47375  17.632   5.152   0.607  0.2284  0.0960 -0.0305
27842W        W47376   4.194   2.865   2.497 -0.3759 -0.3105 -0.3511
27843W        W47377  14.662  18.754  10.312 -0.2522  0.0856 -0.1254
27844W        W47378  10.523   5.333   3.822  0.0406 -0.2728 -0.2601
27845W        W47379   5.005  12.672  11.170  0.2912 -0.1102  0.2455
27846W        W47380   6.021  19.145   0.196  0.1519 -0.2337  0.2427
27847W        W47381  19.341   4.452   3.588  0.1720  0.1499  0.0556
27848W        W47382  14.256  12.143  12.703 -0.0167 -0.0281 -0.0827
27849W        W47383   9.258   0.828   2.501 -0.0720 -0.0242 -0.2207
27850W        W47384  13.379   3.994   2.373 -0.2718  0.0111 -0.1007
27851W        W47385   9.872   3.762   2.462  0.0014  0.1553  0.1755
27852W        W47386   0.235  13.577  10.965 -0.0480  0.0249  0.0284
27853W        W47387   5.066  17.357  12.947 -0.1410 -0.0770  0.1619
27854W        W47388  18.980  14.223   0.911 -0.2790 -0.2318 -0.0730
27855W        W47389  18.578  17.682   3.276  0.1242 -0.0132 -0.1827
27856W        W47390   9.378   1.061   9.934  0.0606 -0.2016 -0.0273
27857W        W47391  18.848   1.475  13.008  0.1830 -0.1912  0.1681
27858W        W47392  18.315   4.523  10.975 -0.2031  0.1674 -0.0915
27859W        W47393  17.939  13.148  11.196  0.2449  0.0139 -0.2635
27860W        W47394  10.802  11.421  13.477  0.1248  0.0325  0.1956
27861W        W47395  10.147   0.505   1.975  0.0343  0.0487 -0.2045
27862W        W47396  19.534  11.669   3.683  0.1765 -0.1917 -0.0067
27863W        W47397   9.184  13.261  11.441  0.1788 -0.0196  0.2617
27864W        W47398  13.648   7.768  12.646 -0.1755 -0.4225  0.3266
27865W        W47399  17.802  15.051   1.872 -0.4365  0.1073 -0.0456
27866W        W47400  14.662  16.567  10.444  0.1827  0.1922  0.0688
27867W        W47401   3.215  11.726  14.234  0.0472 -0.1303 -0.3282
27868W        W47402  11.362   4.959  12.678 -0.1629  0.0797 -0.0801
27869W        W47403  13.228   2.401   1.562  0.2204  0.2009  0.3094
27870W        W47404  10.788  17.552   0.003  0.0752 -0.0664  0.0679
27871W        W47405   3.755   5.952  12.441 -0.2963 -0.3560  0.1533
27872W        W47406  18.342  16.269  12.303  0.1876  0.1138  0.1394
27873W        W47407   4.577  16.872   0.001  0.2676 -0.3161  0.0201
27874W        W47408   5.608   2.723   2.014  0.1552  0.0694 -0.1991
27875W        W47409  14.945   2.455   1.606  0.3098  0.0914 -0.1825
27876W        W47410   9.720  12.086   0.158  0.3671 -0.0407  0.0736
27877W        W47411  13.608  16.935  11.148 -0.0239 -0.2033 -0.0452
27878W        W47412   6.953  10.075   4.525 -0.0829 -0.0882  0.0689
27879W        W47413   0.341   0.260   3.699 -0.1939  0.1360  0.0492
27880W        W47414  10.492  13.099  14.307  0.1972 -0.0500  0.0166
27881W        W47415   3.701   7.282   2.710  0.3388 -0.1602  0.1066
27882W        W47416   6.716   3.923   3.436 -0.0468 -0.0783 -0.0226
27883W        W47417   9.821   1.556   2.297 -0.1635  0.3365 -0.2961
27884W        W47418   7.362  10.098  11.140 -0.1428 -0.1480 -0.0928
27885W        W47419  12.964   7.652   0.042  0.0109  0.1403 -0.1784
27886W        W47420   4.332  10.689   2.511  0.1531 -0.0334  0.1047
27887W        W47421  13.984   2.870   0.656 -0.0119  0.1116 -0.2349
27888W        W47422  16.129   4.343  12.530 -0.0903  0.1602 -0.2650
27889W        W47423  18.543   2.314   2.456 -0.0540  0.3052  0.1076
27890W        W47424  10.586   8.684  11.929 -0.1603  0.3254 -0.0637
27891W        W47425   2.822  12.977   0.386  0.0138 -0.0524 -0.3875
27892W        W47426   0.511  10.423   2.248 -0.3221  0.3391  0.2175
27893W        W47427   5.828  14.162  11.620  0.1027 -0.0076 -0.1256
27894W        W47428   5.663   5.671  13.453 -0.0604  0.1677  0.0134
27895W        W47429  10.520  11.795  10.038  0.0106 -0.3970  0.1926
27896W        W47430   9.519  12.243  12.427 -0.0292  0.0400  0.2226
27897W        W47431   9.054   7.863   4.022 -0.3588 -0.0884 -0.0127
27898W        W47432   4.807  16.658   2.608 -0.1777 -0.0329  0.1243
27899W        W47433   6.582   1.756  10.528 -0.0873  0.1967 -0.1550
27900W        W47434   7.201  14.905  11.131 -0.0961  0.2491  0.2115
27901W        W47435   5.178   7.954  10.401 -0.1002  0.1709  0.1782
27902W        W47436  12.193   8.708   1.415 -0.4293 -0.2169 -0.0811
27903W        W47437   5.384  13.386  13.551 -0.1808 -0.1223  0.0129
27904W        W47438   9.706  12.570  12.071  0.0410 -0.1169 -0.0186
27905W        W47439   9.538   9.283  12.809 -0.1989  0.1871 -0.3191
27906W        W47440   4.772   3.977  12.728 -0.1550 -0.3375  0.2034
27907W        W47441  16.458   1.965   4.672  0.1749  0.2420 -0.2892
27908W        W47442   1.954   1.827  11.120 -0.0514 -0.1174 -0.1275
27909W        W47443  16.430  13.181  12.800 -0.1109  0.1333  0.1025
27910W        W47444   5.033   6.277  13.022  0.1051 -0.0355  0.3978
27911W        W47445   3.717   7.420  12.508 -0.0264 -0.0008 -0.4150
27912W        W47446  15.360   5.525  13.296 -0.1586 -0.0769 -0.1548
27913W        W47447  10.876   9.170   2.572  0.1070 -0.0448  0.2897
27914W        W47448   3.612  11.744   1.218 -0.0743  0.2334  0.3536
27915W        W47449   4.013   0.877  11.180 -0.2067 -0.4386 -0.1906
27916W        W47450   2.892   0.771   4.051 -0.2006 -0.0728  0.1636
27917W        W47451  16.844   4.889   2.005  0.1591  0.2298 -0.0479
27918W        W47452   5.881   5.715   4.174  0.1427  0.0027 -0.0998
27919W        W47453   4.079   3.065   0.587  0.0174  0.0960 -0.1029
27920W        W47454  11.334   1.394  12.410  0.2473  0.0051  0.1792
27921W        W47455  11.026   1.663  11.050  0.1113  0.1153  0.0576
27922W        W47456   7.543  14.221   9.324 -0.3811  0.2697 -0.1645
27923W        W47457   3.507  12.827  13.150 -0.2310  0.2668 -0.3035
27924W        W47458   5.105   3.650  12.454 -0.1350 -0.0457 -0.0553
27925W        W47459  16.452   0.272  14.144  0.2217  0.0985 -0.1515
27926W        W47460  12.603  16.508   1.923  0.1003  0.2132 -0.0779
27927W        W47461  16.700  15.171  10.943  0.2263  0.1887 -0.1763
27928W        W47462  16.401   2.419  12.855  0.1166 -0.0763 -0.1292
27929W        W47463  13.444   2.284  11.434  0.2953  0.0408  0.0471
27930W        W47464  17.053   3.374  10.365  0.1789 -0.0155 -0.0077
27931W        W47465   5.792  15.240   0.507 -0.0930 -0.1808  0.2681
27932W        W47466   9.487  16.325  10.943  0.1799 -0.0503 -0.2750
27933W        W47467  15.037   3.734   2.849  0.0274 -0.0720 -0.0969
27934W        W47468   8.503   5.595  13.781 -0.0914  0.2808  0.1808
27935W        W47469  17.629   8.415  10.311  0.1569  0.0473  0.0744
27936W        W47470   7.953   1.570   3.216 -0.0462 -0.1387 -0.2590
27937W        W47471  19.503  16.503  12.481  0.0266 -0.0329 -0.1146
27938W        W47472   6.158  11.280   3.471 -0.0263 -0.1212  0.0564
27939W        W47473  12.648   5.008  13.677  0.1165 -0.2173 -0.1430
27940W        W47474  11.863  14.172   3.233  0.1464 -0.1996  0.1112
27941W        W47475  12.038  14.035   4.258 -0.0788  0.0093  0.1528
27942W        W47476   4.124  16.256   3.513  0.0335  0.0091  0.2002
27943W        W47477   9.089   0.114  10.126  0.0035 -0.1935  0.2739
27944W        W47478  12.488  18.806   9.473  0.0737  0.1124  0.3286
27945W        W47479   8.571   6.016  11.197 -0.1495  0.1261 -0.3438
27946W        W47480  13.771  13.896   1.132 -0.2148 -0.2352 -0.0631
27947W        W47481  14.825   5.657  12.116  0.0506  0.2279 -0.0450
27948W        W47482   9.551   1.329   0.382  0.2521 -0.1098 -0.3563
27949W        W47483  14.014  15.106  11.770  0.1511  0.0509  0.1246
27950W        W47484   4.078   7.672  11.305 -0.0718 -0.1297 -0.1000
27951W        W47485   2.965   4.331   3.114  0.2586  0.0071  0.1941
27952W        W47486  18.924   5.426  13.880  0.0596 -0.0835  0.0709
27953W        W47487  10.604   4.616  13.089 -0.0900 -0.0072 -0.0417
27954W        W47488  13.038  15.113  13.075  0.1949 -0.1635  0.4065
27955W        W47489  11.769   2.526  14.137 -0.2376  0.0322 -0.0758
27956W        W47490   3.772  17.045   0.957 -0.2362 -0.0887 -0.3341
27957W        W47491  17.664   8.276   1.044 -0.0474 -0.3031  0.2433
27958W        W47492   0.978   2.238  13.686 -0.0544  0.1708 -0.4090
27959W        W47493  10.618   3.631   2.799  0.3000  0.1620  0.0967
27960W        W47494  17.114   0.683  12.210  0.0555 -0.0025  0.0527
27961W        W47495   6.071   4.361   0.079  0.0199  0.2377  0.0195
27962W        W47496   2.382  16.713   1.350 -0.3393 -0.0807  0.0188
27963W        W47497  10.929   5.356  13.328 -0.0457 -0.0739  0.1051
27964W        W47498   4.749   1.643   2.358 -0.1793 -0.3812 -0.1293
27965W        W47499  13.758   0.425  12.495 -0.1232  0.1165 -0.1365
27966W        W47500   8.703   7.209  11.201  0.0524  0.1539  0.0342
27967W        W47501   1.627   1.540   1.921 -0.0796 -0.0790 -0.1830
27968W        W47502   7.356   2.086  14.318 -0.0284  0.1448 -0.0231
27969W        W47503   0.867  15.589  13.218  0.3266  0.2324 -0.0655
27970W        W47504   8.969  13.757   2.547  0.1594  0.3761  0.1598
27971W        W47505   4.669  17.324   1.943 -0.0367 -0.0286 -0.1580
27972W        W47506  17.502   6.752   2.319  0.1814 -0.1550 -0.1353
27973W        W47507  17.670   1.896   2.114  0.2002  0.1871  0.1094
27974W        W47508  12.751  16.330   3.593  0.2699  0.1210  0.5245
27975W        W47509   8.882   6.980  13.761 -0.0330 -0.1589  0.0231
27976W        W47510   2.280  13.891   2.179 -0.1679  0.1788  0.1317
27977W        W47511   2.320  13.256  12.742  0.0636 -0.1462  0.1430
27978W        W47512  12.449  10.552  13.958  0.3140 -0.1542 -0.3488
27979W        W47513   4.402  17.798   0.404 -0.0041 -0.1404  0.1387
27980W        W47514  17.054  14.637  14.306 -0.1352 -0.0252  0.1563
27981W        W47515   1.184  14.644   1.347  0.2234 -0.0713  0.0226
27982W        W47516   4.622  12.470  10.793 -0.0518 -0.3071 -0.2422
27983W        W47517   8.747  17.931  11.448 -0.2069  0.1166  0.2113
27984W        W47518   3.976  17.517  12.091 -0.3168  0.0649 -0.1113
27985W        W47519  17.686   0.255   0.023 -0.0184  0.0057  0.3112
27986W        W47520   9.186   0.254   1.787  0.0765 -0.2173  0.2553
27987W        W47521  18.922   9.207  11.602  0.1012  0.3029 -0.0426
27988W        W47522   9.590  15.028  11.717 -0.0850  0.0046 -0.0827
27989W        W47523   6.614  14.635  11.896 -0.3307  0.3053  0.0660
27990W        W47524   7.897  17.473  11.628  0.0401  0.0297 -0.1615
27991W        W47525  17.715   6.600   3.181 -0.2249 -0.0369  0.1982
27992W        W47526  12.849   1.350   2.641  0.2587  0.1050 -0.1996
27993W        W47527  14.907   0.901  14.116  0.0552  0.1255 -0.2463
27994W        W47528  17.278  12.971   4.048 -0.0336  0.1628 -0.1406
27995W        W47529   4.083  11.356  13.030  0.2432 -0.1382  0.1392
27996W        W47530   6.533  11.904  13.343  0.4059  0.3583 -0.0355
27997W        W47531  11.913   0.821   0.209  0.1816 -0.2429 -0.0159
27998W        W47532   3.855  18.832   2.508 -0.1529 -0.2122  0.0047
27999W        W47533  14.668  18.066  12.000 -0.1482 -0.0317  0.1810
28000W        W47534  19.007   7.042  10.939 -0.0890 -0.3363  0.0551
28001W        W47535   4.704   5.470   5.299 -0.0417  0.0268 -0.1134
28002W        W47536   1.586  17.100  11.550  0.1426  0.0384  0.0199
28003W        W47537   4.095   2.475  10.587  0.0467  0.1433  0.0481
28004W        W47538   2.825  14.416   0.247 -0.0768 -0.1123  0.1308
28005W        W47539   9.071   4.187   5.387 -0.1704 -0.1069  0.1304
28006W        W47540  12.225   3.983   0.961  0.1251  0.0368  0.1252
28007W        W47541   2.428  12.173   3.581  0.1826 -0.0010  0.3196
28008W        W47542  10.681  11.736   3.896 -0.2116 -0.0366  0.1138
28009W        W47543   1.999  10.515  13.298  0.2913  0.1064 -0.3967
28010W        W47544  17.421  15.567   2.617 -0.4939 -0.2404  0.1643
28011W        W47545  11.803   8.905   3.820  0.3138 -0.1745  0.2507
28012W        W47546  18.360  19.152  11.534  0.0550  0.2517  0.1131
28013W        W47547   6.895  13.955   3.641 -0.1758  0.2224  0.0266
28014W        W47548   0.174   0.805  10.698  0.1540 -0.3028  0.0209
28015W        W47549  16.974  16.872   1.152 -0.0390 -0.1200  0.0736
28016W        W47550   7.273  12.426  11.198  0.2637 -0.3717  0.1402
28017W        W47551  19.042  16.716  14.280 -0.0419  0.0337  0.0937
28018W        W47552   8.687  18.524   3.964 -0.2718 -0.1278  0.4761
28019W        W47553   7.836   7.432   2.016  0.2548 -0.1629  0.0100
28020W        W47554   5.086   2.426   0.021 -0.3509  0.1098 -0.2932
28021W        W47555   1.104   7.282   4.111 -0.2773 -0.2002 -0.1018
28022W        W47556   6.372  15.172   0.397 -0.1214 -0.0928  0.1999
28023W        W47557   6.399  14.151   2.810 -0.3041 -0.0643  0.1053
28024W        W47558  10.255  10.272   1.426 -0.1210  0.0327  0.0954
28025W        W47559   8.332  13.401   1.829 -0.0071  0.0947 -0.0833
28026W        W47560   3.240   7.184   1.378  0.2118  0.3663  0.1586
28027W        W47561   2.098   6.068   4.040 -0.2276  0.3382  0.2320
28028W        W47562   7.088   1.585   1.510 -0.0782 -0.1523  0.2544
28029W        W47563   8.304  19.059   2.691  0.2226  0.2060 -0.2988
28030W        W47564   9.414  13.832   0.408 -0.2196 -0.2805 -0.1095
28031W        W47565  16.841   9.906  12.172  0.0602 -0.4308  0.2046
28032W        W47566   5.668   8.295  12.853 -0.2844  0.1609  0.0440
28033W        W47567   7.393  12.182  12.965  0.0757  0.2826 -0.3736
28034W        W47568   3.171  16.529   0.857  0.2783  0.2185  0.0293
28035W        W47569  15.278  15.244  13.565 -0.1745  0.2377  0.0471
28036W        W47570   1.174   4.231   9.656 -0.2371 -0.2064  0.1067
28037W        W47571  17.908  11.710   3.206  0.2920 -0.1104  0.0918
28038W        W47572  12.739  15.552  11.747 -0.2451  0.2375  0.0916
28039W        W47573  12.030   1.056   9.420 -0.0433 -0.3023  0.4505
28040W        W47574  12.909  19.470   0.959  0.0276  0.2814 -0.3048
28041W        W47575  17.771  14.667   0.461  0.1832  0.1339  0.0424
28042W        W47576  16.859   4.137   9.482 -0.1414 -0.0772 -0.2163
28043W        W47577  14.989   7.360   1.155 -0.1344 -0.0534  0.1586
28044W        W47578  13.163  14.950  10.046 -0.4769 -0.1261  0.2104
28045W        W47579   2.598   3.239  11.570 -0.3875  0.1132  0.0988
28046W        W47580   3.459  11.530   1.622  0.1160 -0.1283 -0.1145
28047W        W47581   6.775   2.888   4.346  0.0837  0.1244  0.1311
28048W        W47582  10.751   3.504   1.368 -0.3066  0.2786 -0.0976
28049W        W47583   1.717  10.799  12.804 -0.0542 -0.1528  0.1546
28050W        W47584  17.062   9.896  13.495 -0.0412  0.0046 -0.0444
28051W        W47585   3.728   0.107  10.730 -0.0674  0.0355 -0.2801
28052W        W47586   7.403   4.689  13.878 -0.1056  0.0030 -0.0088
28053W        W47587   3.311  15.727  10.561 -0.2254 -0.0012  0.2843
28054W        W47588  11.808   0.592   2.048 -0.1616 -0.2970  0.0506
28055W        W47589  11.574  11.628   2.102 -0.3230  0.1571 -0.2497
28056W        W47590  12.400   0.236   4.665  0.3699  0.4923 -0.1213
28057W        W47591  18.828   7.594  10.442 -0.0340 -0.1196 -0.0920
28058W        W47592  10.788  13.838   3.045 -0.2537 -0.0958 -0.2152
28059W        W47593  15.842   1.176  10.362 -0.2142 -0.2054 -0.1796
28060W        W47594   7.087   6.758  11.606  0.1318  0.2244  0.0649
28061W        W47595   8.529  12.328   3.431 -0.1146  0.0550 -0.2224
28062W        W47596   7.196  17.380  11.071 -0.0440 -0.4592  0.0201
28063W        W47597  14.148  11.761  10.695  0.2013 -0.0089  0.1673
28064W        W47598  15.928   0.766  11.675  0.0290 -0.0148 -0.4714
28065W        W47599  11.971   5.023   0.893 -0.0079 -0.0336 -0.4217
28066W        W47600   6.552   1.384   2.279  0.1824  0.0945  0.2481
28067W        W47601  14.920  11.090   2.302  0.0077 -0.0326 -0.0028
28068W        W47602   5.486  16.345   1.783 -0.0900 -0.5569  0.1362
28069W        W47603   3.320   2.579   5.046 -0.4993 -0.1402 -0.0959
28070W        W47604   3.687  16.545   0.902 -0.1749  0.0733  0.0413
28071W        W47605   3.989  13.188   1.987 -0.1150 -0.0606 -0.1633
28072W        W47606  15.396  12.408   3.106 -0.1098 -0.0386  0.0168
28073W        W47607   5.709  18.099   1.282  0.1283  0.0860  0.1443
28074W        W47608   5.708  17.555   4.377 -0.1959 -0.1426  0.1183
28075W        W47609   9.953   3.931  11.881 -0.1480  0.0664 -0.3185
28076W        W47610  12.170  17.125  13.871 -0.1124  0.0624  0.0805
28077W        W47611  14.601  10.782   2.932  0.0469  0.1389 -0.1064
28078W        W47612  11.605  18.175  14.020 -0.1094 -0.3178 -0.0926
28079W        W47613   5.162  19.456   0.215 -0.1354  0.0180 -0.0598
28080W        W47614  12.544   3.675   1.176  0.2156  0.1080  0.0916
28081W        W47615  15.794   6.454   1.889  0.1423 -0.1620  0.0360
28082W        W47616  12.658  18.443   1.090  0.1773  0.2942  0.1634
28083W        W47617  17.126   4.091   3.253 -0.3178  0.0902 -0.0237
28084W        W47618   7.481  17.789  14.275  0.0094  0.0811  0.1578
28085W        W47619  15.882  16.658   3.909  0.0455  0.1338 -0.0938
28086W        W47620  12.954  17.416  11.044 -0.3112  0.1349  0.2349
28087W        W47621  13.562   0.012   1.737 -0.0125 -0.0095  0.0845
28088W        W47622  15.125  14.507  12.486  0.0157  0.0744 -0.3427
28089W        W47623   8.085  18.603   2.443  0.0202 -0.1500 -0.0704
28090W        W47624   9.687  18.028   4.362  0.2575  0.0586 -0.1028
28091W        W47625   0.972  17.016  13.103  0.1659  0.2357  0.2340
28092W        W47626  15.567   2.977  11.383 -0.0663 -0.0440  0.2810
28093W        W47627   8.288   4.000   1.418 -0.0684  0.0802  0.0197
28094W        W47628   3.241  14.251  10.830 -0.0529 -0.0427 -0.2010
28095W        W47629   4.490  14.813   0.006  0.2703 -0.2430 -0.2407
28096W        W47630   9.693   4.067   4.735 -0.0014 -0.0857 -0.0040
28097W        W47631  11.167  18.025   3.594  0.2292 -0.3942 -0.0812
28098W        W47632  18.884  16.296  11.582  0.1310 -0.0629 -0.0902
28099W        W47633   4.491   3.340   2.397 -0.0984 -0.2242 -0.1674
28100W        W47634   9.472   8.331   1.931 -0.1996 -0.0585  0.1490
28101W        W47635   1.434   2.109  12.121  0.0909  0.2843 -0.3981
28102W        W47636  13.146   8.407  13.448  0.4180  0.0551 -0.0294
28103W        W47637  13.594   4.386   0.051  0.2078 -0.1395 -0.0467
28104W        W47638  17.174   6.442  12.926  0.0841 -0.0906  0.2080
28105W        W47639   5.785   5.902   3.110 -0.0284  0.0071  0.1356
28106W        W47640   5.901  13.900   2.369 -0.1389 -0.0410  0.4182
28107W        W47641  19.071  14.518  14.164  0.1230  0.0089 -0.1690
28108W        W47642  13.139  19.135   3.354  0.1584  0.1684  0.1673
28109W        W47643   8.354   1.365   3.427 -0.0198  0.2203 -0.0554
28110W        W47644   8.756   3.606   3.689 -0.1760 -0.3663 -0.0202
28111W        W47645   5.945  18.643  11.707 -0.2019 -0.1133 -0.0908
28112W        W47646  10.126   1.671   9.427 -0.0583 -0.3203  0.3712
28113W        W47647   6.513   4.239  11.064  0.2191  0.0528  0.1891
28114W        W47648  16.772   1.017   3.162 -0.2706 -0.0996  0.0183
28115W        W47649   7.798   4.012  10.354 -0.3040 -0.1422  0.0250
28116W        W47650   0.997  15.373  12.662  0.0337  0.0871  0.1012
28117W        W47651  16.827   2.651  12.670 -0.0563 -0.0403  0.0926
28118W        W47652   5.455   4.920   0.857 -0.1072 -0.0619  0.0197
28119W        W47653   8.319   7.095   0.272 -0.1649  0.2308 -0.1600
28120W        W47654  14.083   4.735  13.450  0.0190 -0.0550 -0.0589
28121W        W47655  10.811   4.217   0.323 -0.0499 -0.0579  0.2315
28122W        W47656   6.994   2.607  11.068  0.0004  0.0688  0.4828
28123W        W47657  13.368  17.779  11.638 -0.1790 -0.4650 -0.0033
28124W        W47658   7.648  16.066  13.120 -0.0691  0.3450 -0.2576
28125W        W47659   4.463   2.798  13.831 -0.0643  0.0671  0.2074
28126W        W47660   2.838  14.566  13.564  0.1488  0.1194 -0.0635
28127W        W47661  10.882  11.719   2.488 -0.1981  0.1810 -0.1538
28128W        W47662   4.054  15.765   1.320 -0.0653 -0.1758 -0.1020
28129W        W47663   7.877   6.887  13.464  0.2020  0.0978 -0.1804
28130W        W47664  15.904  18.151  12.448 -0.0656 -0.2163 -0.1991
28131W        W47665  13.875   2.610  13.473 -0.0021  0.0045 -0.0355
28132W        W47666  15.100  13.441  12.519 -0.0301  0.0868  0.2019
28133W        W47667  12.190  10.876   1.018  0.0206 -0.0234 -0.1778
28134W        W47668  18.158   1.694  13.658 -0.2426 -0.2459  0.2611
28135W        W47669  10.604  17.236   0.315  0.1072  0.0607 -0.1242
28136W        W47670   3.261   9.469  10.725 -0.1703 -0.0068  0.0322
28137W        W47671  19.361  14.153   0.112  0.0200 -0.1497  0.0601
28138W        W47672  15.665  14.524   1.472 -0.1893  0.0634  0.2200
28139W        W47673  12.634  11.884   3.542  0.2900 -0.0377 -0.1904
28140W        W47674   1.205  17.433  13.264 -0.1444  0.4288 -0.0945
28141W        W47675   7.245   3.013   1.349  0.1180 -0.1759 -0.0916
28142W        W47676   5.240  16.917   2.664 -0.0005 -0.0581 -0.2300
28143W        W47677  16.452   0.245   0.833  0.2059 -0.2569 -0.0629
28144W        W47678  15.704  11.763   3.582 -0.2672  0.3914  0.3361
28145W        W47679  15.602   2.989  13.230  0.2632  0.2465 -0.1633
28146W        W47680  18.415  16.228   2.463 -0.2365  0.0571 -0.0205
28147W        W47681   8.019   5.621   0.669  0.2406 -0.1062  0.4359
28148W        W47682   9.200   1.498  10.983 -0.0079  0.1300  0.2597
28149W        W47683   3.109  16.920   0.056 -0.1313  0.0924  0.2678
28150W        W47684   6.354   2.787   9.511  0.1271 -0.2750  0.1771
28151W        W47685  16.551   4.826  13.398  0.2499  0.0482 -0.0242
28152W        W47686   9.133   1.582  13.060  0.2585 -0.3428 -0.4142
28153W        W47687   8.145  17.893   3.083  0.2043  0.2612 -0.0279
28154W        W47688   4.089  17.219   2.366 -0.3343  0.2012  0.1608
28155W        W47689   5.748   4.139   2.525  0.0883  0.1577 -0.1123
28156W        W47690   4.975  13.569   2.127  0.0231 -0.0076  0.1208
28157W        W47691   1.388  17.430  14.081 -0.2203 -0.1352 -0.0072
28158W        W47692   4.125   6.808   2.925  0.2019 -0.2624  0.2117
28159W        W47693  13.465   4.424   4.243  0.0765 -0.2661 -0.2738
28160W        W47694   1.972  19.026   1.847 -0.0027 -0.0680 -0.0239
28161W        W47695   5.618   9.604   2.606 -0.1128  0.1168  0.1632
28162W        W47696   9.110   9.842   0.245  0.0351 -0.1601 -0.1685
28163W        W47697  14.907   2.195   0.696  0.2546  0.0987  0.0697
28164W        W47698   8.161  17.211  11.127 -0.0203 -0.2175 -0.0140
28165W        W47699  14.235   1.322  10.844 -0.0684 -0.0566 -0.1456
28166W        W47700  12.359  13.502   1.999  0.0687 -0.1520  0.0105
28167W        W47701   3.155  19.279  11.324  0.2871  0.0588  0.1162
28168W        W47702   9.011  14.821  11.837  0.0486  0.3677 -0.0638
28169W        W47703   7.397  19.102  12.650  0.2331  0.2325 -0.0553
28170W        W47704   9.204   0.637  13.991  0.1423 -0.2739  0.2254
28171W        W47705  14.317   2.324  12.848  0.0021  0.0037 -0.1499
28172W        W47706   4.161   5.519   2.034  0.1157  0.1146  0.0146
28173W        W47707   8.039   3.472  13.666 -0.2250 -0.0678  0.0697
28174W        W47708   6.327  11.476  13.787  0.3010  0.1538 -0.0753
28175W        W47709   7.131   2.448  12.432 -0.0459 -0.0102 -0.1882
28176W        W47710   5.287   6.726  10.180  0.0541  0.1966  0.1766
28177W        W47711  14.043   6.404   1.648  0.1210  0.0382  0.1446
28178W        W47712   9.103   2.095   3.910  0.1874  0.0018  0.0554
28179W        W47713   2.428   5.627  12.504 -0.2661  0.1835 -0.1018
28180W        W47714   1.094  11.108  10.661 -0.0913 -0.2401 -0.1086
28181W        W47715  19.083  15.872   1.262  0.1851 -0.1059  0.1272
28182W        W47716   0.579  18.060  13.678 -0.0549 -0.1228  0.0571
28183W        W47717  10.018  11.830  12.623 -0.2891  0.1233  0.2653
28184W        W47718   3.245  11.887   1.940  0.2935 -0.0358 -0.0790
28185W        W47719   4.192   4.188  12.430  0.4154  0.1664 -0.0615
28186W        W47720   4.725   2.575  13.067  0.0673  0.2036  0.4333
28187W        W47721   7.436  19.152   3.692 -0.0901  0.1999 -0.1823
28188W        W47722   0.896  14.162  12.562  0.1692  0.2295 -0.0131
28189W        W47723   8.841   3.306  13.491 -0.2345 -0.0718  0.1391
28190W        W47724  17.704  12.178   3.285 -0.2404  0.0833 -0.4383
28191W        W47725  14.575   6.649   2.222  0.4276  0.1331  0.0770
28192W        W47726   5.984   5.886  13.890  0.0025  0.1110  0.1563
28193W        W47727   9.011   9.785  10.586 -0.0504 -0.4472 -0.0995
28194W        W47728  11.663   9.356   0.925  0.0760 -0.2738  0.0752
28195W        W47729   8.861  15.273  12.695 -0.0949  0.0073 -0.0735
28196W        W47730  16.602   7.329   3.164  0.3058  0.0342  0.3505
28197W        W47731   3.847   3.348   3.915  0.0875 -0.0237  0.0532
28198W        W47732   7.675  18.637  12.710 -0.0116  0.1842 -0.0074
28199W        W47733  16.442   4.502  11.676 -0.1763 -0.0866  0.0989
28200W        W47734  10.025   1.785   2.975 -0.1477 -0.0603  0.2365
28201W        W47735   1.901   8.200  10.031 -0.3800 -0.1233  0.3435
28202W        W47736   5.056   3.008   2.855 -0.1366  0.1375  0.2409
28203W        W47737  15.211  12.307  13.599  0.1183  0.2656 -0.2405
28204W        W47738   0.816   8.417  11.629 -0.3506  0.0181 -0.2229
28205W        W47739   4.410   5.033   1.966 -0.2540  0.3746 -0.2414
28206W        W47740  15.687   0.147  10.372  0.2331  0.2399  0.1259
28207W        W47741  11.345   4.358  12.527  0.2797 -0.0401  0.0400
28208W        W47742   1.367   9.477  13.353  0.2717  0.2457 -0.0955
28209W        W47743   0.394  12.554   2.115  0.1211  0.0167  0.0516
28210W        W47744   3.701  18.901   1.197  0.0524 -0.1211  0.1317
28211W        W47745  18.468   2.013  11.343 -0.3862 -0.5031 -0.0635
28212W        W47746   9.349  18.027   4.768 -0.2703 -0.0162  0.0749
28213W        W47747   3.614   8.925   2.364  0.1518 -0.1156 -0.3095
28214W        W47748   9.872   1.409   3.634 -0.0374 -0.0964  0.4629
28215W        W47749   3.213   7.883  11.788 -0.1477 -0.5884  0.0002
28216W        W47750  10.282   4.810  11.735  0.2654  0.3513 -0.3931
28217W        W47751   5.728  18.066  13.240 -0.2485 -0.1337  0.3676
28218W        W47752  11.068   3.361   2.718  0.0683 -0.2990  0.1229
28219W        W47753   5.090  16.981  11.367 -0.0376  0.1214  0.4565
28220W        W47754  11.924   5.510   0.190  0.0415 -0.0620 -0.0212
28221W        W47755  15.479   3.381   2.770 -0.0635 -0.2261  0.3279
28222W        W47756  10.853  10.167   3.197  0.0585 -0.2343  0.0647
28223W        W47757  15.901   9.306  13.403  0.2492  0.0559 -0.3882
28224W        W47758   4.123  17.486   1.986  0.1251 -0.0001 -0.3543
28225W        W47759  18.570   3.115  10.927  0.0796  0.0438 -0.3925
28226W        W47760   5.645   2.153  12.579 -0.1554 -0.1190  0.0752
28227W        W47761  13.217   0.576  10.487 -0.0319  0.0915  0.0088
28228W        W47762  12.645   0.904   0.960  0.0763  0.3107 -0.3509
28229W        W47763  11.268  18.785   0.661 -0.0721  0.0079 -0.1268
28230W        W47764   0.511   8.716  13.292  0.3749 -0.3441 -0.1738
28231W        W47765   5.595  19.135   1.159 -0.0098 -0.0688  0.1680
28232W        W47766  11.956  17.363  11.585  0.0758 -0.2714  0.1072
28233W        W47767   1.536  15.751  10.965 -0.0549 -0.0885 -0.0749
28234W        W47768  12.505   7.520  13.673  0.2683  0.3794 -0.0185
28235W        W47769  16.157  10.488  12.396  0.0330  0.1096 -0.0582
28236W        W47770  17.971  13.091   2.394 -0.0155  0.1505 -0.1232
28237W        W47771  16.500   7.764  12.013  0.0296 -0.0250  0.0468
28238W        W47772   7.723  16.275   0.686 -0.2587  0.0100  0.0854
28239W        W47773  11.803  11.367  12.662 -0.1359  0.0992 -0.1685
28240W        W47774   4.956  13.950   0.558 -0.0998 -0.0425 -0.0161
28241W        W47775  12.103   2.945   0.058  0.0627 -0.2114  0.2278
28242W        W47776  17.809  13.077  13.173  0.2456 -0.1808  0.1948
28243W        W47777  17.992  10.201   9.130  0.0609  0.3361  0.1151
28244W        W47778  10.817  13.514  14.260  0.1082  0.3274  0.0962
28245W        W47779   7.484   1.231  12.970 -0.4893  0.0458 -0.0856
28246W        W47780   8.081   5.110  11.289 -0.3737  0.1950 -0.3361
28247W        W47781  14.608  13.347  14.286 -0.0624 -0.2854  0.1952
28248W        W47782   3.603  10.965  12.431 -0.2190 -0.3191 -0.2624
28249W        W47783   7.186  15.824  11.880  0.2910 -0.0207 -0.0311
28250W        W47784   2.388   5.362  13.898 -0.4338 -0.0688  0.3009
28251W        W47785  12.334   0.109   3.212 -0.0077 -0.2537 -0.1768
28252W        W47786   3.397  10.687   0.315  0.1325  0.2256 -0.1949
28253W        W47787  11.418  16.151   3.720 -0.2400 -0.0041  0.0641
28254W        W47788   9.586   6.494  13.690 -0.1618  0.1529  0.1215
28255W        W47789   6.627   5.435  13.544 -0.0767  0.1848 -0.1979
28256W        W47790   0.229   7.257   3.478 -0.0413  0.1292 -0.0149
28257W        W47791   6.619  19.380  10.662  0.1216 -0.3510  0.0133
28258W        W47792  13.990  10.133   3.309  0.0308 -0.0660 -0.2166
28259W        W47793   3.556   0.148   3.234 -0.0118  0.2642  0.2515
28260W        W47794  13.239   6.130  13.394  0.0275 -0.0892  0.1175
28261W        W47795  11.693  15.121  13.066 -0.1518  0.0221  0.1330
28262W        W47796   3.184   5.014  13.192  0.0531 -0.1382 -0.2660
28263W        W47797   9.570  12.491  13.191 -0.1702 -0.1045 -0.0575
28264W        W47798   2.471   4.935  11.073 -0.0370  0.0215  0.1240
28265W        W47799  14.536   5.621   2.239  0.1799  0.0257  0.1368
28266W        W47800  15.153   7.117  11.008 -0.1762  0.0323  0.3568
28267W        W47801   1.057  15.410   2.174  0.3606 -0.1108 -0.2574
28268W        W47802   0.280  12.855   3.986  0.0760 -0.1269  0.0183
28269W        W47803  13.560  16.615  12.815 -0.1297  0.1045  0.1718
28270W        W47804   0.772  12.578   2.880 -0.0460  0.1935  0.3832
28271W        W47805   3.490  13.898  13.110  0.0145  0.0315 -0.2451
28272W        W47806  13.617   3.184  14.165 -0.4257  0.1679  0.0307
28273W        W47807   2.074  14.328  11.865 -0.2282 -0.0275 -0.1926
28274W        W47808  19.067  14.110   3.200  0.1015  0.2045  0.5147
28275W        W47809  16.129   2.154   1.897  0.1720  0.4589  0.4225
28276W        W47810   5.234  19.402   2.947 -0.3829 -0.2550  0.2851
28277W        W47811  17.945   9.289  13.825 -0.2723  0.1187 -0.0743
28278W        W47812   0.828   2.042   0.319  0.0733  0.0726  0.1085
28279W        W47813  18.348  17.385  12.991 -0.2236  0.1597  0.1827
28280W        W47814  13.834   1.242  13.436 -0.0886  0.1252 -0.2293
28281W        W47815   8.463   4.769  13.560  0.1794 -0.1390  0.0163
28282W        W47816   0.856   2.904  10.383 -0.1547  0.1248 -0.2524
28283W        W47817  13.222   3.196  10.528 -0.0234  0.1401  0.1394
28284W        W47818   5.358  12.302  11.329  0.4073 -0.2785 -0.0351
28285W        W47819  12.288   5.183   4.013 -0.1065 -0.0081 -0.4101
28286W        W47820  18.450   9.682  10.780 -0.2430 -0.2100 -0.2295
28287W        W47821   3.363   6.058  12.685 -0.1394 -0.0280 -0.3796
28288W        W47822   8.379   5.340   9.877  0.0937  0.0682  0.0203
28289W        W47823   1.139  15.516   1.647 -0.3662  0.2566  0.2072
28290W        W47824  19.184  17.350  11.535  0.0979  0.0088 -0.3773
28291W        W47825  14.328   2.657   2.898 -0.0473 -0.0517 -0.1465
28292W        W47826   8.806  15.755  12.697 -0.4609  0.0912 -0.0060
28293W        W47827   7.275   5.570   1.163  0.2100  0.2053  0.0538
28294W        W47828   0.382   3.753   1.368  0.0883 -0.0676  0.0497
28295W        W47829  15.409  13.889  11.092  0.1155 -0.0314  0.0510
28296W        W47830  16.730  14.444   1.322 -0.0995  0.0152 -0.2228
28297W        W47831   1.632   7.693   3.639 -0.0341  0.1502  0.1100
28298W        W47832  16.825  13.103   1.676 -0.1631  0.0395 -0.1523
28299W        W47833   2.632  18.700   0.608  0.1802  0.2017 -0.2051
28300W        W47834   6.818   0.082   0.429 -0.2325  0.1543  0.2845
28301W        W47835   1.925   4.906   1.954  0.1617 -0.1078 -0.0473
28302W        W47836  17.572   2.322   4.196 -0.0953 -0.0184  0.3593
28303W        W47837   9.165  10.164  13.320 -0.0942 -0.1933  0.0772
28304W        W47838   6.615   7.698   2.300 -0.0880  0.2756  0.0619
28305W        W47839   6.708   6.603  13.017  0.1065 -0.0460 -0.0680
28306W        W47840  10.277  10.725   1.124  0.0946 -0.1850 -0.2556
28307W        W47841  12.859  10.602  11.281  0.5860 -0.4576 -0.1146
28308W        W47842  16.027  11.146  12.932 -0.2913 -0.2612  0.2951
28309W        W47843   6.715  17.451  12.803 -0.1862 -0.0343 -0.2469
28310W        W47844   8.457   1.398   4.127 -0.2625  0.1735  0.0717
28311W        W47845   2.812   9.409  10.579 -0.0507 -0.1218 -0.0859
28312W        W47846  17.529  17.886  14.020 -0.1951  0.0092  0.0553
28313W        W47847  18.424  19.000  10.859  0.0676 -0.1893  0.1753
28314W        W47848   9.435   4.348   3.879  0.1288  0.2092  0.2445
28315W        W47849  10.826   4.335   1.497  0.2260  0.0309  0.0508
28316W        W47850  14.279  13.426  13.121 -0.1904 -0.0501 -0.1956
28317W        W47851   6.721  17.067   1.747  0.1863 -0.0844 -0.0780
28318W        W47852  18.282   3.574   3.973  0.0162  0.2803  0.1612
28319W        W47853  10.670   6.483   1.237 -0.0747  0.1235  0.2758
28320W        W47854   7.078  13.112   1.722  0.2082  0.2233  0.0661
28321W        W47855   9.202  11.905  12.215 -0.1359  0.0223  0.3028
28322W        W47856  11.594  11.671   0.621 -0.0658  0.0231 -0.1876
28323W        W47857  15.575   7.939  12.191  0.1201 -0.0326 -0.0362
28324W        W47858   2.296   2.275   1.764 -0.2582 -0.3258 -0.1512
28325W        W47859  10.727   8.708  11.459  0.0467  0.1588  0.1358
28326W        W47860  10.129  19.453  12.454 -0.2659 -0.0443 -0.1434
28327W        W47861  16.927  15.540   3.353 -0.2244  0.2294  0.0773
28328W        W47862   0.872  10.368   1.872  0.2305 -0.0497  0.0342
28329W        W47863  14.529  10.860  11.788  0.0249  0.3056 -0.2951
28330W        W47864   2.511  13.054  12.282  0.2608 -0.1564 -0.1470
28331W        W47865   8.394   2.291  11.318 -0.3416 -0.1832 -0.5360
28332W        W47866   2.498  12.092  10.730 -0.0168 -0.0948  0.1367
28333W        W47867   2.343   7.092   1.115  0.3055 -0.0671  0.0718
28334W        W47868  12.252  15.663   1.960  0.0696  0.0280 -0.1610
28335W        W47869  17.276   6.406  10.785  0.1598 -0.1065  0.0904
28336W        W47870   7.485  13.222   3.049 -0.2540 -0.3916  0.1991
28337W        W47871  16.380   5.437  11.753  0.0876  0.3237 -0.1378
28338W        W47872  14.333   0.112  11.146 -0.2708 -0.0481  0.0065
28339W        W47873  11.205  16.147   1.336 -0.1085  0.1054 -0.0715
28340W        W47874  15.156  16.530   8.897 -0.2430  0.1350  0.2764
28341W        W47875   1.257   5.056   0.201  0.2630 -0.0871  0.0619
28342W        W47876   9.996  11.390  11.913  0.1089  0.0989 -0.0081
28343W        W47877  11.560   6.642  14.153  0.0697 -0.2693  0.1448
28344W        W47878  14.375   1.849   2.101  0.0771 -0.0960  0.1815
28345W        W47879   3.180  17.648   1.552  0.1040  0.0498  0.0666
28346W        W47880  14.527   4.226   3.636 -0.0559 -0.1950 -0.0850
28347W        W47881  15.307   4.765  14.140 -0.1901  0.1007  0.0099
28348W        W47882  12.302   5.134   0.154 -0.1606 -0.0846 -0.0599
28349W        W47883  11.024  14.773   4.801 -0.0923  0.1080  0.1853
28350W        W47884   6.577   6.892   9.662 -0.3389 -0.1515 -0.0846
28351W        W47885  13.217   5.340   0.576 -0.1158  0.3056  0.2110
28352W        W47886  13.723  17.331  12.728  0.1063  0.0911  0.1668
28353W        W47887   1.863   3.548   3.659 -0.1249  0.1322  0.2246
28354W        W47888  10.188   9.589  11.760  0.0750  0.0434  0.0440
28355W        W47889  16.892   2.009  13.254  0.1279  0.1675 -0.2044
28356W        W47890   0.064  14.282  14.085  0.0224  0.1822  0.1100
28357W        W47891   7.218  14.179  14.290  0.1493  0.3729 -0.1926
28358W        W47892  17.340   1.903  13.522 -0.0095  0.0944  0.1166
28359W        W47893  10.904  15.211  13.189  0.1318  0.2193  0.1042
28360W        W47894  13.807   5.075  13.809  0.1612 -0.0768  0.0945
28361W        W47895  17.181   7.778  12.661 -0.0216 -0.0582 -0.0611
28362W        W47896  13.773  11.339  14.053 -0.3821  0.1746  0.3395
28363W        W47897   2.437  18.463   9.428 -0.0930 -0.2200 -0.1454
28364W        W47898  11.048   9.697   2.707 -0.0929 -0.1518  0.2513
28365W        W47899   4.767   9.596   3.085  0.0218 -0.3042 -0.1189
28366W        W47900   9.375   9.349  11.296 -0.0482 -0.0418 -0.1068
28367W        W47901  15.221  18.244  13.111  0.0527 -0.0242 -0.0473
28368W        W47902   6.670   5.424   1.928  0.1157 -0.1607 -0.2966
28369W        W47903  18.394  15.348   3.293 -0.1458 -0.3224  0.3228
28370W        W47904   2.455   1.854   1.512  0.0991  0.0768 -0.2026
28371W        W47905  13.172  16.826   3.020 -0.0482  0.0628  0.2732
28372W        W47906  12.600   0.280   2.462  0.0086 -0.4411 -0.1140
28373W        W47907  19.361   0.207   3.631  0.1675  0.1676  0.3160
28374W        W47908   9.017   3.605  13.859 -0.3415  0.0861  0.1697
28375W        W47909   8.726   3.997   0.230  0.1223  0.4260  0.1060
28376W        W47910   1.622  16.353   0.536 -0.1674  0.0486 -0.0355
28377W        W47911   2.959  10.581  12.886  0.2895 -0.5181 -0.1216
28378W        W47912   8.921  12.966  13.760 -0.2536 -0.0649 -0.2614
28379W        W47913  10.829   4.275   0.817 -0.4215  0.3217 -0.3365
28380W        W47914  17.321  19.282   3.981 -0.0121  0.2934 -0.0963
28381W        W47915   4.852   1.506   0.241 -0.2778  0.2154 -0.0457
28382W        W47916   6.703  16.890  12.763 -0.1476  0.0910  0.1010
28383W        W47917  11.134  12.464  11.924  0.1321 -0.3730  0.0209
28384W        W47918   2.158   8.234  10.892  0.0830  0.0766 -0.0335
28385W        W47919   4.613  12.465  13.490  0.1890 -0.2870  0.2753
28386W        W47920  17.074  14.742   3.802  0.1479  0.0338 -0.0878
28387W        W47921   1.265   9.207  12.879  0.0088 -0.1948 -0.1544
28388W        W47922   9.733   2.928   0.707 -0.1417  0.0029 -0.1902
28389W        W47923   4.571  10.502   0.145  0.1613  0.0027  0.1505
28390W        W47924   8.960  16.274  10.600  0.1088  0.1435 -0.3127
28391W        W47925  17.981   2.088   4.141  0.1538 -0.0909  0.1112
28392W        W47926  11.925   0.519   1.411 -0.1743 -0.0324  0.0931
28393W        W47927  15.018   5.056  11.827 -0.2417 -0.0289 -0.0619
28394W        W47928   7.085  14.949   0.901 -0.1842  0.0396  0.0567
28395W        W47929  19.317   8.089  12.862 -0.2480 -0.0141 -0.1881
28396W        W47930   8.411  10.739  13.626  0.0790 -0.1924  0.0104
28397W        W47931   5.729   4.946   2.950 -0.1582 -0.0317 -0.1801
28398W        W47932   9.026   7.151   0.540 -0.1731 -0.0287  0.0980
28399W        W47933  17.336  12.673  10.994 -0.1818  0.2992 -0.0831
28400W        W47934  17.941   3.760   0.258 -0.1707  0.0609  0.0374
28401W        W47935  19.426  12.795   3.483  0.0708  0.2357  0.2479
28402W        W47936  14.495   6.453   0.233  0.0526 -0.2280 -0.1526
28403W        W47937   2.360  16.259  12.518 -0.2638 -0.0540 -0.0139
28404W        W47938  13.041   8.281   2.545  0.0892 -0.2860 -0.4429
28405W        W47939   3.978   7.779   3.840 -0.2516  0.0406  0.3465
28406W        W47940   0.398  12.998  14.265  0.0183 -0.1724  0.0075
28407W        W47941   6.539  19.442  11.186 -0.0910  0.0654  0.0220
28408W        W47942  13.133  14.470   1.559  0.2041 -0.1035 -0.2515
28409W        W47943  17.643  11.239   3.462  0.3614  0.1182  0.1041
28410W        W47944   9.558   7.870   0.253 -0.2142 -0.0038  0.0803
28411W        W47945  13.765  12.500  13.214  0.2576  0.4276 -0.0310
28412W        W47946   7.834  19.418   5.432  0.2994 -0.1970 -0.1937
28413W        W47947   0.634   4.721  12.626 -0.0195  0.1116  0.4403
28414W        W47948  12.361   2.829   3.355 -0.0937 -0.0480  0.0008
28415W        W47949  16.942   6.680   0.466  0.1145 -0.1744 -0.0713
28416W        W47950  12.934  11.783   0.971 -0.1859 -0.0794 -0.3492
28417W        W47951  12.463  14.360  12.789  0.0859 -0.1436  0.0072
28418W        W47952  19.050   4.362   1.988  0.0165 -0.1840  0.2621
28419W        W47953  11.236  14.705   1.621  0.0193 -0.1287 -0.3973
28420W        W47954   2.990  15.477  12.214 -0.1787  0.0347 -0.0065
28421W        W47955  11.836   1.235  13.131  0.3067 -0.2019 -0.1503
28422W        W47956   0.042   1.226   3.708 -0.2023  0.1420  0.4153
28423W        W47957   2.281   5.918  13.014 -0.0445  0.1109  0.2044
28424W        W47958  13.322   5.209  14.005 -0.1887 -0.1301 -0.1540
28425W        W47959   0.834  13.470  10.003  0.0646  0.4774  0.4076
28426W        W47960   6.564  16.568   2.399 -0.1285  0.0388  0.5193
28427W        W47961  11.154  12.835   1.347 -0.1429 -0.0011 -0.0541
28428W        W47962  10.567  13.624  12.828  0.0283 -0.2486  0.0629
28429W        W47963  16.912  15.524   0.261 -0.0391  0.0950  0.1063
28430W        W47964   3.934   7.795   1.908  0.2232  0.2316 -0.0211
28431W        W47965   8.784   7.027  14.292 -0.0903 -0.2942  0.4046
28432W        W47966  14.258   3.727   2.233 -0.0712 -0.1018  0.1499
28433W        W47967  18.716   1.890  12.758 -0.2486 -0.1517 -0.0061
28434W        W47968  11.360  11.803  10.361  0.3258  0.0997  0.0896
28435W        W47969  14.527   8.020   1.949  0.2109 -0.0416 -0.0344
28436W        W47970   9.408  13.140   3.074 -0.2307 -0.0726  0.0632
28437W        W47971  10.397   4.101   2.717 -0.1726  0.0532  0.1800
28438W        W47972  18.330   3.864   1.077  0.0686 -0.0227  0.0040
28439W        W47973   8.053   7.458  12.799 -0.4524  0.0894 -0.1610
28440W        W47974  14.184   2.901   1.855 -0.0820  0.1514 -0.0071
28441W        W47975  19.158  11.266   3.617  0.3863  0.2517 -0.1076
28442W        W47976  16.224  17.290   0.752 -0.0266 -0.1187 -0.0852
28443W        W47977  16.636  12.862   9.895  0.0319 -0.1423  0.1059
28444W        W47978  16.393  18.132  10.468  0.4807 -0.1459  0.0952
28445W        W47979   4.030   7.314  10.365  0.1117 -0.1341  0.0738
28446W        W47980  15.807  14.541  13.717  0.2179 -0.2526  0.0297
28447W        W47981  13.862   4.597   4.538 -0.5147  0.1875 -0.0820
28448W        W47982  12.804  19.007   0.994 -0.1101 -0.2074  0.1159
28449W        W47983  11.201  13.410   9.931  0.0728 -0.1088  0.1407
28450W        W47984  17.480  10.661  10.572  0.0704  0.0168 -0.1064
28451W        W47985   0.478   4.079   0.756  0.3037  0.0865  0.2393
28452W        W47986   2.771  10.172   0.008 -0.0226  0.1846  0.0623
28453W        W47987  13.355  14.770  11.167 -0.0672 -0.2207 -0.1764
28454W        W47988   9.643   8.533  14.040  0.1490 -0.1783  0.0037
28455W        W47989  17.224  14.527  11.191 -0.1322 -0.1450  0.0080
28456W        W47990  15.390   3.268   0.112  0.1922  0.1239 -0.2834
28457W        W47991  12.867  13.306  13.902  0.0033 -0.3110 -0.2678
28458W        W47992  15.400   9.028   2.500  0.2962  0.3144 -0.1106
28459W        W47993  15.407   8.035   3.794  0.3235 -0.1691 -0.1294
28460W        W47994  15.086  10.013  10.961 -0.2192  0.3153 -0.1278
28461W        W47995  11.412   5.510   2.878  0.0461 -0.0683 -0.0129
28462W        W47996  15.264   3.150   0.566 -0.2401  0.0783 -0.0992
28463W        W47997  17.263   9.931  12.520  0.1412  0.0305 -0.1491
28464W        W47998  14.403   8.638   4.699 -0.0382  0.2041 -0.1738
28465W        W47999   4.941  16.316  10.484 -0.1225  0.1172 -0.0519
28466W        W48000  14.048  19.537  12.563 -0.3950  0.3127  0.2008
28467W        W48001  14.445   2.891   0.980  0.0919  0.1261  0.0311
28468W        W48002   1.571  16.735   1.836 -0.2273 -0.1915 -0.3192
28469W        W48003  11.534  17.465   2.445 -0.0191  0.4208  0.1072
28470W        W48004  18.697   8.954   0.527 -0.3185 -0.2260 -0.1275
28471W        W48005  16.123   2.179  13.291  0.0883 -0.3349 -0.1091
28472W        W48006  17.504   6.910   0.728  0.0414 -0.1219 -0.0278
28473W        W48007   7.525  12.688  10.844 -0.0796  0.2852  0.0531
28474W        W48008   0.692  10.901   3.799 -0.2821 -0.0934 -0.3195
28475W        W48009   7.657  13.465  14.329  0.0942 -0.0796  0.2928
28476W        W48010  10.281   2.092   1.579  0.1148 -0.2069  0.3060
28477W        W48011   2.699  14.700   4.395  0.2505  0.1217  0.1424
28478W        W48012  14.794  16.082  13.674  0.2250 -0.2505 -0.0921
28479W        W48013   5.427   1.626   0.875 -0.0397  0.0203  0.1852
28480W        W48014  19.264   2.793  12.841 -0.0685  0.2124  0.0126
28481W        W48015  18.855  10.254  11.461 -0.1166 -0.4895  0.1655
28482W        W48016   4.385  12.355   3.777  0.2883 -0.0842  0.4464
28483W        W48017   8.422   1.845   1.129  0.1609  0.4932 -0.4358
28484W        W48018   4.488   5.975   1.987 -0.2254 -0.3107  0.1671
28485W        W48019   1.797   1.245   4.255  0.1863  0.3591 -0.2903
28486W        W48020  12.283   9.602  12.889  0.1530  0.1685 -0.1071
28487W        W48021  16.703   8.144   0.228 -0.1427  0.0131  0.3307
28488W        W48022  19.095  14.212  13.772 -0.0095  0.1085  0.0178
28489W        W48023  15.301   3.082   3.147  0.3099 -0.1296 -0.2247
28490ION     NA48024   4.124  18.490  13.084 -0.0192 -0.0063  0.2746
28491ION     NA48025   6.981   1.072   5.127 -0.2150 -0.0472 -0.1028
28492ION     NA48026  11.741   1.899   4.927  0.0491 -0.2326 -0.1248
28493ION     NA48027   9.365  12.317   4.520 -0.1944  0.1932 -0.1464
28494ION     NA48028   4.804   2.448   9.818  0.3077  0.2494  0.4157
28495ION     NA48029   5.275   2.366  11.462  0.2135  0.1813  0.0674
28496ION     NA48030   8.323  16.446   9.676 -0.1813 -0.1722 -0.2388
28497ION     NA48031  10.272  13.428  12.010 -0.0335  0.0360 -0.0530
28498ION     NA48032   0.555  15.531   4.741 -0.0993  0.1325 -0.1140
28499ION     NA48033  11.692  15.640   1.660  0.3468  0.0222  0.1387
28500ION     NA48034  17.278  16.663   9.791 -0.1723 -0.0933 -0.1136
28501ION     NA48035  18.691   4.051   4.477 -0.1576  0.0413 -0.0433
28502ION     NA48036   1.513   6.504  10.380 -0.1945 -0.2712 -0.2967
28503ION     NA48037   4.227   3.984   5.019 -0.0613 -0.0149 -0.0826
28504ION     NA48038   1.156   9.429   3.496 -0.1643 -0.0232 -0.1766
28505ION     NA48039   6.481   6.381   1.774 -0.4591  0.1508 -0.0159
28506ION     NA48040  14.491   4.658   9.593 -0.0848  0.1424 -0.2364
28507ION     NA48041   8.194  12.104   3.147 -0.2573 -0.3950 -0.1750
28508ION     NA48042  10.267   3.650   9.754 -0.1873 -0.1072  0.0345
28509ION     NA48043  16.882   5.104   9.778  0.4247  0.2425 -0.1206
28510ION     NA48044   9.252   6.718  12.311  0.0358 -0.0459 -0.1665
28511ION     NA48045   6.947   4.601   9.773 -0.1551  0.1415  0.0590
28512ION     NA48046  13.870   5.360   5.237  0.0141  0.0562 -0.0472
28513ION     NA48047  13.005  18.305   9.332 -0.2508 -0.0273 -0.4532
28514ION     NA48048  15.457   2.460   3.831 -0.0577  0.1129 -0.0527
28515ION     NA48049  17.110   8.579   4.428  0.2097 -0.0918 -0.0793
28516ION     NA48050  17.181  18.649   9.402  0.2600 -0.1595  0.1044
28517ION     NA48051   8.919  13.901   9.516  0.2280 -0.0848  0.0226
28518ION     NA48052   8.630   5.874   2.934 -0.2615  0.0767  0.0809
28519ION     NA48053  18.572  14.344  10.582 -0.2684  0.0765  0.1633
28520ION     NA48054  13.255   7.103   5.046  0.0952 -0.1142  0.1809
28521ION     NA48055  14.783  16.836  13.093  0.2828  0.0015  0.0870
28522ION     NA48056  14.395  13.121   4.243  0.2487 -0.3288 -0.3160
28523ION     NA48057   8.222   7.629   3.016 -0.1173  0.1250  0.1276
28524ION     NA48058   0.369  12.595   9.105  0.2046 -0.1346  0.1460
28525ION     NA48059  16.182   6.035   5.072 -0.0190  0.1617  0.0381
28526ION     NA48060  17.992   1.338   0.957 -0.1844 -0.1680 -0.0652
28527ION     NA48061   2.996   0.815   4.807  0.1947  0.0115 -0.0286
28528ION     NA48062  16.017   9.848   9.691  0.0842 -0.0480  0.1580
28529ION     NA48063  11.132  11.019   3.612 -0.1705  0.1972  0.1930
28530ION     NA48064   9.621   3.047   9.530 -0.0052  0.0200 -0.0743
28531ION     NA48065   6.113  12.017   9.566 -0.0469  0.0899  0.0212
28532ION     NA48066   7.806   3.449  14.105 -0.1663  0.1704  0.0459
28533ION     NA48067  13.499  11.346   8.966  0.0080 -0.1258 -0.1884
28534ION     NA48068  17.649   4.457   1.545  0.3494 -0.3468  0.3948
28535ION     NA48069  16.465   9.387   4.403 -0.1772 -0.2391 -0.0017
28536ION     NA48070   4.631   0.100  13.426  0.1540 -0.2458 -0.2333
28537ION     NA48071  13.093  10.282   3.607  0.0182  0.1735 -0.2103
28538ION     NA48072   1.960  16.235   9.616  0.0063 -0.1932 -0.2175
28539ION     NA48073  15.393   4.050  11.323  0.0239  0.0575  0.2404
28540ION     NA48074   5.708   8.560   2.188 -0.0229  0.1481  0.2043
28541ION     NA48075   1.120   4.829   4.106  0.0938  0.0118  0.0844
28542ION     NA48076  18.384  18.893   9.578  0.1820  0.2489  0.1954
28543ION     NA48077   8.451  10.416  10.182 -0.2346  0.2981 -0.0086
28544ION     NA48078  17.506  11.777   0.622  0.0020 -0.1871  0.0890
28545ION     NA48079   3.535  12.875   9.520  0.0610  0.1041  0.2413
28546ION     NA48080  18.219   8.084   9.595 -0.1531  0.1214 -0.0127
28547ION     NA48081   1.890  13.373   9.703  0.0378  0.0126 -0.1457
28548ION     NA48082  16.523  17.571   9.595 -0.1704  0.3906  0.0418
28549ION     NA48083   7.405   9.093   4.803  0.0142  0.3674  0.2178
28550ION     NA48084   9.074  13.727   4.668 -0.1010  0.1423  0.3157
28551ION     NA48085   4.418   4.369  10.161  0.4098 -0.3706  0.1697
28552ION     NA48086  10.765   9.175  13.128  0.3698  0.1513  0.2456
28553ION     NA48087   8.724  11.484   9.918 -0.0857 -0.1720  0.0337
28554ION     NA48088   0.465  19.407   9.779  0.2483  0.0493 -0.0161
28555ION     NA48089  15.938   1.644   0.109 -0.1436 -0.0163 -0.1693
28556ION     NA48090  16.905   9.821   9.660  0.2497  0.0631 -0.0861
28557ION     NA48091   1.861  14.745   3.945  0.0757  0.1905 -0.0857
28558ION     NA48092   1.130  10.336  12.037 -0.0051 -0.1948  0.3968
28559ION     NA48093   1.438   7.798   1.821 -0.3532  0.0589 -0.2184
28560ION     NA48094  17.211   4.935   5.186  0.1353  0.0567  0.2253
28561ION     NA48095   5.020  13.093   9.672  0.2180 -0.0477  0.2007
28562ION     NA48096  17.916  18.147   9.654  0.1215 -0.3084 -0.1866
28563ION     NA48097  18.373   6.363   5.070 -0.0369 -0.1255  0.2381
28564ION     NA48098   6.740  19.080   4.805  0.0428 -0.3497 -0.0379
28565ION     NA48099   9.403   3.146   4.882 -0.2384  0.1444  0.2506
28566ION     NA48100   4.522   0.675   4.922 -0.0334  0.3059 -0.0678
28567ION     NA48101  11.478  10.036   9.755  0.0698 -0.1523 -0.1167
28568ION     NA48102   3.770  11.059   9.794 -0.2008  0.0505 -0.0834
28569ION     NA48103   3.730  18.728   9.810  0.2252 -0.3013 -0.0298
28570ION     NA48104  18.829  11.418   4.439  0.1305 -0.1427 -0.1677
28571ION     NA48105  12.111  17.807   9.306 -0.4998 -0.4349 -0.4231
28572ION     NA48106  19.284   1.738   1.000  0.1109 -0.1974  0.0592
28573ION     NA48107   8.434  14.202   9.519  0.0316 -0.0751  0.2128
28574ION     NA48108  14.130   2.992   9.674 -0.2284 -0.0984 -0.1384
28575ION     NA48109   1.074  10.988   9.629 -0.1498 -0.0578  0.0013
28576ION     NA48110  19.199  19.341   4.776  0.2694 -0.0029 -0.4792
28577ION     NA48111   6.246  11.196   9.522 -0.2705  0.0730  0.0394
28578ION     NA48112   7.518  19.251   5.021  0.2415  0.1385 -0.2362
28579ION     NA48113  16.325   9.024  13.213  0.1290 -0.1819 -0.4123
28580ION     NA48114   3.993   4.301   9.579  0.0544 -0.1989 -0.0751
28581ION     NA48115   1.442   1.727   4.995 -0.2023  0.4594  0.1048
28582ION     NA48116  11.600  15.353   9.323 -0.1928  0.2525 -0.0101
28583ION     NA48117  14.621  19.098   5.245 -0.0598 -0.2181  0.0888
28584ION     NA48118  16.906  10.836   4.407  0.1207 -0.0475  0.2124
28585ION     NA48119   8.024  12.863   9.557 -0.2330 -0.1485  0.1600
28586ION     NA48120   7.945   3.796   9.366  0.1017  0.1546 -0.3009
28587ION     NA48121   1.524  11.554   0.678 -0.1321  0.1554  0.1612
28588ION     NA48122  13.525  15.569   9.350  0.1630  0.1041  0.1801
28589ION     NA48123  11.435   4.810   0.291  0.3684 -0.0480 -0.0528
28590ION     NA48124  17.849  10.605   9.400  0.2476 -0.3109  0.1237
28591ION     NA48125  10.033  17.515  12.585 -0.0162  0.2174  0.3824
28592ION     NA48126  18.335   4.578  10.369 -0.0582 -0.0254 -0.1095
28593ION     NA48127  17.560  17.316  12.459 -0.1319 -0.0620  0.3523
28594ION     NA48128  15.624  11.317  13.910 -0.0230  0.1870 -0.0215
28595ION     NA48129   6.826  18.089   4.997  0.3126 -0.2162 -0.1928
28596ION     NA48130   1.273   8.739  12.652  0.1588 -0.3762  0.1921
28597ION     NA48131   9.919  14.862   1.901  0.1056 -0.2078  0.1481
28598ION     NA48132  14.117   3.195  12.524 -0.0837  0.2114  0.3737
28599ION     NA48133   0.394   7.043  10.315  0.3225 -0.1980 -0.1513
28600ION     NA48134  13.444   0.352   4.832  0.0712  0.0437  0.0648
28601ION     NA48135  13.881  17.069   4.843  0.0427 -0.2625 -0.1644
28602ION     NA48136  18.548   2.277  12.402 -0.1487 -0.1987 -0.1871
28603ION     NA48137  12.200  14.589  12.333 -0.0859  0.0945 -0.0503
28604ION     NA48138   4.601   3.526  12.498 -0.1006  0.1219  0.2459
28605ION     NA48139  14.490   3.238   2.685 -0.1923 -0.0011  0.1383
28606ION     NA48140   9.951  10.536  10.039  0.1176 -0.1217 -0.3224
28607ION     NA48141   1.288   4.561   4.967 -0.0560 -0.1735 -0.1567
28608ION     NA48142  15.909   0.480  12.558  0.1981 -0.0435  0.0262
28609ION     NA48143   1.798  16.715   5.056  0.2337  0.0346  0.2100
28610ION     NA48144   9.996   5.416   9.717 -0.3151  0.0264 -0.1190
28611ION     NA48145   4.634   2.799   1.389 -0.2588  0.1564  0.0083
28612ION     NA48146   6.853  16.740   0.614 -0.0327  0.1966  0.1147
28613ION     NA48147   3.196  12.804  11.716  0.1546  0.1722 -0.4985
28614ION     NA48148  15.973   4.765   3.596  0.1259 -0.1437  0.2280
28615ION     NA48149  18.029   8.089   4.619  0.1764  0.4951 -0.0865
28616ION     NA48150   7.604   3.303   2.877 -0.0499 -0.0468  0.2846
28617ION     NA48151   7.683  18.604   4.801  0.1727 -0.4104 -0.1726
28618ION     NA48152   9.948   8.658   4.407  0.1779 -0.1399 -0.2952
28619ION     NA48153   9.267   6.731  10.664 -0.2910  0.3053  0.0435
28620ION     NA48154   4.814   7.367   4.302 -0.1309  0.1036 -0.0070
28621ION     NA48155  11.910  12.939   9.406 -0.1869  0.3320 -0.4216
28622ION     NA48156  17.815  10.970  12.303 -0.1830 -0.0894  0.1885
28623ION     NA48157  15.090  17.801   9.343  0.3253 -0.0773  0.0015
28624ION     NA48158   3.517   3.457   5.061  0.1003  0.1299  0.1149
28625ION     NA48159  12.889  11.800   9.324  0.3678  0.0981  0.0620
28626ION     NA48160  14.905   6.183   1.524 -0.1966  0.0969  0.2223
28627ION     NA48161  11.292  18.902   2.770 -0.3459 -0.1672  0.0755
28628ION     NA48162   3.148   6.029   9.732  0.2892 -0.0538 -0.0564
28629ION     NA48163  16.734   4.247   4.906  0.1236 -0.0359 -0.2306
28630ION     NA48164   5.285  18.237   1.522  0.0086 -0.0740 -0.0829
28631ION     NA48165   4.751   6.352   9.406 -0.1999 -0.2295 -0.1873
28632ION     NA48166  14.404   7.496   1.822  0.0559 -0.4063 -0.1810
28633ION     NA48167   2.383   1.549   4.873 -0.0404 -0.2854 -0.0201
28634ION     NA48168  10.977   4.241   9.692 -0.3466 -0.0580  0.1720
28635ION     NA48169  10.828   6.524   9.626  0.0754  0.0194 -0.0541
28636ION     NA48170  14.370  15.827  13.764  0.0905 -0.3963 -0.3107
28637ION     NA48171  18.824   6.936   1.353 -0.0954  0.0018 -0.1980
28638ION     NA48172   6.721  15.945   4.524 -0.0720 -0.0477 -0.1303
28639ION     NA48173   4.112   2.078  13.637  0.0805 -0.0971 -0.1976
28640ION     NA48174  12.634  18.650   4.824  0.3261  0.0308 -0.3261
28641ION     NA48175   4.904   0.311   4.841  0.1200  0.1428  0.0709
28642ION     NA48176  10.367   2.883   4.621  0.0855 -0.0592 -0.5634
28643ION     NA48177   6.728   8.326   9.490  0.0363 -0.0509  0.1223
28644ION     NA48178  11.035  18.514   9.729  0.5366  0.0099 -0.1980
28645ION     NA48179   4.976  10.605   5.271 -0.1079  0.1290  0.0038
28646ION     NA48180   1.200  13.764   9.497  0.2340 -0.0877 -0.1809
28647ION     NA48181   8.480   1.422  11.089  0.2550 -0.0487  0.0766
28648ION     NA48182  16.367  19.104   9.529  0.2994 -0.2679 -0.1517
28649ION     NA48183  18.844  17.973   9.588 -0.0057  0.0204  0.1962
28650ION     NA48184  14.739  19.457   9.572 -0.5368 -0.0887  0.2922
28651ION     NA48185   0.505   6.464   4.925  0.0274 -0.0285  0.2457
28652ION     NA48186   7.315   8.082   9.514  0.1881 -0.0160  0.1021
28653ION     NA48187  15.224   5.242   9.831  0.0376 -0.1210 -0.4602
28654ION     NA48188  10.607  14.231   9.538 -0.0028 -0.1140 -0.1342
28655ION     NA48189  17.377   2.502  10.750 -0.1865  0.3149 -0.0452
28656ION     NA48190   0.956   1.902   1.555  0.0571 -0.0495  0.3041
28657ION     NA48191   0.058  17.046   9.409  0.1417 -0.0146  0.2342
28658ION     NA48192  12.146  18.877   0.939  0.0185  0.0180 -0.1524
28659ION     NA48193  10.549   7.064   4.758 -0.2855  0.2914  0.0608
28660ION     NA48194   0.152   2.765   9.734 -0.1766  0.4930 -0.0435
28661ION     NA48195  15.559   9.071   4.741 -0.2156 -0.0286  0.0094
28662ION     NA48196   6.133   3.921   9.853 -0.1227  0.3247  0.0772
28663ION     NA48197   1.260  10.302   1.271  0.1372  0.0157  0.1774
28664ION     NA48198  16.631   1.917   9.849 -0.2296 -0.0381 -0.1300
28665ION     NA48199   2.754  14.210   9.482 -0.1750  0.0803 -0.1680
28666ION     NA48200   8.351   9.341   0.431 -0.0993  0.1275  0.3053
28667ION     NA48201   5.581   4.120   9.668  0.2092 -0.0492  0.1347
28668ION     NA48202  17.501  17.432   3.252 -0.1799  0.0630  0.2585
28669ION     NA48203   6.798  13.150   9.492  0.0524  0.0794 -0.1898
28670ION     NA48204   7.741  15.777   4.331 -0.2087  0.1209 -0.1558
28671ION     NA48205   4.538  18.617  13.439 -0.0267  0.0174 -0.0354
28672ION     NA48206  19.430  14.219  12.970 -0.3939  0.1908 -0.0780
28673ION     NA48207   4.418  12.485   9.615 -0.2555  0.0224  0.1314
28674ION     NA48208  18.348  10.570  13.119  0.2499  0.0166  0.0821
28675ION     NA48209   7.598   2.301  12.195  0.0789 -0.3132 -0.0684
28676ION     NA48210  11.352  10.690   4.844 -0.1173  0.2025 -0.1805
28677ION     NA48211   0.998   4.699  12.914 -0.0784  0.2364 -0.0979
28678ION     NA48212  14.191   3.521   9.672 -0.3975 -0.0173  0.1452
28679ION     NA48213   0.046   5.063   5.113 -0.1096 -0.0461 -0.1543
28680ION     NA48214  14.579  11.143  11.385 -0.2283  0.2048  0.1034
28681ION     NA48215  15.866  13.796   9.617 -0.2910  0.1867  0.1043
28682ION     NA48216  12.764  16.163   9.121 -0.0575  0.0898 -0.1652
28683ION     NA48217  16.454  13.358   9.460 -0.0429  0.0969  0.0364
28684ION     NA48218  11.983   1.362   1.451 -0.2492 -0.0485 -0.0825
28685ION     NA48219   6.150  10.517   5.097 -0.0533 -0.2565  0.0615
28686ION     NA48220   1.855  15.035   9.841 -0.0861 -0.0253  0.0207
28687ION     NA48221   0.989  10.888   4.796  0.0617 -0.2272  0.0001
28688ION     NA48222   4.343  13.100   4.274  0.1433 -0.1975  0.0857
28689ION     NA48223  13.562  11.411   4.295  0.1039 -0.1449 -0.0627
28690ION     NA48224   5.360   2.553  12.380  0.3538 -0.1718 -0.0316
28691ION     NA48225  12.510  13.055   4.716 -0.0438  0.0292 -0.1363
28692ION     NA48226  19.535   0.972   9.877  0.2060 -0.1402 -0.1846
28693ION     NA48227   0.305  18.102   4.938 -0.0325  0.3621 -0.2219
28694ION     NA48228   1.946  12.012   3.754 -0.1212 -0.0195  0.2100
28695ION     NA48229   4.985   1.288  12.057  0.1465  0.1794  0.0132
28696ION     NA48230  19.403  13.439   9.271  0.1580 -0.0930  0.3399
28697ION     NA48231  14.021   7.380   4.174  0.2658 -0.3075  0.3720
28698ION     NA48232   3.515  13.068   2.821 -0.0047 -0.1253 -0.3129
28699ION     NA48233  15.175   4.142   4.953  0.0567  0.2464 -0.1828
28700ION     NA48234   1.727  14.282   4.276 -0.1091  0.1247 -0.0043
28701ION     NA48235  18.354  18.823   1.696  0.0259 -0.2001  0.2992
28702ION     NA48236   0.283  13.420   3.837 -0.0319  0.0639 -0.0505
28703ION     NA48237   2.905   0.529  12.413 -0.1598 -0.1648  0.2335
28704ION     NA48238   4.046   3.040   9.790  0.0443  0.1319  0.1019
28705ION     NA48239  14.120   9.914   1.964  0.3267 -0.1900 -0.1468
28706ION     NA48240  11.610   7.699   5.063 -0.1218  0.2352 -0.2066
28707ION     NA48241   3.714   0.541   9.742  0.1360 -0.0598 -0.1204
28708ION     NA48242  18.417  15.303   0.153  0.0062  0.1928  0.1124
28709ION     NA48243  11.996  14.113  10.155 -0.1136  0.0438  0.4321
28710ION     NA48244  13.569   7.123  10.301 -0.2718  0.2621  0.0184
28711ION     NA48245   7.008  14.062   4.101 -0.0070  0.1073 -0.0139
28712ION     NA48246   6.571   8.762   5.071  0.0678 -0.0038  0.2562
28713ION     NA48247  18.364   6.351   2.718 -0.1580 -0.2188 -0.1581
28714ION     NA48248  11.084   0.219   4.857  0.0837  0.0890  0.2691
28715ION     NA48249   3.976   3.517  10.020 -0.0173  0.3821  0.4862
28716ION     NA48250   4.765  16.851   4.951 -0.1389 -0.1096 -0.0676
28717ION     NA48251  13.052   0.768   9.995  0.1017 -0.1995 -0.0369
28718ION     NA48252  13.659   9.083   4.953 -0.0471 -0.2332  0.2435
28719ION     NA48253  19.227  13.489  11.138  0.0221  0.1150  0.0607
28720ION     NA48254  13.777  10.068   4.875  0.4203  0.2251 -0.0158
28721ION     NA48255  18.189  10.669   4.569 -0.2877 -0.4003  0.0470
28722ION     NA48256  16.498  17.931   4.917  0.1690 -0.2785 -0.1335
28723ION     NA48257  18.594  13.730   4.872  0.0620 -0.0717 -0.1461
28724ION     NA48258  13.421  17.028   4.470  0.0875  0.2020  0.1116
28725ION     NA48259  10.473  12.023  12.497 -0.3192  0.1769  0.2141
28726ION     NA48260  17.986  16.802  10.902 -0.2383  0.0046  0.0697
28727ION     NA48261  13.657   5.971  10.546  0.0003 -0.2235  0.0580
28728ION     NA48262  18.212  17.366   9.635 -0.1867 -0.0853  0.0363
28729ION     NA48263  17.223  14.074   0.688 -0.3054  0.0847  0.0596
28730ION     NA48264   7.399  13.102   9.227  0.0684  0.1284  0.0674
28731ION     NA48265   5.279  13.066   0.704  0.1293  0.0941  0.2602
28732ION     NA48266   4.221  16.485   9.359  0.1505 -0.1283 -0.1759
28733ION     NA48267   6.329   9.853  10.244 -0.0010 -0.0593  0.1418
28734ION     NA48268   9.770  11.060   5.244  0.3630  0.1291 -0.1052
28735ION     NA48269  17.244   4.292   9.789  0.1012 -0.1977  0.2661
28736ION     NA48270  19.402   1.200   1.738 -0.1514 -0.0725 -0.0488
28737ION     NA48271   8.241   8.225   9.665 -0.0532 -0.0414  0.0323
28738ION     NA48272   0.321   5.531   0.182  0.2235 -0.0831  0.1238
28739ION     NA48273   8.136   9.747   4.947  0.0358  0.0583 -0.3327
28740ION     NA48274   5.548   1.144   9.722  0.0958 -0.0535 -0.0147
28741ION     NA48275  14.331  18.093   9.607 -0.0705  0.3110 -0.2573
28742ION     NA48276  15.595  19.220   9.500 -0.2229 -0.1375  0.2278
28743ION     NA48277  16.110  19.482   4.009 -0.1485  0.3704  0.2809
28744ION     NA48278   6.997  10.440  12.356  0.0381  0.0833 -0.0765
28745ION     NA48279  16.249   5.269   4.808  0.1944  0.1798 -0.0339
28746ION     NA48280   0.917   3.340  10.048  0.1889  0.0951  0.1292
28747ION     NA48281  10.144   9.293   5.133  0.0045 -0.2677  0.0778
28748ION     NA48282   9.541   3.704   0.661  0.3227 -0.1187 -0.0616
28749ION     NA48283  13.118   6.122   5.163  0.2022  0.1612 -0.1527
28750ION     NA48284   6.794  16.639   9.600  0.0488  0.2220  0.1370
28751ION     NA48285   3.674  17.430   4.630  0.1835 -0.2648 -0.2176
28752ION     NA48286  13.476   3.215   4.816  0.0717 -0.0039 -0.2428
28753ION     NA48287   3.066  10.919   9.635  0.2613  0.1040 -0.1032
28754ION     NA48288  13.421  13.995   4.129  0.1115  0.1673 -0.2422
28755ION     NA48289   2.237   8.715   9.937 -0.0414  0.1955 -0.1817
28756ION     NA48290  16.223  19.519  12.282 -0.1575  0.1397 -0.0206
28757ION     NA48291  14.174  14.111  11.987 -0.0092 -0.2459  0.0015
28758ION     NA48292   6.715  11.233   0.640 -0.0358 -0.2936 -0.0102
28759ION     NA48293  15.222   8.255   4.823 -0.0019  0.3905  0.3440
28760ION     NA48294  19.195   2.646  11.022 -0.0392 -0.0714  0.1852
28761ION     NA48295  19.152   4.564  10.093 -0.0670  0.2831  0.1315
28762ION     NA48296  12.139   1.577   2.804  0.0374  0.1036  0.5796
28763ION     NA48297   4.442  15.525  14.002  0.2333 -0.0416  0.2082
28764ION     NA48298   9.140  18.747   9.821 -0.2764 -0.1466  0.3644
28765ION     NA48299   0.941   3.794   4.897  0.1194 -0.3433 -0.1675
28766ION     NA48300   5.545   8.335   3.149  0.0681 -0.0484 -0.0956
28767ION     NA48301   9.053  15.529   0.496 -0.1593  0.1820  0.0971
28768ION     NA48302  10.628   8.855   0.750  0.2939 -0.2414  0.2136
28769ION     NA48303  13.094  15.768  14.028 -0.1454  0.0146 -0.2501
28770ION     NA48304  10.882  10.597  10.543  0.0855 -0.2267  0.3118
28771ION     NA48305  17.186   0.188  12.268  0.0192 -0.0115 -0.0963
28772ION     NA48306   2.518  10.812   4.675 -0.0080  0.1699 -0.2099
28773ION     NA48307  12.557  15.248   9.209  0.1431  0.3286  0.1070
28774ION     NA48308   9.507  18.069   5.232 -0.0948 -0.0158  0.2644
28775ION     NA48309   0.406  14.098   9.318  0.0653  0.1702 -0.0688
28776ION     NA48310   8.386   5.819   9.752  0.0078  0.0955  0.2829
28777ION     NA48311   5.654   3.061   9.742 -0.2770 -0.0245  0.0347
28778ION     NA48312  14.576   0.547   1.757  0.0638 -0.0039 -0.2811
28779ION     NA48313  18.282  17.813   4.973  0.1661  0.1522 -0.3134
28780ION     NA48314  11.197   2.814   1.829  0.0929 -0.0889 -0.2418
28781ION     NA48315   9.970   8.854   9.636 -0.2296 -0.4030  0.1644
28782ION     NA48316  16.700   3.418   4.825  0.1454  0.0379 -0.1217
28783ION     NA48317  16.975   6.273   2.502 -0.0218  0.0889  0.0954
28784ION     NA48318   6.488   5.851  14.048  0.1959  0.0055  0.0456
28785ION     NA48319   8.823  10.037  11.886 -0.0994 -0.0763 -0.0207
28786ION     NA48320   5.897   8.048   9.729 -0.0737 -0.1450  0.3609
28787ION     NA48321  18.611  17.529   1.814  0.2870 -0.0055  0.1975
28788ION     NA48322  12.255  12.838   1.230 -0.0575 -0.0418 -0.2444
28789ION     NA48323   4.893   8.000   9.369 -0.0877  0.0281  0.1065
28790ION     NA48324   1.600   4.185   0.296  0.0028  0.1079 -0.0997
28791ION     NA48325  14.304   4.417   4.256 -0.1860  0.0297  0.0320
28792ION     NA48326   5.368  16.895   9.830  0.1598 -0.0108  0.1221
28793ION     NA48327  14.378   8.356  12.610  0.3157 -0.1579  0.2295
28794ION     NA48328   4.834  13.318   4.804  0.0142 -0.0536 -0.1387
28795ION     NA48329   0.784  13.773  13.715 -0.0074 -0.0551  0.1968
28796ION     NA48330  15.806  15.475   1.363 -0.1215  0.1837 -0.1482
28797ION     NA48331  11.912   5.551   4.148 -0.2785  0.2154  0.0551
28798ION     NA48332  12.334  12.324   4.492  0.2000  0.1520  0.4726
28799ION     NA48333   7.019   5.449   9.507  0.1639  0.0648 -0.2199
28800ION     NA48334  16.274   8.141   1.009  0.0452 -0.1733  0.0824
28801ION     NA48335  12.393   0.678   9.904  0.0271 -0.1746  0.1062
28802ION     NA48336   8.098  10.807  14.061  0.0995 -0.0757 -0.0520
28803ION     NA48337  18.732   9.742   9.570  0.4275 -0.0459  0.0324
28804ION     NA48338  12.646  13.504   9.216  0.0291  0.2208  0.0112
28805ION     NA48339  10.815   1.616   4.871  0.0652  0.2303  0.0478
28806ION     NA48340  10.119  12.528   3.470 -0.0554  0.1108 -0.2863
28807ION     NA48341   8.838  12.214   9.663  0.3994 -0.0959 -0.0112
28808ION     NA48342  10.833  12.072   9.698  0.2028 -0.0559 -0.1567
28809ION     NA48343  19.118   3.273   9.838 -0.1237  0.2592 -0.0165
28810ION     NA48344   2.298  10.814   2.250 -0.1499 -0.0463 -0.3177
28811ION     NA48345  10.014  18.838   5.087 -0.3227 -0.1201  0.2421
28812ION     NA48346   3.952  13.417   4.493 -0.0087  0.0691 -0.2193
28813ION     NA48347  11.003  10.036   9.569 -0.2795 -0.1358  0.1876
28814ION     NA48348  16.208   2.287   5.063  0.4041 -0.3610 -0.1590
28815ION     NA48349  15.356  16.805   1.982  0.1723  0.1889 -0.2129
28816ION     NA48350   9.602   5.421  12.029  0.0597 -0.1043 -0.2378
28817ION     NA48351  18.266  12.138   4.658  0.1496  0.3266 -0.0283
28818ION     NA48352   6.331  11.980  13.836 -0.0002  0.0325 -0.1496
28819ION     NA48353  15.106  10.182   9.465  0.0709  0.3138 -0.1197
28820ION     NA48354  12.541   5.310   3.595 -0.0554 -0.2753  0.1080
28821ION     NA48355  11.765  18.259  10.328  0.1742  0.4635 -0.1121
28822ION     NA48356   3.071   5.534  11.310 -0.1077 -0.0559 -0.1389
28823ION     NA48357   2.392  19.518   4.725 -0.0449 -0.3748  0.3366
28824ION     NA48358  15.553   5.938   2.970 -0.0363  0.0212 -0.1177
28825ION     NA48359  15.735  14.664   9.551  0.2188  0.1173 -0.4854
28826ION     NA48360   1.902   8.817   5.028 -0.2725 -0.2581 -0.3272
28827ION     NA48361   9.368  12.866   4.508 -0.0288 -0.0525  0.3507
28828ION     NA48362  19.345   8.784   4.772  0.3721 -0.1927 -0.0500
28829ION     NA48363  15.021  13.611  10.852 -0.1005  0.3919 -0.1133
28830ION     NA48364   2.166   2.529   5.060  0.0224  0.4347 -0.2918
28831ION     NA48365   5.589  15.394   2.292 -0.1148 -0.0273 -0.1708
28832ION     NA48366   0.993   4.921  11.520  0.3264  0.0073  0.1674
28833ION     NA48367  18.007   7.652  13.798 -0.1583  0.1021  0.0979
28834ION     NA48368  18.886   6.665   9.641  0.4230  0.3391 -0.1729
28835ION     NA48369  19.263   7.812   4.713 -0.2129 -0.1224 -0.1126
28836ION     NA48370   9.347  16.837  14.020 -0.2284  0.0252  0.1985
28837ION     NA48371  10.677  10.146   5.032  0.0845  0.1171  0.2653
28838ION     NA48372  15.758   1.147   5.167 -0.0134 -0.2846  0.2135
28839ION     NA48373  17.162   9.744   9.242  0.2489  0.1408  0.0121
28840ION     NA48374  11.959  16.906   9.111 -0.2133  0.3014 -0.1799
28841ION     NA48375  17.448   3.940   5.105  0.2312  0.3995  0.0056
28842ION     NA48376   4.703  11.519   5.167 -0.0373  0.0095  0.1605
28843ION     NA48377   9.872  16.373   3.823 -0.0724  0.1252  0.0864
28844ION     NA48378  18.290   4.111   4.802 -0.0582 -0.1307 -0.1270
28845ION     NA48379  17.758   5.588   3.368  0.2949  0.1403 -0.3808
28846ION     NA48380  16.305   3.287  10.235  0.1506  0.1129 -0.0412
28847ION     NA48381  16.918  16.278   4.503  0.0443 -0.4074 -0.0357
28848ION     NA48382  16.475  19.029   4.885 -0.0267 -0.2434  0.0588
28849ION     NA48383  11.443   0.891  12.188 -0.0930 -0.0017  0.2146
28850ION     NA48384   0.914   0.810  10.453  0.1330  0.3075  0.0082
28851ION     NA48385  10.969  12.271  13.329 -0.0255  0.2247  0.1375
28852ION     NA48386   0.269  11.347  10.418  0.0061 -0.1793 -0.0247
28853ION     NA48387  12.299  13.386   2.760  0.1641  0.1150 -0.0582
28854ION     NA48388   5.542   6.381   9.361  0.1146  0.0458 -0.0981
28855ION     NA48389   9.312   2.828   1.085 -0.0461 -0.0314  0.1886
28856ION     NA48390   7.276  18.851   9.916  0.2430 -0.1940  0.0959
28857ION     NA48391  18.498   5.498   5.221  0.0684 -0.2047 -0.0809
28858ION     NA48392   6.884  11.219   5.100 -0.1376 -0.1017  0.2674
28859ION     NA48393   3.670  13.549  12.682 -0.0936  0.0596 -0.4505
28860ION     NA48394  19.274  18.598   4.559  0.2175  0.0480  0.0188
28861ION     NA48395  13.957  16.130  13.156 -0.0228  0.0759  0.2259
28862ION     NA48396   4.462  14.207   4.599  0.0046 -0.0217  0.0273
28863ION     NA48397   8.626   9.791   9.681 -0.2474  0.2097 -0.0232
28864ION     NA48398  19.189  19.489  10.053 -0.0368  0.3900  0.1887
28865ION     NA48399  18.792   5.780   9.705 -0.0381 -0.1882 -0.1570
28866ION     NA48400   8.237   4.079   4.947  0.2358 -0.1650 -0.1033
28867ION     NA48401   7.370   8.325   2.557  0.0040 -0.0048  0.0004
28868ION     NA48402  10.835   1.489   9.845  0.1206 -0.0454 -0.2759
28869ION     NA48403  16.914   9.589  12.578  0.2675  0.1645 -0.1714
28870ION     NA48404  17.017   9.242  13.715  0.0262 -0.3633  0.2681
28871ION     NA48405  11.389   6.959   4.775 -0.1076 -0.0391 -0.2051
28872ION     NA48406   2.641   6.106   1.970  0.1835 -0.2060 -0.1490
28873ION     NA48407   5.959   2.861   5.023 -0.2382 -0.2359 -0.2371
28874ION     NA48408  11.576   6.347   2.978  0.1160  0.0298  0.0416
28875ION     NA48409   1.146   4.163   1.103 -0.2118 -0.2189  0.0513
28876ION     NA48410  16.508   4.159  11.226 -0.0656 -0.0490  0.3052
28877ION     NA48411  17.965  15.014   9.358  0.0653 -0.3154  0.2610
28878ION     NA48412  11.572   4.879   9.955  0.1343  0.2645  0.0658
28879ION     NA48413  14.138  14.497   9.475  0.3636  0.2808 -0.0283
28880ION     NA48414  16.081  14.438   1.746  0.1044 -0.1041  0.3345
28881ION     NA48415  18.607   1.111   9.860 -0.0551  0.0773 -0.0962
28882ION     NA48416  15.132  16.950   3.655 -0.0602 -0.0160 -0.0034
28883ION     NA48417  19.244   8.558  12.755  0.1178 -0.0756  0.1514
28884ION     NA48418  15.215   7.357   5.069  0.1262  0.0145 -0.0080
28885ION     NA48419  17.369  18.663   4.726 -0.2065 -0.5359 -0.1331
28886ION     NA48420   6.905   0.676   3.449  0.0496 -0.1866  0.0223
28887ION     NA48421   9.895   1.312  13.098 -0.0883  0.0166  0.3038
28888ION     NA48422  11.239  12.121   4.423 -0.0621 -0.0892 -0.2682
28889ION     NA48423   8.460  17.540   3.851  0.0550 -0.2986 -0.1582
28890ION     NA48424  18.485  13.187  13.972 -0.0354  0.0364 -0.1344
28891ION     NA48425   6.870  18.620   0.565 -0.0767 -0.0951 -0.0689
28892ION     NA48426   7.060  13.197   4.405 -0.0452 -0.2012  0.1825
28893ION     NA48427  15.053  11.291   9.353 -0.4295  0.0784 -0.1711
28894ION     NA48428  14.453  18.630   5.205  0.0217  0.2799 -0.1842
28895ION     NA48429  11.346   3.081   9.884 -0.2127  0.0521 -0.3609
28896ION     NA48430   6.382  16.661  13.808 -0.3865 -0.0033  0.0842
28897ION     NA48431   5.731  19.131   4.755  0.2260 -0.1660 -0.6074
28898ION     NA48432  10.344  11.482   3.531 -0.1671 -0.2846  0.0423
28899ION     NA48433   3.297   0.235   4.874 -0.1659  0.3323 -0.3680
28900ION     NA48434  13.541   1.573   4.620  0.0081  0.0947 -0.0911
28901ION     NA48435   3.663   2.231   4.929 -0.3384  0.0453  0.0250
28902ION     NA48436   6.116   4.143   4.638  0.0849  0.1260 -0.1172
28903ION     NA48437   5.467  11.264   9.709 -0.0635  0.2477  0.0494
28904ION     NA48438   6.893  12.367   0.854  0.0350  0.2741  0.1392
28905ION     NA48439  14.909  12.745   9.535  0.2587  0.0486 -0.0555
28906ION     NA48440   4.783   4.922   9.447  0.0876  0.2189  0.0001
28907ION     NA48441  18.508   1.779   5.045 -0.0393  0.2909 -0.1881
28908ION     NA48442   9.110   7.452   9.510  0.2067 -0.0798  0.0033
28909ION     NA48443  10.236  12.498   4.483 -0.1804 -0.3450  0.3829
28910ION     NA48444   9.326  11.504   1.282 -0.0908 -0.1935  0.0032
28911ION     NA48445   1.238  12.882   9.415  0.4389 -0.1468  0.2436
28912ION     NA48446   8.020  11.936   9.706 -0.0935  0.0627  0.1719
28913ION     NA48447  15.749  16.730   4.863  0.1558 -0.1621  0.1939
28914ION     NA48448  12.388  17.914   4.726 -0.1789 -0.0074  0.3711
28915ION     NA48449  17.427   4.741   9.931  0.1084  0.1490  0.0175
28916ION     NA48450   9.275   4.764   9.737 -0.0739 -0.0825  0.0234
28917ION     NA48451  16.000  10.625   4.687 -0.2249  0.1880 -0.5065
28918ION     NA48452   2.469   2.129   1.071  0.0379 -0.1079  0.4718
28919ION     NA48453  10.193  18.216  10.413  0.2174 -0.1630  0.0229
28920ION     NA48454  16.405  15.847   9.344  0.2472  0.1157 -0.0741
28921ION     NA48455  16.831   8.117   9.756  0.1165 -0.0588  0.0240
28922ION     NA48456  14.208  16.324   9.185  0.2204 -0.1111 -0.1930
28923ION     NA48457  16.999   2.440   2.575  0.0887 -0.1050 -0.0150
28924ION     NA48458   5.312  18.437   4.996 -0.0624 -0.2960  0.1223
28925ION     NA48459  14.353  12.115   4.313 -0.0450 -0.0202  0.0188
28926ION     NA48460   4.174   2.887   5.014 -0.0941 -0.0751  0.0423
28927ION     NA48461   4.144  19.340   4.770  0.3291  0.0879  0.1668
28928ION     NA48462  15.589   6.421   0.426  0.2202 -0.2631  0.0807
28929ION     NA48463  17.728  13.786   4.521 -0.1953 -0.1014  0.0584
28930ION     NA48464   7.539  15.351   4.543  0.0435  0.1493 -0.3514
28931ION     NA48465   7.338  12.576   5.000 -0.2029  0.1749 -0.0766
28932ION     NA48466   4.613  14.662   9.700 -0.2500  0.0814  0.2011
28933ION     NA48467   0.255   6.020   2.752  0.5738  0.1317  0.0560
28934ION     NA48468  10.316   4.421   4.041  0.0507  0.2228 -0.0087
28935ION     NA48469   1.344   5.446   5.267  0.0789 -0.0921  0.0967
28936ION     NA48470  11.821   0.017   9.748 -0.0627 -0.0729  0.1456
28937ION     NA48471   1.841  11.382  13.935 -0.0028  0.0046  0.0884
28938ION     NA48472  15.452   2.628   9.642 -0.0437  0.0489 -0.0757
28939ION     NA48473  10.905  18.087   4.332  0.0907  0.0717 -0.1081
28940ION     NA48474  10.171   4.326  13.451 -0.2314 -0.1584  0.1386
28941ION     NA48475   6.438  10.778   9.754 -0.1264  0.0094 -0.1124
28942ION     NA48476   2.443  12.574   9.587 -0.0469  0.1215  0.2847
28943ION     NA48477  13.551   4.166   4.698 -0.0497  0.0647  0.0868
28944ION     NA48478  14.568  11.919  13.170 -0.2665  0.1836 -0.1392
28945ION     NA48479   7.458  10.428   5.285 -0.0281 -0.1779 -0.1091
28946ION     NA48480   6.158   1.381   4.895 -0.1671  0.2461  0.0721
28947ION     NA48481  11.284  17.869   2.088 -0.1489 -0.1630 -0.1706
28948ION     NA48482  14.626  15.081   9.706  0.2757 -0.0169  0.1541
28949ION     NA48483   7.303   6.634   5.017  0.2579  0.3330  0.3481
28950ION     NA48484  13.608   8.076   0.302  0.0833  0.4662  0.2641
28951ION     NA48485   1.836  15.462   0.536 -0.1614  0.1969  0.2817
28952ION     NA48486  13.914   6.640   0.223 -0.1293  0.1015  0.1568
28953ION     NA48487  16.648   0.995   9.655  0.2747  0.1667 -0.1108
28954ION     NA48488   5.781   8.713   4.930 -0.1932 -0.0481  0.0614
28955ION     NA48489  17.310  13.998   9.445  0.1359  0.0082  0.1825
28956ION     NA48490  14.932   8.918   9.784 -0.0822 -0.0810  0.0495
28957ION     NA48491   3.138  13.955   4.344 -0.1476 -0.0671  0.2216
28958ION     NA48492   7.115  13.763   0.992 -0.1092  0.2670 -0.0597
28959ION     NA48493   9.500  11.237  10.195 -0.2481  0.0384  0.1418
28960ION     NA48494  19.427  18.512  10.089 -0.0002  0.0784 -0.2593
28961ION     NA48495   8.962   5.513   4.723  0.0385  0.1623 -0.3123
28962ION     NA48496   5.141   9.486   5.011 -0.0968  0.0931  0.3888
28963ION     NA48497  17.442  19.036  13.645 -0.0591 -0.2992  0.1443
28964ION     NA48498   3.848  13.044  13.508  0.0046  0.3529  0.0203
28965ION     NA48499   6.716  16.966   4.904  0.0933 -0.1318  0.0271
28966ION     NA48500  19.437  11.304   9.367  0.0549  0.0540  0.1344
28967ION     NA48501  14.990   5.763  12.621 -0.0949  0.1533  0.1638
28968ION     NA48502   3.147   9.063   5.097 -0.1887 -0.1806  0.0011
28969ION     NA48503  15.657  15.370  12.632  0.0155 -0.0733 -0.1070
28970ION     NA48504  14.816  13.283   2.375  0.0309  0.2301 -0.4290
28971ION     NA48505  14.312  11.693  12.402  0.1444  0.1002 -0.1503
28972ION     NA48506   9.837   6.432   4.635 -0.0749  0.0188 -0.0154
28973ION     NA48507  17.240   5.594   9.666  0.1722  0.1627  0.0139
28974ION     NA48508   4.205  13.321   9.613 -0.0574  0.1613  0.3860
28975ION     NA48509  10.510  13.392   4.196 -0.0674  0.0441 -0.0844
28976ION     NA48510   6.055  10.574  13.297  0.1577 -0.0168  0.0624
28977ION     NA48511   0.636  10.198   4.881 -0.0584  0.0082 -0.0470
28978ION     NA48512   5.663   2.492   9.600 -0.1199 -0.0953 -0.0444
28979ION     NA48513  13.256  10.560   9.503 -0.1076  0.2131  0.2729
28980ION     NA48514  13.934  19.017   9.696  0.1772 -0.1985  0.0530
28981ION     NA48515  15.675  15.632   2.550  0.1301 -0.0279 -0.0951
28982ION     NA48516  12.195   5.948   0.842  0.1682  0.2678 -0.0559
28983ION     NA48517  13.674  17.691  10.632 -0.1807 -0.0149  0.1716
28984ION     NA48518  17.781   3.160   0.174 -0.1763  0.1046 -0.2327
28985ION     NA48519   1.787  14.532   9.469 -0.1093  0.1799 -0.2546
28986ION     NA48520  15.083  15.773  10.025  0.1348  0.0932  0.0354
28987ION     NA48521   0.968   1.409  14.165  0.2082  0.0049 -0.2696
28988ION     NA48522   2.661   6.138   5.223  0.1771  0.3193  0.3372
28989ION     NA48523   4.395  10.313   9.720 -0.2842 -0.0566  0.0065
28990ION     NA48524  11.973  17.001   9.653 -0.0909 -0.0234  0.0776
28991ION     NA48525   2.412   1.646   9.554 -0.0757  0.0463 -0.1138
28992ION     NA48526  14.217   0.837   4.982  0.0887 -0.0084 -0.2402
28993ION     NA48527  18.761  11.723  13.494  0.1181  0.0281 -0.1668
28994ION     NA48528   8.482  12.852  14.070 -0.0961 -0.3128  0.3034
28995ION     NA48529   8.209   0.213   1.789  0.0168 -0.2149 -0.0971
28996ION     NA48530  18.944   3.154   4.434 -0.0403 -0.2530  0.3162
28997ION     NA48531  10.329  17.349   4.750  0.2872 -0.3446 -0.0921
28998ION     NA48532  16.313  10.046  14.039  0.2051  0.0943 -0.1554
28999ION     NA48533   0.698   5.838   5.186 -0.0101 -0.1842  0.1037
29000ION     NA48534   8.579  14.166  12.758  0.0035  0.0348 -0.0459
29001ION     NA48535  17.392  19.363   4.463 -0.1557  0.2384 -0.1995
29002ION     NA48536  12.840  16.168   4.515  0.2087  0.0268 -0.3006
29003ION     NA48537  12.197   8.044   9.977 -0.1363 -0.1526 -0.0976
29004ION     NA48538  18.029  19.451   4.655 -0.1619 -0.0175 -0.0646
29005ION     NA48539  14.314   6.000   0.222  0.1478  0.1799  0.0335
29006ION     NA48540   0.437  10.542   9.753  0.0240  0.5425  0.1489
29007ION     NA48541   5.547  10.462   3.113 -0.4567  0.0610 -0.3455
29008ION     NA48542  11.405   9.357   2.544  0.1567 -0.0247 -0.3449
29009ION     NA48543   1.668  10.446   4.898  0.0050 -0.0860 -0.1180
29010ION     NA48544   3.829   1.379   4.784 -0.1347 -0.1497  0.0721
29011ION     NA48545   9.324   6.081   9.497  0.0417 -0.1095 -0.0186
29012ION     NA48546   2.133  16.484  12.873 -0.4225  0.0334  0.0171
29013ION     NA48547  19.320   4.166   4.933 -0.0407 -0.0444 -0.2109
29014ION     NA48548   2.951   3.758  10.350 -0.2618 -0.0252  0.0641
29015ION     NA48549  12.343   2.690   1.393  0.0143  0.0429 -0.0685
29016ION     NA48550   5.725   6.384  12.092 -0.2946  0.1156 -0.2576
29017ION     NA48551   5.433   1.306   1.797 -0.1726 -0.1525  0.2057
29018ION     NA48552   3.357  10.873   4.745  0.3200  0.2309  0.1270
29019ION     NA48553   1.833   0.887   4.680  0.2439 -0.2068  0.2833
29020ION     NA48554   6.896   1.040   2.067 -0.0027 -0.3083  0.1599
29021ION     NA48555   8.362   0.485   5.058 -0.1371  0.0571 -0.1569
29022ION     NA48556  11.850  15.859   9.396  0.0083  0.3036  0.2618
29023ION     NA48557  11.819  18.150   4.698 -0.0789  0.3254  0.0820
29024ION     NA48558   0.959   7.704   9.866 -0.0094  0.2084  0.0476
29025ION     NA48559   3.576   4.372   4.796 -0.2785  0.3344 -0.1539
29026ION     NA48560   4.474   0.283  10.012 -0.2694  0.2525  0.2299
29027ION     NA48561  15.946   4.963   9.408  0.1376  0.0720  0.0941
29028ION     NA48562   2.152   3.578   9.830 -0.1867  0.1104  0.2097
29029ION     NA48563   0.718  19.036   4.854 -0.2087 -0.1492 -0.2127
29030ION     NA48564  14.447   7.294   2.961 -0.0982 -0.2252  0.1021
29031ION     NA48565  12.431  10.382   4.461 -0.1481 -0.2628 -0.2529
29032ION     NA48566   0.164  18.859   2.973 -0.0558  0.1206  0.2351
29033ION     NA48567   6.921   4.016   0.553 -0.3445 -0.0984 -0.0623
29034ION     NA48568  15.909  18.336   9.417  0.2488  0.2747  0.4023
29035ION     NA48569   9.030  16.978   9.555 -0.1127  0.0761 -0.0400
29036ION     NA48570   7.714  13.988   1.793  0.0581 -0.0999  0.3111
29037ION     NA48571   6.272   9.578   5.009 -0.2026 -0.0464  0.0939
29038ION     NA48572   2.631  11.854   9.889 -0.0532 -0.1567 -0.0034
29039ION     NA48573   1.054  17.775  13.907 -0.1199  0.2991 -0.5416
29040ION     NA48574  15.013  10.804  11.906  0.1141  0.2067  0.3193
29041ION     NA48575  15.258  18.214   5.075  0.3890 -0.1074 -0.1728
29042ION     NA48576   2.798  18.707   9.689 -0.2831 -0.0759 -0.0347
29043ION     NA48577  13.728  19.318   5.135 -0.1942 -0.0157 -0.0752
29044ION     NA48578  13.213   7.904   9.930  0.1152  0.1166  0.1006
29045ION     NA48579  14.734   4.070  13.411  0.1860  0.2209  0.0875
29046ION     NA48580   8.933  14.846   9.574 -0.0111 -0.1159  0.0667
29047ION     NA48581  18.930   2.112  11.614  0.0169 -0.1886  0.2249
29048ION     NA48582  13.271  14.675   8.987 -0.1437  0.2915 -0.1078
29049ION     NA48583   6.326  19.175   0.675  0.1642  0.0322 -0.2119
29050ION     NA48584   9.728   3.442   1.671  0.0206  0.1421 -0.0429
29051ION     NA48585  16.697   3.462   3.489  0.1052 -0.0842 -0.0892
29052ION     NA48586   7.498   5.443   9.860  0.1887 -0.0636 -0.2666
29053ION     NA48587  10.618   0.044   5.015 -0.1304  0.2469 -0.2049
29054ION     NA48588   3.496  15.794   1.327 -0.4844 -0.0083 -0.1547
29055ION     NA48589  12.723   4.622   4.701 -0.1117 -0.1728 -0.1930
29056ION     NA48590  18.116   5.876   0.294 -0.0716 -0.0781  0.0002
29057ION     NA48591  10.763  13.910   0.345 -0.1636 -0.0515 -0.2503
29058ION     NA48592  19.275   5.868   5.222  0.1821 -0.0262  0.0684
29059ION     NA48593  12.754   1.700   4.877 -0.0179 -0.0099 -0.2087
29060ION     NA48594   8.055   1.451   5.093  0.2006 -0.0481 -0.1150
29061ION     NA48595  17.674  12.148   9.516  0.1993  0.1225  0.3356
29062ION     NA48596  10.547  15.777   9.419 -0.1045  0.2452 -0.1822
29063ION     NA48597   3.961   7.572   9.777 -0.0810  0.2482  0.1707
29064ION     NA48598   5.057   4.748   0.564  0.0346  0.1658  0.1562
29065ION     NA48599   3.378   6.250  12.105  0.0475  0.2051  0.0927
29066ION     NA48600   8.452  15.100   4.649 -0.0787 -0.0494 -0.1641
29067ION     NA48601  12.560   8.315  11.096  0.3086  0.2124  0.2286
29068ION     NA48602  19.376  13.186  10.145 -0.3905 -0.0964  0.0108
29069ION     NA48603   9.644  15.230   9.316 -0.1963  0.2379  0.0462
29070ION     NA48604   5.042   9.079   9.559  0.0986 -0.0732 -0.0598
29071ION     NA48605  19.154  14.341   9.205  0.0413  0.2403  0.3335
29072ION     NA48606   2.458  12.915  13.688  0.0693 -0.2350 -0.0745
29073ION     NA48607   2.519   7.764   9.592 -0.2741 -0.3465 -0.0019
29074ION     NA48608   8.291  19.499   0.007 -0.1126  0.1236  0.1546
29075ION     NA48609  15.137  11.220   1.866  0.2855  0.0476 -0.0432
29076ION     NA48610   5.321  12.149   5.095  0.0714 -0.0043 -0.0266
29077ION     NA48611  17.082  15.384   9.328  0.2407  0.2438  0.3403
29078ION     NA48612  12.154   3.805   4.658 -0.0821  0.1784 -0.3100
29079ION     NA48613  15.346  12.433  13.100  0.0284 -0.0918 -0.1308
29080ION     NA48614   9.100   8.891  11.977  0.1628 -0.0700  0.1531
29081ION     NA48615  15.358  12.794  11.172  0.0137  0.4495 -0.0327
29082ION     NA48616   0.818  11.457  13.682 -0.1132  0.1800 -0.2850
29083ION     NA48617   3.436   8.265   9.562  0.3290  0.1365  0.0652
29084ION     NA48618   8.364   5.396   5.137  0.1403 -0.1519  0.0383
29085ION     NA48619   5.568   2.462   3.642 -0.3232  0.0140 -0.0767
29086ION     NA48620   1.564   3.399  10.075  0.0620 -0.1318 -0.2626
29087ION     NA48621   5.426   3.663   0.055 -0.0594 -0.1561  0.0332
29088ION     NA48622  11.224   5.935   4.759  0.0034  0.3281  0.0972
29089ION     NA48623  10.210   6.585   1.164 -0.1035 -0.1361 -0.0440
29090ION     NA48624   3.578   9.739   1.780  0.4280  0.0260  0.3929
29091ION     NA48625  14.628  14.365  13.213  0.0329  0.3014  0.3185
29092ION     NA48626  16.282   5.960  13.803  0.0838 -0.0411 -0.0954
29093ION     NA48627  17.505  10.036  13.432  0.1564 -0.0664 -0.3534
29094ION     NA48628  18.844   4.629   5.191 -0.0336  0.0184  0.3967
29095ION     NA48629  14.677  16.413   1.373  0.3838 -0.1503 -0.1366
29096ION     NA48630  10.743   8.678   9.554 -0.1307 -0.2254 -0.0307
29097ION     NA48631  11.279  18.904   4.797 -0.4561 -0.2935  0.0730
29098ION     NA48632   1.486   5.962   9.789 -0.2921  0.0189 -0.0451
29099ION     NA48633   4.094   9.269   4.943 -0.2776  0.0666 -0.2101
29100ION     NA48634  14.348  10.148   3.693 -0.4140 -0.0032 -0.2801
29101ION     NA48635   1.296   4.177  10.163  0.1542  0.2048 -0.0228
29102ION     NA48636   8.308   2.429   3.210  0.2397 -0.0557  0.3678
29103ION     NA48637  17.244  13.669  11.226  0.2356 -0.0702 -0.0980
29104ION     NA48638  12.615   2.103   4.629 -0.1881 -0.1237 -0.1391
29105ION     NA48639   0.104   0.763   4.973  0.0219  0.2088 -0.2453
29106ION     NA48640  17.008   3.870  10.494 -0.0918  0.1283 -0.0754
29107ION     NA48641  12.805   1.595   9.958 -0.1051  0.1980  0.1680
29108ION     NA48642   2.127  13.348  13.223 -0.2686  0.0708  0.2768
29109ION     NA48643  18.883  10.618   0.952  0.1603  0.1618  0.2794
29110ION     NA48644  19.468  11.160   4.358  0.0746  0.2457 -0.0529
29111ION     NA48645   0.431   0.295  13.527 -0.0431 -0.1469  0.0691
29112ION     NA48646   3.406   6.728   4.939 -0.1897  0.0217 -0.0794
29113ION     NA48647   2.003   6.361  12.850 -0.2130  0.2709 -0.0136
29114ION     NA48648  11.214  17.240   9.352  0.1603 -0.1748 -0.0327
29115ION     NA48649  10.964  14.251   4.684 -0.1295  0.0096 -0.0810
29116ION     NA48650   4.003  18.274   3.506 -0.0584  0.0796 -0.0537
29117ION     NA48651  11.401   3.468   4.990 -0.0027  0.1290  0.0206
29118ION     NA48652  11.405  14.659   9.424  0.0664  0.2474 -0.1849
29119ION     NA48653   8.229   9.196   9.535  0.1121  0.3333 -0.1920
29120ION     NA48654  14.333   6.151  12.724 -0.1206  0.1238  0.1626
29121ION     NA48655  16.143  17.554   4.756  0.2055 -0.0415  0.2320
29122ION     NA48656   8.039   9.654  11.430 -0.0292  0.0715 -0.2003
29123ION     NA48657  17.275   5.270  11.735  0.0009 -0.3102 -0.3342
29124ION     NA48658   8.777   8.354   9.378  0.2698 -0.1901  0.0950
29125ION     NA48659   2.121   1.018   3.056 -0.0967  0.0332  0.4311
29126ION     NA48660  15.975   2.654   2.160 -0.0731  0.0110  0.3222
29127ION     NA48661  18.041   9.098   3.710 -0.1196  0.1276 -0.1786
29128ION     NA48662  13.049  12.121   3.785  0.1665  0.1895  0.2072
29129ION     NA48663  12.943   7.710   3.421 -0.1763 -0.1301  0.0171
29130ION     NA48664  11.189   2.577   5.048 -0.1980  0.3102 -0.3408
29131ION     NA48665  18.455  11.602  12.058 -0.0246  0.0917 -0.1782
29132ION     NA48666   6.310  15.832  10.028 -0.1001 -0.4183 -0.0777
29133ION     NA48667  17.836   1.859   4.789  0.0598  0.2515 -0.2396
29134ION     NA48668   1.953   6.996   4.185  0.0547  0.1652 -0.2230
29135ION     NA48669  10.721   7.850  10.006 -0.0290 -0.1820  0.0352
29136ION     NA48670   7.788  12.119  13.687  0.2083 -0.0563  0.1360
29137ION     NA48671  18.502  10.883   9.588  0.2446  0.1922  0.2946
29138ION     NA48672  10.884   9.301   4.835 -0.3326  0.1266  0.1054
29139ION     NA48673  18.361   7.593   3.990  0.1268 -0.0282  0.0833
29140ION     NA48674  18.950  14.763  12.331  0.1840  0.2024 -0.2983
29141ION     NA48675  17.423  17.593   4.658  0.2074  0.2510  0.1491
29142ION     NA48676   5.336  13.986   9.559  0.2531  0.0096 -0.0152
29143ION     NA48677   5.487   4.959   9.933  0.3780 -0.2016  0.3302
29144ION     NA48678   5.449   1.027   4.937 -0.0832  0.0156  0.1069
29145ION     NA48679   0.220   8.280   9.615  0.0706 -0.0120  0.4256
29146ION     NA48680  14.553  17.194   9.700  0.0550 -0.0173 -0.0263
29147ION     NA48681   9.658  16.654  13.082 -0.4245  0.2587  0.1755
29148ION     NA48682   4.053  15.036  10.966 -0.0333  0.0335  0.1098
29149ION     NA48683  17.358  15.777   9.305  0.0967  0.0345  0.1797
29150ION     NA48684   9.938  16.785   9.696  0.1129 -0.0737 -0.0566
29151ION     NA48685  14.629  17.957   0.677  0.3490  0.6860  0.2267
29152ION     NA48686   8.819  12.676   1.858 -0.0843 -0.1808 -0.0493
29153ION     NA48687   4.455   9.653   9.688  0.0873 -0.1553  0.0040
29154ION     NA48688   2.724   4.466  12.710 -0.2534 -0.0078  0.0371
29155ION     NA48689   2.178   0.871   9.942  0.1104  0.1862  0.0258
29156ION     NA48690   6.920  15.382  12.105 -0.0825  0.2598  0.0018
29157ION     NA48691  11.223  13.377   9.440 -0.0661  0.0294  0.2675
29158ION     NA48692  11.204  19.371  12.445  0.0216  0.0792 -0.0465
29159ION     NA48693  16.541   5.937   9.891 -0.0117 -0.2442  0.2073
29160ION     NA48694   5.434  17.599   3.800 -0.3250  0.0464  0.0842
29161ION     NA48695  15.341   5.091   3.152  0.2522 -0.1609 -0.0675
29162ION     NA48696   2.373   2.717   9.843 -0.1163 -0.2997  0.2723
29163ION     NA48697   8.517   3.263   4.359 -0.0959  0.0843 -0.1440
29164ION     NA48698  12.548  11.064   2.014  0.0567 -0.1953  0.0710
29165ION     NA48699   8.420  14.268   4.195 -0.3305 -0.3084  0.0835
29166ION     NA48700  10.255  13.292   9.402 -0.2194  0.1468 -0.1237
29167ION     NA48701   1.529  19.508   4.688  0.0222  0.1252 -0.0236
29168ION     NA48702  15.138   9.250  13.037 -0.1497  0.2656  0.0630
29169ION     NA48703  14.732   9.543   9.685  0.0353  0.2900 -0.2077
29170ION     NA48704   9.033  10.046   0.686 -0.4789 -0.4759 -0.2101
29171ION     NA48705   1.459  14.632  12.525  0.1589 -0.0981 -0.0490
29172ION     NA48706  17.002   6.547   4.895  0.1484  0.3174 -0.0017
29173ION     NA48707  12.185   2.841   4.947 -0.1439 -0.0929 -0.1115
29174ION     NA48708   6.065   8.994   9.740  0.0439  0.0423 -0.3210
29175ION     NA48709  14.010  15.780  10.552  0.0189 -0.0050  0.1277
29176ION     NA48710   9.374   2.193   5.060 -0.1343 -0.0031  0.3431
29177ION     NA48711   3.579  17.875   9.726  0.1251  0.2999  0.5482
29178ION     NA48712  16.689  18.725   1.258 -0.0684 -0.0296  0.2469
29179ION     NA48713  17.938   6.670   3.983 -0.0161  0.3719 -0.1877
29180ION     NA48714   5.877  18.728   9.793  0.0786 -0.0396 -0.0168
29181ION     NA48715   5.151  12.902   4.595 -0.0606 -0.1299  0.1335
29182ION     NA48716  10.091  14.907   4.697  0.0829 -0.2741 -0.2694
29183ION     NA48717   8.236   6.844   9.876  0.0635 -0.0317  0.0225
29184ION     NA48718  15.781   2.963   4.766 -0.2064 -0.1196 -0.0484
29185ION     NA48719   4.162   4.889   4.530 -0.1698 -0.3016 -0.1816
29186ION     NA48720  10.927  13.293   1.890  0.1241 -0.0966 -0.4527
29187ION     NA48721   8.354  17.446   9.755  0.3620 -0.0994 -0.2711
29188ION     NA48722  17.356   3.316   9.963  0.4049 -0.0184  0.1712
29189ION     NA48723   4.339  13.835   9.664  0.3154 -0.2530  0.0047
29190ION     NA48724  10.073  15.686  13.146  0.0508  0.4321 -0.1374
29191ION     NA48725   8.859   0.208   9.689  0.3471 -0.0685  0.0665
29192ION     NA48726   4.070   8.260  12.146 -0.3540  0.2515  0.0246
29193ION     NA48727  11.466  14.750   4.363  0.5129 -0.0680  0.1070
29194ION     NA48728  15.902   3.447   4.753  0.1795  0.2690  0.0318
29195ION     NA48729   4.688   3.691   4.998  0.1521  0.0111  0.2446
29196ION     NA48730  11.302   1.066   4.861  0.0489 -0.0543 -0.1383
29197ION     NA48731  14.436  13.475   9.286  0.0826  0.1397 -0.0869
29198ION     NA48732  17.671   5.867   5.012 -0.2553 -0.1957 -0.1831
29199ION     NA48733   5.085  12.016  13.449 -0.0411 -0.1317  0.1061
29200ION     NA48734  16.033   8.807   9.772  0.1741  0.2498 -0.0288
29201ION     NA48735  10.186  10.922  12.424 -0.0274 -0.1489  0.0239
29202ION     NA48736  11.101   8.488  11.766 -0.2193 -0.1332  0.2403
29203ION     NA48737  10.645  11.465   4.889  0.0413  0.1545 -0.1919
29204ION     NA48738  10.577  12.233   0.024  0.0079 -0.1431 -0.1713
29205ION     NA48739  16.390   7.921  10.680  0.1244  0.0772 -0.1647
29206ION     NA48740   9.437   7.071   5.143 -0.1388 -0.0491  0.1290
29207ION     NA48741  18.996   2.432   0.080  0.0165  0.0338  0.2019
29208ION     NA48742   4.010   5.640   9.576  0.2543 -0.1750 -0.0616
29209ION     NA48743  15.980   7.250  14.210  0.0214  0.1118 -0.1474
29210ION     NA48744  16.106  17.471   2.557 -0.1140  0.0000 -0.1871
29211ION     NA48745  11.972  16.508   4.809 -0.2235 -0.1251  0.3702
29212ION     NA48746  18.169   7.594  12.947  0.0009  0.0778  0.2271
29213ION     NA48747   8.069   0.766   0.306 -0.0453  0.0650 -0.1200
29214ION     NA48748  11.704  19.474   2.125  0.0464 -0.2503 -0.1008
29215ION     NA48749   3.778  10.177   4.928  0.1970 -0.1246 -0.1843
29216ION     NA48750   4.205  12.047   9.660 -0.1209 -0.1206 -0.0959
29217ION     NA48751   4.029  18.999  11.466 -0.1533  0.0195  0.5524
29218ION     NA48752  18.975  12.172   1.970 -0.1426  0.0387 -0.0601
29219ION     NA48753  10.588   6.750  14.318  0.0699  0.1616 -0.2043
29220ION     NA48754  14.973   0.478   5.315 -0.3547  0.2604  0.0496
29221ION     NA48755   2.252   9.911   4.736 -0.0870 -0.2217  0.3608
29222ION     NA48756  18.224   3.521  10.262  0.2596 -0.0507  0.3671
29223ION     NA48757   9.588   0.906  11.669 -0.2996 -0.2862 -0.2581
29224ION     NA48758  10.324   2.618   1.482  0.0953  0.1364 -0.0110
29225ION     NA48759   1.344   7.650   4.522  0.2245 -0.0273 -0.1302
29226ION     NA48760  14.542  17.801  12.798 -0.1296 -0.1309  0.1805
29227ION     NA48761  16.730   2.711   9.729  0.4082  0.0713 -0.1447
29228ION     NA48762   6.607   0.212   4.890 -0.0984 -0.1282  0.0089
29229ION     NA48763   8.078  15.148  11.864 -0.0132 -0.3848  0.0491
29230ION     NA48764   0.712   9.222   9.674 -0.0747 -0.1261  0.3337
29231ION     NA48765  17.514   8.872   9.563 -0.1593  0.1629  0.2355
29232ION     NA48766  15.782   3.474   9.939  0.1749  0.0960 -0.1636
29233ION     NA48767  14.523   1.067   9.633 -0.2755 -0.1070 -0.4969
29234ION     NA48768   7.416   1.907   4.881 -0.2019  0.2873  0.1014
29235ION     NA48769  16.168   7.000  10.210  0.1399 -0.2499  0.1172
29236ION     NA48770   6.763   9.821   4.973  0.2909  0.1812 -0.0706
29237ION     NA48771  11.611   3.586   9.820  0.2496  0.3561 -0.0910
29238ION     NA48772   3.064   3.987   9.480  0.0017  0.1607  0.4294
29239ION     NA48773  17.411  12.853   4.533 -0.2449  0.1959  0.0513
29240ION     NA48774  12.112   6.918   1.726 -0.2421 -0.1761  0.0415
29241ION     NA48775  17.304   0.915   3.379 -0.0578  0.1279 -0.0040
29242ION     NA48776   8.471   4.268   9.586  0.1426  0.3226  0.1579
29243ION     NA48777   9.293  14.518   4.651  0.0557 -0.1335 -0.1027
29244ION     NA48778  17.886   9.783   9.362 -0.5360  0.3184  0.1174
29245ION     NA48779   6.225   7.767  11.502 -0.0036  0.4078  0.0031
29246ION     NA48780   9.733   8.852   0.567 -0.0098 -0.0531 -0.0909
29247ION     NA48781   7.162   7.273   9.748 -0.2429  0.0499  0.5602
29248ION     NA48782  13.567   2.523   9.395  0.0019  0.1616 -0.3878
29249ION     NA48783  11.363  18.140   9.580 -0.1869  0.1748  0.1482
29250ION     NA48784  11.228   8.426   4.868  0.0648 -0.3480 -0.1266
29251ION     NA48785   3.421  13.581   9.499 -0.0642 -0.0354  0.0040
29252ION     NA48786  18.024  13.758  10.267  0.0233  0.3345 -0.1907
29253ION     NA48787   2.777   3.428   5.095 -0.0397 -0.1201 -0.0651
29254ION     NA48788  17.872   5.490   5.267  0.0543 -0.2404 -0.2766
29255ION     NA48789  12.077   9.811   1.799 -0.1665 -0.0047  0.0256
29256ION     NA48790  15.850  16.770   3.025 -0.0251  0.0347 -0.0985
29257ION     NA48791  18.856   2.699   2.525 -0.1506 -0.1766 -0.2017
29258ION     NA48792   6.948  13.918  12.655  0.0616  0.2620 -0.1173
29259ION     NA48793   3.313  12.260   9.624 -0.2220 -0.0768  0.0857
29260ION     NA48794   8.498  14.722   9.757 -0.1857  0.2876  0.3837
29261ION     NA48795  14.669   4.418   1.012  0.2337  0.0676 -0.1617
29262ION     NA48796  16.300   0.998   3.425 -0.1324  0.2057 -0.0239
29263ION     NA48797   2.980  10.991  10.362 -0.1165  0.1240 -0.0338
29264ION     NA48798   4.142   7.334   4.866  0.2367 -0.1249 -0.0878
29265ION     NA48799   6.855   3.061  10.350 -0.0868 -0.1968 -0.0460
29266ION     NA48800   5.953   0.547   3.752  0.2937  0.1959 -0.3267
29267ION     NA48801  15.110  16.420  12.264 -0.3095 -0.0862 -0.1943
29268ION     NA48802   4.155  17.779   9.510  0.0517  0.0373  0.0973
29269ION     NA48803   5.474  10.269   0.442 -0.1404 -0.0166 -0.0082
29270ION     NA48804  12.281  10.503   9.623 -0.0960 -0.0296  0.0070
29271ION     NA48805  15.818   2.232   9.696 -0.0639 -0.3250 -0.0110
29272ION     NA48806   9.630   8.562   4.804 -0.1650 -0.4959  0.2454
29273ION     NA48807   1.399  15.363   9.164  0.0311  0.0364  0.0457
29274ION     NA48808  16.070  17.635  13.018 -0.0792  0.2879 -0.1320
29275ION     NA48809   3.136   3.004  13.573  0.1684  0.0057  0.0399
29276ION     NA48810   5.164  16.118   4.754  0.1023 -0.0336  0.1790
29277ION     NA48811   7.056   7.668   1.344  0.0615 -0.0169  0.0324
29278ION     NA48812  11.204  13.381   3.608  0.0009  0.2660  0.0245
29279ION     NA48813  11.438   1.751   3.306 -0.0798  0.3892  0.2226
29280ION     NA48814   7.059  15.263   9.745  0.2635 -0.0474  0.0183
29281ION     NA48815   1.302   8.297   9.855  0.0529 -0.0383  0.0313
29282ION     NA48816   1.248  11.927   9.380  0.1370  0.2566 -0.0862
29283ION     NA48817  11.923   9.094   4.710 -0.0078  0.2496  0.0373
29284ION     NA48818   5.855  13.018   9.732  0.1222  0.1624  0.0986
29285ION     NA48819  15.502  18.216   4.175 -0.0552 -0.2545 -0.0201
29286ION     NA48820  12.576   5.473   4.783 -0.0393 -0.4116 -0.0279
29287ION     NA48821   9.539  17.704   9.804 -0.1184  0.1285  0.0114
29288ION     NA48822   4.298  16.148   4.877  0.1813  0.2962 -0.0434
29289ION     NA48823   9.061   2.230  12.229  0.0845 -0.2047 -0.0633
29290ION     NA48824   4.952  11.519   0.874 -0.1943 -0.1640 -0.3120
29291ION     NA48825   2.443  19.119   1.697  0.1338  0.3575 -0.1625
29292ION     NA48826  15.000  15.244   4.641 -0.0848 -0.1000  0.1717
29293ION     NA48827   5.713  13.769  11.958 -0.1235  0.0451  0.1248
29294ION     NA48828   6.662   2.359   4.776  0.0979  0.0731  0.2249
29295ION     NA48829   1.043  15.707   2.688 -0.2392 -0.2256 -0.2434
29296ION     NA48830  11.910  13.852   9.133 -0.0167  0.0070  0.2175
29297ION     NA48831   3.386   9.815   4.871  0.0681 -0.0005  0.2995
29298ION     NA48832  17.190   2.274   4.525 -0.0652  0.0404  0.1070
29299ION     NA48833   0.378   4.637  10.296 -0.0965 -0.1272  0.0168
29300ION     NA48834  12.603  16.186   1.261 -0.3507 -0.4919 -0.0262
29301ION     NA48835   7.601  14.563   4.515  0.1909 -0.0843 -0.3191
29302ION     NA48836   7.475   2.521   9.743  0.0612 -0.0723 -0.1461
29303ION     NA48837  16.762  14.942   9.406 -0.1585 -0.2216  0.2257
29304ION     NA48838  11.612   5.130   4.874  0.0857 -0.0547  0.1747
29305ION     NA48839  16.075  17.761  10.358 -0.2304  0.4083  0.0899
29306ION     NA48840  13.549   8.528  13.708 -0.1228 -0.0929 -0.4715
29307ION     NA48841  17.973   7.365   9.621  0.1038  0.0450  0.0237
29308ION     NA48842  17.213  11.358   9.215  0.2996 -0.1482  0.3580
29309ION     NA48843  13.206   8.249   5.202  0.1749 -0.3559 -0.1668
29310ION     NA48844   1.232  14.523   9.249 -0.0206  0.0471  0.1955
29311ION     NA48845   5.726  13.562   4.855  0.1164  0.0387 -0.0189
29312ION     NA48846  10.901   4.160   2.605 -0.0245 -0.0753 -0.0496
29313ION     NA48847   6.298   1.891   9.523 -0.0779  0.2167 -0.0206
29314ION     NA48848   8.231  11.077   1.077  0.2566 -0.2160  0.0876
29315ION     NA48849   0.676  10.047   9.622  0.0750 -0.0654  0.1540
29316ION     NA48850   1.421   0.490   9.963  0.0934  0.0751  0.0078
29317ION     NA48851  11.816   1.622  10.096 -0.3478 -0.0669 -0.1565
29318ION     NA48852   7.039   3.574   9.478 -0.2050 -0.0916 -0.0290
29319ION     NA48853  15.089  19.226   4.931 -0.1535  0.1381  0.0207
29320ION     NA48854   4.929  16.194   2.601 -0.0431 -0.2167  0.0956
29321ION     NA48855   2.550   4.303   4.713  0.1335  0.0244 -0.1086
29322ION     NA48856   7.357  19.352   1.565 -0.1088  0.2448 -0.2841
29323ION     NA48857  10.302  18.091   3.145  0.0654 -0.0581  0.1398
29324ION     NA48858  10.526  10.992   5.118 -0.0458  0.1805  0.0137
29325ION     NA48859  12.005  11.441   9.336 -0.0600 -0.1903  0.1310
29326ION     NA48860   0.511   1.936   9.868 -0.2405  0.3268 -0.0374
29327ION     NA48861   3.436  16.673   9.512 -0.0594 -0.1345 -0.4047
29328ION     NA48862   0.689  16.880   0.183 -0.0858  0.3293 -0.2220
29329ION     NA48863   4.217   3.832  13.411 -0.0697 -0.1443 -0.1642
29330ION     NA48864  16.258   1.108   4.731 -0.0092 -0.1776 -0.0733
29331ION     NA48865   7.343  13.308   0.346 -0.3206  0.0467  0.0510
29332ION     NA48866  11.143  11.041   9.702 -0.0162 -0.0287 -0.0849
29333ION     NA48867  10.050  11.765   4.822 -0.0387  0.0769 -0.0069
29334ION     NA48868  14.078  18.766   0.505 -0.0618  0.0818 -0.0605
29335ION     NA48869  11.785   0.703  13.927  0.0335 -0.2159  0.0163
29336ION     NA48870  11.631  12.515   9.393 -0.0806  0.2474 -0.2416
29337ION     NA48871  18.617  12.585   0.329 -0.2173  0.0025 -0.0730
29338ION     NA48872  11.296   9.253  10.239  0.2873  0.2651 -0.0541
29339ION     NA48873  13.304  12.608   4.589  0.0888  0.0798 -0.1635
29340ION     NA48874   6.900   3.198   0.971 -0.0782  0.3735 -0.1284
29341ION     NA48875  14.084   7.850   9.916 -0.0907 -0.3444  0.0615
29342ION     NA48876  10.306  17.987   9.602  0.1869  0.1348 -0.0124
29343ION     NA48877  16.543  18.336   3.894  0.3549  0.0013  0.1924
29344ION     NA48878  15.125   6.189   9.764 -0.0009  0.1983  0.0825
29345ION     NA48879   5.920   4.846   9.534 -0.0611  0.1312  0.1455
29346ION     NA48880  18.934   6.137  10.659 -0.0234  0.1472 -0.2405
29347ION     NA48881   9.922  14.476  12.740  0.0042  0.2895 -0.1496
29348ION     NA48882  13.642  12.111  14.159  0.1499  0.2625  0.1379
29349ION     NA48883  11.309  17.126  11.086 -0.1416 -0.0073  0.1217
29350ION     NA48884   5.802   9.647  14.240 -0.3559  0.1520  0.1179
29351ION     NA48885   9.585   9.575  10.021  0.2843 -0.1271 -0.3155
29352ION     NA48886   7.497   4.751   4.942  0.0941 -0.0015  0.1554
29353ION     NA48887  13.893   8.533   9.657 -0.1234  0.4213  0.3107
29354ION     NA48888   4.242   1.011  11.690  0.1286 -0.0427 -0.0348
29355ION     NA48889  11.235  16.568   0.844 -0.1371 -0.0111  0.0391
29356ION     NA48890   2.593  16.722   4.836  0.1399  0.0857  0.2848
29357ION     NA48891  10.747  15.700   4.813 -0.0166  0.2729 -0.0549
29358ION     NA48892   2.624  14.319   3.412 -0.0441 -0.0425  0.1439
29359ION     NA48893  11.310  14.833  13.275 -0.1131 -0.2193  0.0568
29360ION     NA48894   7.649   6.216  11.871  0.5789  0.2694  0.1551
29361ION     NA48895  12.921   2.532   1.938  0.2468 -0.1062  0.0857
29362ION     NA48896  13.297   5.618   9.935  0.2439  0.1122  0.1224
29363ION     NA48897  16.549   5.031   0.873 -0.0644 -0.0280 -0.1615
29364ION     NA48898  12.723   4.847   9.791  0.3054 -0.0036  0.0190
29365ION     NA48899  13.522   6.837   0.815  0.0796 -0.0808  0.0784
29366ION     NA48900  14.866   7.367  11.489 -0.3936  0.0930 -0.1025
29367ION     NA48901   1.897  15.816  11.857  0.2280 -0.2280 -0.0968
29368ION     NA48902   4.331   4.044   3.686  0.0483  0.1176 -0.1139
29369ION     NA48903   3.207  19.363   9.926  0.0413  0.2719 -0.0891
29370ION     NA48904  10.017   5.724   2.705  0.0069  0.1196 -0.0612
29371ION     NA48905  14.426   3.745   4.926  0.1718 -0.0427 -0.0925
29372ION     NA48906  12.515   0.026  11.986  0.1036 -0.3658  0.4493
29373ION     NA48907   2.395   7.005   5.065 -0.1419 -0.0550 -0.2018
29374ION     NA48908  12.589   8.181   4.332 -0.2565  0.0469  0.1334
29375ION     NA48909   9.960  13.982   4.548  0.0103  0.0595  0.1101
29376ION     NA48910   7.074  14.349   9.412 -0.1592 -0.1588  0.2181
29377ION     NA48911  14.805   9.992   4.582 -0.0409 -0.1542  0.2398
29378ION     NA48912  11.484  17.729   4.772  0.2076 -0.0290  0.2972
29379ION     NA48913  17.760  13.202   2.980  0.0111 -0.0200 -0.1273
29380ION     NA48914   2.578  13.894  11.322  0.1923  0.1056  0.0130
29381ION     NA48915   9.073  18.859   5.172 -0.0424  0.0363  0.1113
29382ION     NA48916   2.628  18.715   4.897  0.1840  0.0433 -0.0560
29383ION     NA48917   8.227   3.964  13.836 -0.0618 -0.1688 -0.2298
29384ION     NA48918  10.121  18.887   9.687  0.4438 -0.0941 -0.0066
29385ION     NA48919   9.021  12.970   9.274  0.0503 -0.2325  0.1337
29386ION     NA48920  10.392   5.486  11.109  0.1696 -0.1288 -0.2537
29387ION     NA48921   4.663   2.237  12.216  0.0901 -0.4094  0.1171
29388ION     NA48922  15.925   0.253   5.035  0.1134  0.1798 -0.1722
29389ION     NA48923  19.369  17.540  13.404  0.0068 -0.0250 -0.2827
29390ION     NA48924   2.058  19.433  12.506 -0.1872  0.0019 -0.2182
29391ION     NA48925  17.812   1.436   9.805  0.0788  0.1368  0.0201
29392ION     NA48926  12.880   8.769   9.909  0.2715 -0.0454 -0.3296
29393ION     NA48927  11.959   9.357   9.507  0.2219 -0.2983 -0.4706
29394ION     NA48928   1.314   2.473   9.953 -0.1320  0.1721 -0.2882
29395ION     NA48929  13.438  13.366   0.558  0.0981  0.1753  0.3937
29396ION     NA48930  10.720  15.920   2.719  0.1572  0.2382 -0.1585
29397ION     NA48931   9.152   1.919  13.482  0.2492 -0.3677  0.2022
29398ION     NA48932  12.752  17.021   9.565  0.1718  0.0213 -0.0315
29399ION     NA48933  16.736  11.826   2.262 -0.2037  0.0270  0.1716
29400ION     NA48934   9.359   0.950   5.211 -0.1561  0.2041 -0.0794
29401ION     NA48935   7.962   7.751   9.781  0.3284 -0.1589 -0.0479
29402ION     NA48936   7.306   1.740   9.674  0.0335 -0.0392 -0.2813
29403ION     NA48937   3.204   5.173   9.591  0.0536 -0.1916  0.0277
29404ION     NA48938   7.143  12.288   9.590  0.0459 -0.1869 -0.0591
29405ION     NA48939  14.646   4.965   4.894 -0.1568  0.1318  0.0318
29406ION     NA48940   5.057   1.307   4.618  0.0509  0.0229  0.0513
29407ION     NA48941   4.135   1.531   9.771 -0.1768 -0.3121  0.1251
29408ION     NA48942   2.014  12.929   4.474 -0.1791  0.0564  0.1877
29409ION     NA48943  15.653  11.004   4.596  0.1005 -0.1458 -0.0355
29410ION     NA48944   2.469   8.203   5.030 -0.0165 -0.2314  0.1860
29411ION     NA48945  14.830  14.435   4.642 -0.2207  0.1295 -0.1608
29412ION     NA48946  15.095   7.420   0.492 -0.1008  0.0080  0.4366
29413ION     NA48947  16.689  12.412   9.550  0.0065  0.2264 -0.5576
29414ION     NA48948   6.857  10.125   9.972 -0.0801  0.0679 -0.1170
29415ION     NA48949  10.480  15.113  14.136  0.1050 -0.0828 -0.3863
29416ION     NA48950   8.352  11.255   5.246  0.1574 -0.0850  0.4477
29417ION     NA48951   0.355  15.048   9.225  0.2481  0.3107 -0.0641
29418ION     NA48952  19.433   2.354   4.686  0.0301  0.0377 -0.0046
29419ION     NA48953   3.516  12.022   4.670 -0.0779 -0.0900  0.0978
29420ION     NA48954  17.264   6.576   9.611 -0.2950 -0.0627  0.1248
29421ION     NA48955   1.287  18.257  13.074  0.1367 -0.1512  0.1984
29422ION     NA48956  12.728   7.965   5.176 -0.1064 -0.2073 -0.0616
29423ION     NA48957   2.444  16.036   4.774 -0.0718 -0.4059  0.2560
29424ION     NA48958   9.789   1.613   4.078 -0.1637 -0.2711  0.5571
29425ION     NA48959  16.808  18.650   2.161 -0.3288 -0.0527  0.1515
29426ION     NA48960   9.611  10.005   5.039 -0.0628  0.0584 -0.1970
29427ION     NA48961   1.260  13.635   4.415 -0.0479 -0.0527  0.4695
29428ION     NA48962  15.380   3.238  12.817  0.4171  0.0120  0.3764
29429ION     NA48963   5.770  11.084  14.121 -0.1624  0.0341 -0.1064
29430ION     NA48964  17.112   9.921   4.661 -0.0594 -0.0737 -0.0016
29431ION     NA48965  13.368   2.067   3.422  0.0972 -0.0470  0.0339
29432ION     NA48966  11.426  15.657  10.805 -0.1527 -0.0928  0.0131
29433ION     NA48967  17.663   4.144  12.670  0.1042 -0.2944  0.0316
29434ION     NA48968   9.234   5.746   4.372 -0.0643  0.0260 -0.1670
29435ION     NA48969   6.818  12.901  12.933 -0.3266  0.4911 -0.2055
29436ION     NA48970  11.377  14.497  12.385 -0.1435 -0.0244 -0.0330
29437ION     NA48971   4.907  15.282   9.790 -0.0428 -0.2097  0.1310
29438ION     NA48972  17.070   4.109  14.002 -0.2140 -0.0784 -0.1908
29439ION     NA48973  16.985   3.353  11.792  0.0965 -0.0002 -0.3988
29440ION     NA48974   6.333  18.007   9.910  0.2707 -0.0452  0.0991
29441ION     NA48975  15.232  12.402   2.591  0.0654  0.3450  0.3198
29442ION     NA48976   2.472   4.555   9.730 -0.1395  0.0046  0.1081
29443ION     NA48977  19.416   0.959  11.100  0.1225  0.0119  0.3704
29444ION     NA48978   8.469   1.918   0.626 -0.1451  0.0868 -0.2144
29445ION     NA48979  14.406   3.352   4.016  0.2345 -0.3380 -0.1260
29446ION     NA48980  13.456  14.060  10.069 -0.5165 -0.1474  0.1833
29447ION     NA48981   1.096  16.980   5.049  0.0020  0.1447  0.0584
29448ION     NA48982  18.708  12.958   2.033  0.1842 -0.2363  0.0429
29449ION     NA48983  19.430  11.375   1.053  0.3431 -0.0619  0.1901
29450ION     NA48984   1.389   1.843   0.213  0.2379  0.0376 -0.1772
29451ION     NA48985   6.691   3.460  14.176 -0.3918  0.1398  0.3124
29452ION     NA48986  14.368   6.720   9.977 -0.0056 -0.1524 -0.1538
29453ION     NA48987  14.507   1.869   4.913  0.2341  0.0904 -0.0682
29454ION     NA48988   3.006   3.117   0.261  0.0906 -0.1110  0.6008
29455ION     NA48989  11.394  16.337   9.367  0.3072  0.0336 -0.0430
29456ION     NA48990  16.754   6.248   1.587  0.2677  0.0673 -0.2114
29457ION     NA48991  11.671   2.757  13.547  0.1719 -0.3036  0.1337
29458ION     NA48992   1.731  11.316   4.716 -0.3122  0.2780 -0.0465
29459ION     NA48993  18.430   2.584  10.036  0.1316 -0.0536 -0.1864
29460ION     NA48994   8.280  19.080   9.785 -0.2889  0.2682 -0.2502
29461ION     NA48995  12.239   6.439  11.728 -0.1693 -0.1650  0.2714
29462ION     NA48996  18.145  16.705   9.176  0.3102  0.1720  0.0874
29463ION     NA48997  18.920  18.645   9.698  0.1974 -0.0330 -0.1362
29464ION     NA48998   8.371   3.176   4.832  0.0452  0.0045  0.0733
29465ION     NA48999  16.316  15.555  13.285  0.1284 -0.0118 -0.0072
29466ION     NA49000  15.262   0.681   9.381 -0.1901 -0.1100  0.1197
29467ION     NA49001  18.993  11.640  11.351  0.0677  0.1434  0.2053
29468ION     NA49002   4.287  11.188   1.945 -0.0747 -0.1888 -0.1758
29469ION     NA49003   8.393   6.553   5.035  0.1669 -0.0680 -0.0457
29470ION     NA49004  18.485   4.294   1.862  0.2533 -0.6529 -0.2519
29471ION     NA49005   9.854   4.483   0.085 -0.2132  0.2528  0.1367
29472ION     NA49006  19.107   2.661   0.912  0.0058  0.0802  0.1197
29473ION     NA49007   2.726  17.907   5.011  0.0716  0.0633  0.1408
29474ION     NA49008  13.529   4.781   0.445  0.1774  0.1199 -0.2036
29475ION     NA49009   0.289  13.835   1.365  0.0026 -0.2188 -0.0387
29476ION     NA49010   8.928   4.494   1.146  0.0842  0.0245 -0.2362
29477ION     NA49011   8.894   3.938   9.505 -0.6766 -0.0147 -0.2925
29478ION     NA49012  16.026   4.243  10.438  0.1124 -0.3155  0.6681
29479ION     NA49013  13.688  12.212   9.333  0.0875  0.2982 -0.3677
29480ION     NA49014   5.895  10.857   3.393 -0.2753 -0.1152  0.2458
29481ION     NA49015   8.028  13.799   3.102  0.2522  0.0614 -0.4028
29482ION     NA49016  17.482  15.617   4.587 -0.0950  0.0540  0.1134
29483ION     NA49017  13.846   1.025   2.668  0.0839 -0.2951  0.0706
29484ION     NA49018  10.538   3.757   4.534 -0.1363  0.3405  0.0365
29485ION     NA49019  12.150   2.296   9.792  0.1367 -0.1357 -0.2613
29486ION     NA49020  10.860   7.351   9.441 -0.0109  0.4051  0.6698
29487ION     NA49021   6.405   1.057   9.943 -0.0945 -0.1618 -0.0868
29488ION     NA49022   9.677  12.526   9.273  0.0854 -0.3678  0.1053
29489ION     NA49023  14.176   8.293   4.977 -0.0435 -0.0544  0.0725
29490ION     NA49024   0.312  17.377   2.561 -0.3391 -0.1967  0.1332
29491ION     NA49025   3.340  18.662   4.714 -0.0610 -0.1021 -0.0613
29492ION     NA49026   4.748   5.695   4.726 -0.3709  0.1007 -0.1407
29493ION     NA49027   2.893   2.095   3.841  0.0229  0.0681 -0.0409
29494ION     NA49028  12.729   9.626   9.655 -0.0863 -0.0095 -0.1210
29495ION     NA49029   9.920  14.743  10.091 -0.0619 -0.1313  0.0697
29496ION     NA49030   9.741  17.165  12.302 -0.1241  0.0196  0.0966
29497ION     NA49031   1.431   5.774   4.455 -0.0898  0.3614 -0.0445
29498ION     NA49032   5.308  17.754   4.973 -0.3255 -0.2594 -0.0873
29499ION     NA49033  10.728   5.858  10.216 -0.0847 -0.0696  0.0229
29500ION     NA49034   3.672   4.145  12.292  0.0039  0.1810 -0.2108
29501ION     NA49035  12.735  14.146  11.581  0.2699  0.1633 -0.2282
29502ION     NA49036   4.683  11.098   9.969 -0.0547  0.3293 -0.3280
29503ION     NA49037   7.994   1.364   9.663 -0.0874  0.0628 -0.0627
29504ION     NA49038   1.694   2.705   4.941 -0.0581 -0.2788  0.0059
29505ION     NA49039   4.215  18.653   9.900  0.2944 -0.2465 -0.0933
29506ION     NA49040  10.288   2.684   9.910 -0.0748  0.0428  0.2670
29507ION     NA49041  17.586   1.393   1.952  0.0930  0.0934 -0.0969
29508ION     NA49042  11.700   4.285   4.739 -0.0546 -0.0217  0.1407
29509ION     NA49043  12.959  11.745   4.713 -0.1233  0.0699 -0.0683
29510ION     NA49044   6.711  14.873   4.645 -0.1794  0.0613  0.2748
29511ION     NA49045   8.955  11.227  12.571  0.0752  0.0687 -0.0936
29512ION     NA49046   1.012  10.994   1.610  0.2008 -0.3472  0.0765
29513ION     NA49047   5.397  10.357   1.436 -0.1695 -0.0090 -0.0982
29514ION     NA49048  15.155   0.522   3.489 -0.0044 -0.0974  0.1350
29515ION     NA49049  11.047  12.919   9.934 -0.0132  0.1287 -0.0481
29516ION     NA49050  15.622  14.435   4.357  0.1995  0.1178 -0.1100
29517ION     NA49051   4.355   9.342  10.162  0.2916  0.3066 -0.0192
29518ION     NA49052  14.920   3.565  13.653 -0.1867 -0.0197  0.2747
29519ION     NA49053   9.917   7.844   9.456 -0.1634  0.1918  0.1534
29520ION     NA49054   2.998   0.897  14.091 -0.0253 -0.0211 -0.1467
29521ION     NA49055   5.725  14.833  12.161  0.0382  0.0305  0.1376
29522ION     NA49056  18.445  18.919  12.390 -0.0694 -0.1795 -0.1271
29523ION     NA49057  12.743   3.414   1.915  0.3630  0.0186 -0.0658
29524ION     NA49058  18.807   3.748   0.240 -0.2845 -0.1169 -0.2081
29525ION     NA49059   0.858  17.652   9.915 -0.1722  0.0074 -0.1626
29526ION     NA49060   7.661  11.616   4.919  0.1682  0.0444 -0.1757
29527ION     NA49061   5.272   4.552   4.762  0.3447 -0.0073  0.4533
29528ION     NA49062  10.065   8.602  14.339  0.2127 -0.1358  0.2299
29529ION     NA49063   8.488   5.614   0.551  0.1754 -0.0879  0.0164
29530ION     NA49064   4.254  16.452   0.155  0.2028  0.1490  0.5049
29531ION     NA49065   2.939   9.316   0.736  0.0205  0.0574  0.0961
29532ION     NA49066   3.859   6.686   9.630 -0.0536  0.1536 -0.0835
29533ION     NA49067  12.070   4.885   9.683 -0.2853 -0.0604 -0.0652
29534ION     NA49068  14.796   8.812  13.763 -0.0136 -0.0261 -0.0224
29535ION     NA49069  15.359   1.090   4.118  0.1328 -0.1907 -0.0481
29536ION     NA49070  10.207   0.261   4.937  0.1348 -0.1442  0.0212
29537ION     NA49071   5.154  14.413   9.871 -0.1844 -0.1884 -0.0654
29538ION     NA49072   2.582   9.452   9.510  0.4230  0.1138 -0.2012
29539ION     NA49073   5.758  11.331  12.824  0.0772  0.2339 -0.1411
29540ION     NA49074  13.957  19.176  11.784  0.5205 -0.4406  0.0312
29541ION     NA49075   3.946  17.044   5.094  0.0311  0.2561 -0.1705
29542ION     NA49076  14.066   6.323  10.003  0.1023 -0.1648  0.0281
29543ION     NA49077  15.824  13.753   0.167 -0.0852  0.1696 -0.1475
29544ION     NA49078  14.145   7.104   5.254  0.4881 -0.0005  0.0399
29545ION     NA49079   8.693   1.977   9.432 -0.2561 -0.0247  0.2106
29546ION     NA49080   9.058   5.295   9.774  0.1213  0.0994 -0.0881
29547ION     NA49081  10.468   5.065   1.097 -0.1937 -0.1437 -0.0433
29548ION     NA49082  11.581  16.927   2.172 -0.0489  0.2186  0.0353
29549ION     NA49083   2.125  11.100   9.730 -0.1673  0.1018  0.0477
29550ION     NA49084  14.235   7.797  11.723 -0.0348 -0.0264 -0.2905
29551ION     NA49085  19.303   7.402  11.153  0.0484  0.1835  0.2241
29552ION     NA49086   0.613  12.984   4.398 -0.1900  0.0851 -0.1267
29553ION     NA49087  15.326  13.143   9.380 -0.1678  0.0155  0.1855
29554ION     NA49088  11.665  11.777   1.536 -0.0129  0.1716 -0.4157
29555ION     NA49089  16.738   8.670   9.842  0.0518  0.0475  0.4391
29556ION     NA49090   9.821  11.653  13.537 -0.1509  0.1087 -0.0821
29557ION     NA49091  18.430  17.476  11.209  0.0035  0.0997 -0.0011
29558ION     NA49092   2.807  11.544   4.819  0.0872  0.2842  0.1489
29559ION     NA49093  12.370   9.584   4.866 -0.0103  0.0062 -0.2568
29560ION     NA49094  16.063   1.371   9.478  0.0408 -0.3865 -0.0898
29561ION     NA49095  11.102  13.867   4.383  0.0184 -0.1513 -0.2331
29562ION     NA49096   2.395   5.702   9.946  0.1327 -0.0857 -0.1263
29563ION     NA49097  19.506   3.664  10.051 -0.0222 -0.1010 -0.0538
29564ION     NA49098   6.878   8.969  11.836 -0.0143  0.2369 -0.0436
29565ION     NA49099   5.928  18.048   0.347  0.0329  0.1906 -0.3259
29566ION     NA49100   1.401  10.638   9.484 -0.0919  0.0069  0.1519
29567ION     NA49101   4.637  15.314   4.693 -0.1856  0.1271  0.0611
29568ION     NA49102  16.252  16.750   9.313 -0.0377  0.1171 -0.0616
29569ION     NA49103   2.475  11.385  10.103  0.4528  0.1092 -0.0329
29570ION     NA49104  12.787   0.262  14.301 -0.1722  0.0630  0.0714
29571ION     NA49105   7.015   4.266   1.711 -0.0867 -0.1598 -0.2869
29572ION     NA49106  11.511   6.118   9.716  0.0559 -0.0193  0.0432
29573ION     NA49107  12.860   9.048   4.907 -0.0647 -0.1145  0.1016
29574ION     NA49108  11.930  18.674   9.613  0.2578 -0.1047  0.2040
29575ION     NA49109  15.195   7.957   9.930 -0.0041 -0.1365 -0.1624
29576ION     NA49110  12.433  16.038   2.240  0.0594 -0.3045 -0.0058
29577ION     NA49111  14.965  11.099   3.353 -0.0013 -0.0810  0.1681
29578ION     NA49112  12.400  10.850  13.019  0.1165  0.0535 -0.2200
29579ION     NA49113   6.890   2.426   0.569 -0.1218  0.0527  0.1893
29580ION     NA49114   1.066  14.573   1.799 -0.0559  0.3808 -0.0988
29581ION     NA49115   6.850   6.232   9.578 -0.3902  0.1881  0.1193
29582ION     NA49116   5.631  15.277   9.772  0.2851  0.0074  0.1137
29583ION     NA49117  12.701  13.785   4.166 -0.0510  0.0788 -0.0433
29584ION     NA49118   7.147   9.160   9.668  0.2408 -0.0746  0.0368
29585ION     NA49119   9.886   7.812   2.697 -0.0191 -0.0749 -0.1823
29586ION     NA49120   8.442  18.345  10.202 -0.3311  0.0160  0.4254
29587ION     NA49121   0.289   6.485  14.202  0.1853  0.3496  0.1996
29588ION     NA49122  16.929  12.637   4.253  0.0345 -0.1537 -0.0325
29589ION     NA49123   8.422  12.239   0.447  0.0112 -0.0299 -0.2920
29590ION     NA49124  19.360   5.724   9.808 -0.2033 -0.1053  0.1300
29591ION     NA49125   2.744  17.322   0.097  0.0565 -0.0136  0.1717
29592ION     NA49126   4.226  11.564  10.589  0.2370 -0.0343  0.0119
29593ION     NA49127   4.199  11.149   4.383  0.0523  0.0344  0.0458
29594ION     NA49128  16.724   6.895  10.112 -0.0307 -0.0691  0.1501
29595ION     NA49129   6.486   2.385  13.991 -0.3508  0.0422 -0.0464
29596ION     NA49130   4.444  17.175  10.957 -0.0305  0.3201  0.2614
29597ION     NA49131  16.180  14.943   9.410  0.2714 -0.1765  0.0487
29598ION     NA49132  17.337   5.259  10.621  0.1794  0.0102  0.0248
29599ION     NA49133  10.062   6.926   9.469  0.0178  0.1566  0.0215
29600ION     NA49134   6.045  18.384   1.469 -0.1067  0.0432  0.2114
29601ION     NA49135  17.420  13.057   9.621 -0.0687  0.2353 -0.0026
29602ION     NA49136  17.070  13.391   1.317  0.0913 -0.1194 -0.0804
29603ION     NA49137   9.387   5.570  14.323  0.3585 -0.3334 -0.1863
29604ION     NA49138   6.025  14.428   4.043 -0.0508 -0.1322 -0.2375
29605ION     NA49139  15.069  16.419   9.350 -0.0692  0.1886 -0.0298
29606ION     NA49140  15.466  11.913   1.286  0.0965  0.1584 -0.1084
29607ION     NA49141  16.576  10.478   9.104 -0.1020  0.0096 -0.0106
29608ION     NA49142  18.958   9.635   4.673 -0.0047 -0.1613  0.0558
29609ION     NA49143  18.478  19.449   2.624  0.1710  0.2999 -0.1405
29610ION     NA49144   5.841  14.212   1.325 -0.2812  0.0469  0.1374
29611ION     NA49145  10.968   4.429   4.738 -0.1851 -0.0325  0.1809
29612ION     NA49146  13.862  14.868  14.275 -0.3609  0.1816 -0.0929
29613ION     NA49147   9.448   6.979  13.600  0.1198 -0.1368  0.1052
29614ION     NA49148  15.015   3.092   4.481  0.1162 -0.1658 -0.0992
29615ION     NA49149  18.265   8.787   0.692 -0.1664 -0.1633  0.2908
29616ION     NA49150   5.529   7.172  13.869  0.2941 -0.0999  0.0811
29617ION     NA49151  11.305  16.725  13.940 -0.1443 -0.2683 -0.2966
29618ION     NA49152   6.001  15.391   0.037  0.0477 -0.0535 -0.0105
29619ION     NA49153  10.333   7.975   4.691 -0.3154  0.2660  0.1751
29620ION     NA49154   2.376   1.369   1.372 -0.0526 -0.0105 -0.0314
29621ION     NA49155   5.531  11.261   5.055  0.1706 -0.1892  0.1159
29622ION     NA49156   4.501  12.309   4.777  0.2217  0.2706 -0.1841
29623ION     NA49157  17.383   0.724  12.656  0.1133 -0.0330  0.0220
29624ION     NA49158   2.788   1.736  11.946  0.1264  0.0389 -0.0814
29625ION     NA49159   0.567   9.765   4.156 -0.1443  0.1905  0.0273
29626ION     NA49160  19.308   3.775   2.965 -0.1836 -0.0424  0.1811
29627ION     NA49161  14.486  10.949   4.548 -0.0112 -0.0231 -0.0148
29628ION     NA49162   3.379  12.991   4.553  0.1363 -0.3045  0.1910
29629ION     NA49163  11.888  11.308   4.750 -0.1627 -0.2069 -0.1189
29630ION     NA49164  15.944   7.635   9.733 -0.2628  0.1819  0.1725
29631ION     NA49165  13.655  15.414   4.534 -0.1164  0.3880 -0.0839
29632ION     NA49166   5.232   3.478   2.044  0.0350  0.1527  0.1073
29633ION     NA49167   2.346  10.580   9.853  0.5381 -0.0403  0.0103
29634ION     NA49168  16.195  13.255   4.570 -0.1331 -0.2176  0.1539
29635ION     NA49169  16.721   7.098   4.545  0.2873 -0.0777 -0.0991
29636ION     NA49170  16.137  13.078  12.410  0.0720 -0.1761 -0.0331
29637ION     NA49171  13.611   7.754   5.220 -0.2436 -0.2849  0.1251
29638ION     NA49172  14.875   2.005   9.380  0.2357  0.0901 -0.1124
29639ION     NA49173   3.957   3.625  11.050  0.0245 -0.1407  0.2448
29640ION     NA49174   1.360  15.318   4.610  0.2111  0.0601  0.0279
29641ION     NA49175  15.446   5.458   5.127  0.1664 -0.2317  0.2109
29642ION     NA49176  15.464  15.873   4.711  0.1543  0.3315 -0.0893
29643ION     NA49177  19.377  19.480   3.068  0.0062  0.0996  0.0019
29644ION     NA49178  13.768   9.442  13.086  0.2601  0.1101  0.0397
29645ION     NA49179  14.422   9.979   0.559  0.2080 -0.1684 -0.1474
29646ION     NA49180   1.657   9.701   9.483  0.0504 -0.2224 -0.2098
29647ION     NA49181  15.368   7.069   9.654 -0.1673 -0.0169 -0.0877
29648ION     NA49182   3.242  13.049   3.978  0.3387 -0.0070 -0.0615
29649ION     NA49183  18.350  16.110  13.557 -0.1010  0.3304 -0.0831
29650ION     NA49184  19.177  12.593   9.750  0.1561  0.1645  0.0855
29651ION     NA49185   1.796   3.715   4.837  0.0512  0.1766 -0.0708
29652ION     NA49186  15.763  10.010   4.593 -0.2971 -0.0515 -0.2458
29653ION     NA49187  17.542   5.112  13.963  0.0866 -0.4830 -0.0892
29654ION     NA49188   7.917  18.235  13.125  0.1268 -0.1859 -0.0359
29655ION     NA49189  15.946  13.965  12.757  0.1557 -0.1550 -0.2944
29656ION     NA49190   0.468   8.212   4.838  0.0745  0.0346 -0.1058
29657ION     NA49191  15.078   3.581   1.946 -0.0637  0.1860  0.3216
29658ION     NA49192   5.787   7.541  12.420  0.0990 -0.0219  0.0899
29659ION     NA49193  12.031  19.487   4.889 -0.3013 -0.1944  0.3879
29660ION     NA49194   6.180  14.413   9.823  0.0967 -0.1176  0.0850
29661ION     NA49195   2.198   4.556  14.003  0.1098  0.3837  0.3343
29662ION     NA49196  15.850  12.905  13.570 -0.3224  0.1423  0.0491
29663ION     NA49197  10.219   0.743   4.965  0.1447  0.1646 -0.0409
29664ION     NA49198  11.901   4.517  13.986 -0.1969 -0.0592  0.1441
29665ION     NA49199  19.188   6.590   3.215  0.3180  0.2757  0.1376
29666ION     NA49200  14.985   1.328   5.203  0.0650 -0.1390 -0.1273
29667ION     NA49201   2.139   5.429   5.130  0.1383  0.2488 -0.0042
29668ION     NA49202   2.863  11.439   3.106 -0.1484 -0.3537 -0.1112
29669ION     NA49203  11.888  13.313   4.463  0.3337  0.0994  0.0265
29670ION     NA49204  17.137  18.958  11.257 -0.0735  0.1340  0.0934
29671ION     NA49205   8.141  14.599  13.627  0.1428 -0.1170 -0.0489
29672ION     NA49206   2.116  18.313  10.186  0.1356  0.0605  0.0208
29673ION     NA49207   3.075   2.155   9.807  0.1992 -0.1207  0.1750
29674ION     NA49208   0.410  13.374  12.940  0.1458  0.0724 -0.1419
29675ION     NA49209   6.217  17.333   4.723  0.3566  0.0199  0.1870
29676ION     NA49210  12.842  18.529  13.302 -0.0878  0.2442  0.2977
29677ION     NA49211   0.810   2.194   4.901  0.4246  0.1358 -0.0874
29678ION     NA49212   3.861   5.978   5.051  0.2609 -0.0524 -0.0233
29679ION     NA49213   1.685  13.409   1.072 -0.1332  0.2448  0.0728
29680ION     NA49214  15.251  10.306   1.291  0.0577 -0.2310  0.1252
29681ION     NA49215   5.058  17.719   9.510 -0.0062  0.2250  0.1439
29682ION     NA49216   5.402  14.419   4.653 -0.2896  0.1453  0.3176
29683ION     NA49217  13.088   5.602  11.798 -0.2197  0.0148  0.0932
29684ION     NA49218  16.004  12.408   4.309 -0.1507  0.0606 -0.0481
29685ION     NA49219   4.950  16.069   9.548 -0.0698  0.0387  0.1170
29686ION     NA49220   9.205  10.332   9.954 -0.0704  0.2881 -0.1182
29687ION     NA49221  19.096  12.110   4.656  0.0167 -0.1787  0.1637
29688ION     NA49222   5.482   7.356   9.562  0.1636 -0.0061 -0.1788
29689ION     NA49223  10.982  13.326  12.562 -0.1687  0.1474 -0.1426
29690ION     NA49224   6.030  12.746   0.421 -0.0237  0.0082 -0.0157
29691ION     NA49225  18.730   7.673   3.059 -0.0716 -0.3132 -0.0978
29692ION     NA49226   7.967   7.390   4.965 -0.0134  0.1377 -0.0417
29693ION     NA49227  12.816   2.196  13.703 -0.1462  0.0609  0.2013
29694ION     NA49228   8.302  12.940   4.439  0.2358  0.2285  0.3270
29695ION     NA49229  10.621  13.029  13.763 -0.1845 -0.1169 -0.2171
29696ION     NA49230   5.176  12.220   9.806 -0.1131 -0.1004  0.3334
29697ION     NA49231   2.964  12.022  11.280 -0.0128 -0.1876  0.0037
29698ION     NA49232  13.355  14.171   1.071 -0.0692  0.0293 -0.1220
29699ION     NA49233  15.163  11.961   4.546 -0.3319  0.1543 -0.0103
29700ION     NA49234   7.590   4.671   3.097 -0.1992 -0.1160  0.0591
29701ION     NA49235  18.350   0.800   3.071  0.1093  0.0463 -0.1793
29702ION     NA49236  17.939   6.279   9.601  0.3260  0.3143  0.0085
29703ION     NA49237   1.070   9.594   0.605  0.2213  0.0879  0.2261
29704ION     NA49238   3.454  10.078   9.617  0.1585 -0.0108 -0.3261
29705ION     NA49239   6.156   5.770   9.592  0.1560  0.0975  0.0313
29706ION     NA49240  19.232   7.445   9.888 -0.3837 -0.3339 -0.1592
29707ION     NA49241  18.012  13.583   9.506  0.1187 -0.3539  0.0174
29708ION     NA49242  11.503   0.046   0.761 -0.3752  0.0516 -0.1694
29709ION     NA49243   6.230  11.944   4.697  0.0463  0.2003 -0.0099
29710ION     NA49244  18.226  16.163   4.403  0.2155  0.2440 -0.2874
29711ION     NA49245  14.011  16.205   4.806 -0.0274 -0.0454 -0.0343
29712ION     NA49246   8.672   3.057   9.479  0.0460 -0.0082  0.2136
29713ION     NA49247   7.169   7.927   4.738 -0.3479 -0.1117 -0.2454
29714ION     NA49248   0.466  14.401   9.783 -0.1043 -0.2033  0.2125
29715ION     NA49249  13.525   4.374   9.412  0.0632  0.1540  0.2401
29716ION     NA49250  17.908   1.922   9.862  0.0038  0.0141 -0.3922
29717ION     NA49251  15.257  16.729   5.096 -0.0079 -0.1761  0.2399
29718ION     NA49252  12.155   7.810   0.206 -0.0068 -0.1025  0.4511
29719ION     NA49253   9.667  16.248   9.555  0.1692 -0.1544 -0.0277
29720ION     NA49254  11.994   7.697   9.616  0.0670 -0.2814  0.0096
29721ION     NA49255   8.172   8.048   0.735  0.0005 -0.0030  0.4019
29722ION     NA49256   2.695   6.775   9.885 -0.1452  0.1447  0.1910
29723ION     NA49257  12.374   7.160   5.198 -0.2372  0.0160 -0.0317
29724ION     NA49258  13.047  15.118  13.695  0.0143 -0.1546  0.0301
29725ION     NA49259   5.375   0.133   2.434 -0.1372 -0.4614  0.1141
29726ION     NA49260  15.804  15.473   4.009  0.0106  0.1100  0.3276
29727ION     NA49261  17.099   7.702   4.826 -0.0704 -0.1129  0.2217
29728ION     NA49262   4.228   8.608   9.528 -0.0790  0.2941  0.1410
29729ION     NA49263  15.266   5.462  11.931  0.0089 -0.0232  0.0439
29730ION     NA49264   1.706   6.484   0.543 -0.3165  0.0932  0.3460
29731ION     NA49265   1.421   9.616   4.801  0.0216  0.2644 -0.1079
29732ION     NA49266   2.451  17.455   9.851 -0.0062  0.0001 -0.2701
29733ION     NA49267   4.380  13.641   3.467 -0.2709  0.0992 -0.0234
29734ION     NA49268   6.508   8.422  13.880  0.0299  0.0234 -0.1921
29735ION     NA49269  12.152   2.660  12.135 -0.0675 -0.0880  0.3212
29736ION     NA49270  18.874  16.701   4.670  0.5035 -0.0847 -0.2827
29737ION     NA49271   2.975  16.056   9.821 -0.2047 -0.1374 -0.0540
29738ION     NA49272  16.103   7.810   4.808  0.1318  0.0639 -0.1297
29739ION     NA49273  18.773  19.353  13.901  0.1328  0.0009 -0.0520
29740ION     NA49274   8.801   3.839   4.972  0.0905 -0.2949  0.4369
29741ION     NA49275  14.637   9.046   4.825  0.0397 -0.1918 -0.0795
29742ION     NA49276   7.901  18.195   9.547 -0.2548  0.5148  0.4060
29743ION     NA49277   7.174   3.623   4.441 -0.2576 -0.2845  0.3389
29744ION     NA49278  11.167  16.839   4.889 -0.2522  0.0524 -0.0223
29745ION     NA49279  17.508  19.012   9.480  0.0079 -0.0225 -0.1336
29746ION     NA49280   0.639  16.374   9.382  0.3053  0.3482 -0.0099
29747ION     NA49281   1.347   1.369   2.329 -0.1483 -0.1021  0.2205
29748ION     NA49282   2.893   3.199   4.587  0.1724 -0.0757 -0.0198
29749ION     NA49283   1.257  18.469  10.166  0.0372  0.2199  0.1298
29750ION     NA49284   3.068  10.038   4.541  0.0639  0.0463 -0.2818
29751ION     NA49285  13.306  17.899   4.897  0.0851  0.1923  0.2064
29752ION     NA49286   3.689  11.880   9.433  0.0381 -0.0325 -0.0942
29753ION     NA49287  10.603  10.528  14.293  0.2207 -0.0178 -0.0718
29754ION     NA49288  18.034   2.317  11.196  0.0671  0.2032  0.0576
29755ION     NA49289  11.150   0.718   9.571  0.0850 -0.0624  0.1604
29756ION     NA49290   0.685   5.446   9.887 -0.2075  0.1342 -0.2325
29757ION     NA49291  10.131   5.990   4.861 -0.0132  0.3091  0.0218
29758ION     NA49292  13.318   3.491   9.473  0.2244  0.1432  0.1789
29759ION     NA49293   0.305   2.983   4.849 -0.0749 -0.1042 -0.0842
29760ION     NA49294   5.697   7.881   4.526 -0.0874  0.0707 -0.0576
29761ION     NA49295  18.900   2.732   4.730 -0.1100 -0.1744 -0.2492
29762ION     NA49296  19.473   1.668   4.735  0.1643 -0.1438 -0.0282
29763ION     NA49297   4.455  17.927   4.750 -0.0505  0.2231 -0.2100
29764ION     NA49298  16.845  15.357  12.629 -0.0495  0.2893 -0.0425
29765ION     NA49299  15.634  10.915  10.936  0.5007 -0.0754 -0.0673
29766ION     NA49300   5.071  18.333  12.492 -0.0732  0.2725 -0.1975
29767ION     NA49301   0.414  11.302  12.349  0.1286  0.0390  0.1935
29768ION     NA49302   5.963   3.309   4.687  0.1147 -0.0101  0.0771
29769ION     NA49303  19.093  12.939   4.602 -0.1932 -0.1027 -0.0054
  19.53738  19.53738  14.34910
