INSANE! Membrane UpperLeaflet>loPI:POPI:DPPI:PYPI:ERGO=140.0:15.0:9.0:6.0:30.0 LowerLeaflet>PSPI:POPI:POPS:YOPS:POPE:YOPE:POPC:YOPC:ERGO=6.0:14.0:21.0:9.0:9.0:21.0:12.0:48.0:60.0
49207
    1loPI    C1    1   1.177   4.420  11.145 -0.1796  0.0241 -0.0718
    1loPI    C2    2   0.873   4.650  11.023 -0.2091  0.1682  0.2595
    1loPI    C3    3   0.830   4.415  11.344  0.0122  0.1463  0.2751
    1loPI   PO4    4   1.229   4.285  10.910  0.1727 -0.2081 -0.1365
    1loPI   GL1    5   1.382   4.105  10.593 -0.1569  0.0502  0.2704
    1loPI   GL2    6   1.178   3.913  10.575  0.2737 -0.1129  0.0647
    1loPI   C1A    7   1.372   4.202  10.091 -0.1792 -0.1430  0.3285
    1loPI   C2A    8   1.526   4.390   9.684 -0.1893  0.0377 -0.0154
    1loPI   C3A    9   1.542   4.362   9.313  0.0671  0.0586 -0.0610
    1loPI   C4A   10   1.527   4.326   8.837 -0.0014 -0.1261 -0.3550
    1loPI   C5A   11   1.704   4.297   8.421  0.2072 -0.3553  0.0796
    1loPI   C6A   12   2.086   4.147   8.177  0.0305  0.0366  0.2237
    1loPI   C1B   13   0.916   4.054  10.209 -0.0339  0.1175 -0.1466
    1loPI   C2B   14   0.987   3.951   9.762 -0.3315 -0.0902  0.1474
    1loPI   C3B   15   0.978   3.919   9.325  0.3663  0.0844  0.1334
    1loPI   C4B   16   1.003   3.491   8.993  0.0208 -0.3140 -0.1289
    2loPI    C1   17  11.223   8.352   9.930 -0.0214  0.2386 -0.0049
    2loPI    C2   18  10.969   8.445  10.225 -0.0750  0.1542 -0.0241
    2loPI    C3   19  11.344   8.336  10.311 -0.0273  0.3354  0.0014
    2loPI   PO4   20  11.036   8.204   9.761 -0.0712  0.0032 -0.2284
    2loPI   GL1   21  11.132   8.060   9.412 -0.0759  0.1314 -0.0639
    2loPI   GL2   22  11.420   7.848   9.503  0.1795  0.1458  0.1243
    2loPI   C1A   23  10.944   7.927   8.931 -0.1107  0.1910 -0.1400
    2loPI   C2A   24  11.084   7.762   8.551  0.1530 -0.2177 -0.2501
    2loPI   C3A   25  11.162   8.067   8.179  0.0345 -0.2091 -0.1408
    2loPI   C4A   26  11.217   8.119   7.730 -0.1847 -0.1635  0.3431
    2loPI   C5A   27  11.629   8.361   7.522 -0.1349 -0.1765  0.1112
    2loPI   C6A   28  12.192   8.258   7.612 -0.0137  0.0825 -0.1546
    2loPI   C1B   29  11.464   7.861   9.045 -0.0100  0.3774 -0.0455
    2loPI   C2B   30  11.536   7.913   8.595  0.1805 -0.0139  0.1057
    2loPI   C3B   31  11.764   7.958   8.256 -0.0940 -0.1035  0.0696
    2loPI   C4B   32  11.816   8.165   7.917  0.1031  0.1326  0.0658
    3loPI    C1   33  17.253   0.727  10.972  0.1114  0.0011  0.1558
    3loPI    C2   34  17.232   1.117  10.887  0.1979 -0.0378 -0.0512
    3loPI    C3   35  17.039   0.971  11.206 -0.0915  0.1221 -0.1491
    3loPI   PO4   36  17.172   0.602  10.743 -0.4298  0.1407  0.0693
    3loPI   GL1   37  17.319   0.491  10.380  0.3045  0.3310  0.0447
    3loPI   GL2   38  17.364   0.913  10.466 -0.1126 -0.0007 -0.2913
    3loPI   C1A   39  17.383   0.356   9.910 -0.0747 -0.1653  0.0756
    3loPI   C2A   40  17.481   0.337   9.408  0.0357 -0.0263 -0.1155
    3loPI   C3A   41  17.281   0.332   8.962  0.1497 -0.1502  0.0492
    3loPI   C4A   42  17.198   0.235   8.477  0.0059  0.1997  0.2023
    3loPI   C5A   43  16.962   0.527   8.146  0.1126 -0.2012  0.1644
    3loPI   C6A   44  17.086   0.896   7.969  0.4495  0.0266 -0.0877
    3loPI   C1B   45  17.347   0.837  10.036 -0.1847 -0.1085 -0.6102
    3loPI   C2B   46  17.342   0.818   9.650 -0.0946 -0.2116 -0.0117
    3loPI   C3B   47  17.392   0.793   9.187  0.2130 -0.1316  0.0424
    3loPI   C4B   48  17.289   0.750   8.707  0.0246 -0.1274 -0.0692
    4loPI    C1   49  11.925   2.894  10.602 -0.2197  0.0235  0.0714
    4loPI    C2   50  12.209   3.099  10.795 -0.2885  0.1423  0.0480
    4loPI    C3   51  11.878   2.983  10.989 -0.1739 -0.0964  0.1049
    4loPI   PO4   52  11.929   3.013  10.397 -0.2324 -0.1292  0.5754
    4loPI   GL1   53  12.219   2.921  10.041 -0.0085  0.3589 -0.0383
    4loPI   GL2   54  12.518   3.154   9.963 -0.2228 -0.1502 -0.1172
    4loPI   C1A   55  12.330   2.822   9.700 -0.0969 -0.1026  0.1988
    4loPI   C2A   56  12.410   2.947   9.281 -0.4625 -0.2917  0.1737
    4loPI   C3A   57  12.221   2.866   8.863  0.1250 -0.0528  0.0133
    4loPI   C4A   58  12.110   2.958   8.542  0.0083  0.0682 -0.0689
    4loPI   C5A   59  12.184   2.766   8.108  0.2443  0.0944  0.1011
    4loPI   C6A   60  12.177   2.969   7.795 -0.0000  0.0453 -0.1062
    4loPI   C1B   61  12.838   3.126   9.625  0.3650 -0.0295 -0.1607
    4loPI   C2B   62  12.841   3.066   9.119  0.0687 -0.0165 -0.0230
    4loPI   C3B   63  12.797   3.025   8.703  0.2815 -0.3461 -0.0303
    4loPI   C4B   64  12.649   2.976   8.376 -0.0608 -0.2915  0.0419
    5loPI    C1   65   0.667   6.079  11.031  0.0178 -0.0395 -0.1824
    5loPI    C2   66   0.307   6.027  10.865 -0.0720 -0.1177  0.0343
    5loPI    C3   67   0.339   6.209  11.220  0.0929 -0.2010  0.0631
    5loPI   PO4   68   0.769   6.023  10.723 -0.0493 -0.0308  0.1552
    5loPI   GL1   69   0.849   6.146  10.241 -0.4710 -0.3973  0.0671
    5loPI   GL2   70   1.210   6.298  10.142 -0.0992 -0.0631 -0.0097
    5loPI   C1A   71   0.582   6.121   9.917 -0.1294  0.1152  0.4160
    5loPI   C2A   72   0.539   6.021   9.482 -0.0659 -0.1426 -0.2701
    5loPI   C3A   73   0.634   5.887   9.108  0.0127  0.3042  0.2632
    5loPI   C4A   74   0.676   5.844   8.675 -0.2678 -0.0785 -0.0324
    5loPI   C5A   75   0.591   5.756   8.269  0.1836 -0.3418  0.0240
    5loPI   C6A   76   0.690   5.704   7.788  0.0366  0.1634 -0.2250
    5loPI   C1B   77   1.106   6.202   9.800  0.0901  0.0856 -0.0519
    5loPI   C2B   78   1.078   6.184   9.384 -0.0611 -0.1862  0.1755
    5loPI   C3B   79   1.112   6.108   9.016 -0.2274  0.1240 -0.1916
    5loPI   C4B   80   1.097   6.028   8.531 -0.0376 -0.1468  0.0025
    6loPI    C1   81  12.825   1.729  10.878  0.2551  0.2880  0.0242
    6loPI    C2   82  12.956   1.471  11.155 -0.2709 -0.0636 -0.0407
    6loPI    C3   83  12.763   1.804  11.266  0.0375  0.0961  0.0282
    6loPI   PO4   84  12.951   1.755  10.767  0.2052  0.1579  0.2242
    6loPI   GL1   85  13.188   1.898  10.471  0.3519  0.0447  0.0612
    6loPI   GL2   86  13.491   1.760  10.580  0.2116 -0.2665  0.0860
    6loPI   C1A   87  13.076   1.844  10.043 -0.2821 -0.1583  0.3611
    6loPI   C2A   88  13.111   1.850   9.627 -0.0044  0.0138 -0.0917
    6loPI   C3A   89  13.267   1.859   9.277 -0.0770 -0.1675 -0.2977
    6loPI   C4A   90  13.240   1.804   8.881 -0.1276  0.1304 -0.0686
    6loPI   C5A   91  13.287   1.831   8.394 -0.0603  0.0131  0.2015
    6loPI   C6A   92  13.270   1.789   7.953  0.1309 -0.0071 -0.0194
    6loPI   C1B   93  13.504   1.534  10.130 -0.0324 -0.0392  0.1522
    6loPI   C2B   94  13.593   1.575   9.680 -0.3895  0.0066  0.2760
    6loPI   C3B   95  13.705   1.567   9.213  0.1355  0.1333  0.1520
    6loPI   C4B   96  13.643   1.589   8.776  0.0903  0.4152  0.4257
    7loPI    C1   97  10.036   9.382  10.192  0.0657  0.1315  0.0099
    7loPI    C2   98  10.431   9.336  10.237  0.0297 -0.0108  0.1932
    7loPI    C3   99  10.178   9.110  10.449 -0.1521  0.2485  0.2586
    7loPI   PO4  100  10.001   9.385   9.946 -0.2413 -0.3074 -0.1340
    7loPI   GL1  101   9.966   9.653   9.711  0.1017  0.0118  0.1429
    7loPI   GL2  102   9.920   9.955   9.716 -0.0093 -0.3464  0.1022
    7loPI   C1A  103   9.927   9.668   9.338  0.1440 -0.0122 -0.2846
    7loPI   C2A  104   9.936   9.567   8.959  0.0689 -0.1358  0.0619
    7loPI   C3A  105   9.974   9.560   8.532  0.1365  0.3714 -0.0561
    7loPI   C4A  106   9.902   9.403   8.100 -0.0946 -0.0852 -0.1563
    7loPI   C5A  107   9.993   9.140   7.784  0.3217  0.3709  0.0815
    7loPI   C6A  108  10.078   8.769   7.656  0.4247  0.2587  0.1652
    7loPI   C1B  109   9.505   9.870   9.485  0.0777  0.0159  0.0842
    7loPI   C2B  110   9.514   9.911   9.074  0.2388 -0.3289 -0.1118
    7loPI   C3B  111   9.570   9.831   8.715 -0.0655  0.0100  0.2122
    7loPI   C4B  112   9.599   9.843   8.352  0.1040 -0.2120 -0.0290
    8loPI    C1  113   7.542  16.271  10.603  0.0649  0.2061  0.1790
    8loPI    C2  114   7.255  16.001  10.673  0.2497 -0.0977 -0.1953
    8loPI    C3  115   7.185  16.307  10.426  0.2121 -0.1090 -0.1987
    8loPI   PO4  116   7.761  16.223  10.471 -0.1511  0.2559  0.1941
    8loPI   GL1  117   7.734  16.336  10.047 -0.0061 -0.0673 -0.2782
    8loPI   GL2  118   8.060  16.248  10.100  0.2404 -0.0105 -0.0460
    8loPI   C1A  119   7.512  16.264   9.554 -0.0736  0.0400  0.0384
    8loPI   C2A  120   7.538  16.271   9.096 -0.0088 -0.0750  0.3057
    8loPI   C3A  121   7.683  16.286   8.610 -0.1665 -0.0120 -0.2421
    8loPI   C4A  122   7.802  16.202   8.198  0.0504 -0.4158 -0.2990
    8loPI   C5A  123   7.944  15.784   8.075  0.1193 -0.0394 -0.0976
    8loPI   C6A  124   7.992  15.497   7.862 -0.3476  0.0430  0.1643
    8loPI   C1B  125   8.114  16.047   9.699 -0.1047 -0.0596 -0.0073
    8loPI   C2B  126   8.096  15.986   9.324 -0.1311 -0.0008 -0.0155
    8loPI   C3B  127   8.155  16.021   8.866  0.2663 -0.0130  0.2514
    8loPI   C4B  128   8.264  16.044   8.433 -0.0695 -0.2696 -0.1861
    9loPI    C1  129   6.894   9.643  10.882  0.0293 -0.1239  0.1522
    9loPI    C2  130   6.823   9.394  11.186 -0.3050 -0.0245  0.1590
    9loPI    C3  131   6.756   9.786  11.229 -0.0883  0.0265  0.0449
    9loPI   PO4  132   6.846   9.497  10.710 -0.0589  0.1017  0.1393
    9loPI   GL1  133   6.905   9.186  10.322  0.2157 -0.0443 -0.0018
    9loPI   GL2  134   6.563   9.310  10.309  0.3260  0.0265  0.3551
    9loPI   C1A  135   6.690   9.200   9.856 -0.1861 -0.1703 -0.0026
    9loPI   C2A  136   6.742   9.137   9.501 -0.0123 -0.2463  0.2230
    9loPI   C3A  137   6.725   9.278   9.087  0.0380  0.0659  0.2789
    9loPI   C4A  138   6.594   9.354   8.712  0.0239 -0.3472  0.2468
    9loPI   C5A  139   6.430   9.499   8.296 -0.0024 -0.1483  0.2297
    9loPI   C6A  140   6.074   9.815   8.118  0.0277  0.3071  0.0995
    9loPI   C1B  141   6.360   9.553  10.011  0.0484 -0.1127 -0.0390
    9loPI   C2B  142   6.330   9.444   9.533 -0.3132 -0.2073  0.1137
    9loPI   C3B  143   6.250   9.541   9.162  0.1331  0.1690  0.2082
    9loPI   C4B  144   6.174   9.629   8.747  0.1411  0.1423 -0.1542
   10loPI    C1  145   9.512   3.172   9.905  0.1554  0.1357 -0.0464
   10loPI    C2  146   9.688   2.930  10.170 -0.1299  0.0262  0.0468
   10loPI    C3  147   9.298   3.013  10.203 -0.0523  0.4409 -0.0285
   10loPI   PO4  148   9.644   3.198   9.782  0.0731 -0.1547  0.1390
   10loPI   GL1  149  10.046   3.316   9.573  0.2412 -0.3046  0.0536
   10loPI   GL2  150   9.792   3.538   9.472  0.2079  0.0727 -0.2367
   10loPI   C1A  151   9.988   3.345   9.057  0.1999  0.1554  0.1127
   10loPI   C2A  152  10.115   3.334   8.609 -0.0914 -0.0339 -0.0328
   10loPI   C3A  153  10.098   3.297   8.277 -0.0176 -0.0006  0.4516
   10loPI   C4A  154  10.177   3.575   7.862  0.1140  0.4222  0.1185
   10loPI   C5A  155  10.452   3.823   7.493  0.0776 -0.0407 -0.1166
   10loPI   C6A  156  10.513   4.195   7.413 -0.1600  0.4594  0.1129
   10loPI   C1B  157   9.878   3.877   9.204 -0.1806  0.0696 -0.3283
   10loPI   C2B  158  10.078   3.968   8.801 -0.0237  0.1000  0.0366
   10loPI   C3B  159  10.155   3.869   8.351 -0.3806 -0.3390 -0.2455
   10loPI   C4B  160  10.236   4.011   7.886  0.2337 -0.0182 -0.4968
   11loPI    C1  161   1.585   6.424  10.899  0.1967 -0.1930  0.1033
   11loPI    C2  162   1.919   6.519  10.700  0.0904 -0.3727 -0.1675
   11loPI    C3  163   1.942   6.336  11.055  0.2862  0.1582  0.1039
   11loPI   PO4  164   1.415   6.707  10.913 -0.0593  0.1447 -0.0470
   11loPI   GL1  165   1.544   6.985  10.529  0.0681  0.1648 -0.2462
   11loPI   GL2  166   1.471   6.646  10.443 -0.0695 -0.1709  0.1300
   11loPI   C1A  167   1.628   7.075  10.055  0.1546  0.2424  0.0794
   11loPI   C2A  168   1.508   6.981   9.684  0.1367  0.0322  0.0861
   11loPI   C3A  169   1.540   6.957   9.241 -0.0080  0.0300  0.0114
   11loPI   C4A  170   1.636   6.842   8.695 -0.0491 -0.0589 -0.2231
   11loPI   C5A  171   1.587   6.669   8.339 -0.1185  0.2588  0.0322
   11loPI   C6A  172   1.672   6.840   7.940 -0.4314  0.0845 -0.0342
   11loPI   C1B  173   1.633   6.544  10.051 -0.0534 -0.3671 -0.0343
   11loPI   C2B  174   1.479   6.458   9.582 -0.0327 -0.1597 -0.3476
   11loPI   C3B  175   1.540   6.436   9.143  0.0450  0.1280  0.1135
   11loPI   C4B  176   1.493   6.247   8.713  0.1648  0.2034  0.4506
   12loPI    C1  177  13.833  10.693   9.974 -0.0179 -0.0357  0.1608
   12loPI    C2  178  13.967  10.856  10.314  0.0668 -0.0680  0.1432
   12loPI    C3  179  13.793  10.496  10.320  0.2582 -0.1622  0.1240
   12loPI   PO4  180  13.896  10.756   9.771  0.3052 -0.0895  0.1135
   12loPI   GL1  181  13.996  10.676   9.356  0.0150  0.0650  0.2552
   12loPI   GL2  182  13.764  10.916   9.312  0.2406  0.0242  0.1845
   12loPI   C1A  183  13.953  10.586   8.886 -0.1572  0.0761  0.1617
   12loPI   C2A  184  13.924  10.691   8.553  0.1143  0.1669 -0.0857
   12loPI   C3A  185  14.005  10.575   8.080  0.5617 -0.1513  0.2790
   12loPI   C4A  186  13.907  10.512   7.664 -0.2115 -0.0525 -0.1303
   12loPI   C5A  187  13.564  10.260   7.435 -0.0093  0.1366  0.2384
   12loPI   C6A  188  13.101  10.064   7.638  0.1562 -0.2999 -0.2204
   12loPI   C1B  189  13.901  11.165   9.000 -0.4438  0.1026 -0.0232
   12loPI   C2B  190  13.926  11.191   8.566  0.0695 -0.0540  0.2083
   12loPI   C3B  191  14.045  11.175   8.191  0.1889 -0.0472 -0.1921
   12loPI   C4B  192  14.446  11.286   8.283  0.1108 -0.0651  0.1113
   13loPI    C1  193   0.718  10.771  10.782  0.2958  0.0390  0.0689
   13loPI    C2  194   0.559  10.783  11.149 -0.0567 -0.0993 -0.0744
   13loPI    C3  195   0.764  10.460  11.030  0.0109 -0.0769 -0.0199
   13loPI   PO4  196   0.542  10.841  10.646  0.2102  0.0320 -0.1797
   13loPI   GL1  197   0.486  10.823  10.266  0.2059 -0.0594  0.0369
   13loPI   GL2  198   0.284  10.582  10.354  0.2557 -0.3054  0.2843
   13loPI   C1A  199   0.386  10.932   9.830  0.0839 -0.0780 -0.0714
   13loPI   C2A  200   0.251  10.962   9.390  0.0845 -0.2541  0.0988
   13loPI   C3A  201   0.258  10.923   9.020  0.2288 -0.0136  0.0354
   13loPI   C4A  202   0.282  10.961   8.604  0.2423 -0.3463 -0.1861
   13loPI   C5A  203   0.137  10.870   8.174 -0.2935  0.0428 -0.0477
   13loPI   C6A  204  -0.314  10.775   7.824 -0.2992 -0.0273 -0.0320
   13loPI   C1B  205   0.289  10.473   9.899 -0.0537 -0.1059  0.0950
   13loPI   C2B  206   0.341  10.468   9.426  0.2585 -0.0474 -0.4474
   13loPI   C3B  207   0.250  10.434   9.015  0.2658  0.2554 -0.0445
   13loPI   C4B  208   0.108  10.449   8.585 -0.1549  0.0923  0.0301
   14loPI    C1  209  16.217  11.789  10.963  0.1574  0.1178 -0.1732
   14loPI    C2  210  16.582  11.896  11.088  0.1086  0.1296 -0.0384
   14loPI    C3  211  16.334  11.705  11.337  0.0783 -0.0148 -0.1776
   14loPI   PO4  212  16.245  11.793  10.697 -0.2439 -0.0444 -0.5266
   14loPI   GL1  213  16.246  11.913  10.284  0.1359  0.0716  0.1687
   14loPI   GL2  214  16.240  12.357  10.112  0.1659 -0.0272  0.0246
   14loPI   C1A  215  16.258  11.748   9.899  0.2629  0.0836  0.2538
   14loPI   C2A  216  16.330  11.770   9.435 -0.0095  0.0571  0.2545
   14loPI   C3A  217  16.384  11.710   8.985  0.2289 -0.0020  0.1991
   14loPI   C4A  218  16.339  11.830   8.544 -0.0933 -0.1098 -0.1577
   14loPI   C5A  219  16.183  11.873   8.068 -0.0691  0.0176  0.0816
   14loPI   C6A  220  15.743  11.889   7.850 -0.0621 -0.3543  0.3664
   14loPI   C1B  221  16.266  12.217   9.665  0.4375 -0.1475 -0.1987
   14loPI   C2B  222  16.290  12.222   9.134  0.0528 -0.0491 -0.1488
   14loPI   C3B  223  16.084  12.287   8.728  0.0491 -0.1740 -0.1798
   14loPI   C4B  224  15.899  12.140   8.419  0.1563 -0.3480  0.1560
   15loPI    C1  225  11.180   2.645  10.494 -0.0828  0.2373 -0.0156
   15loPI    C2  226  11.159   2.404  10.813  0.1012  0.0618 -0.1341
   15loPI    C3  227  11.084   2.795  10.853 -0.0441  0.0127  0.0902
   15loPI   PO4  228  11.378   2.612  10.403  0.1258 -0.1974  0.0054
   15loPI   GL1  229  11.423   2.274  10.120 -0.4344 -0.1245 -0.0818
   15loPI   GL2  230  11.368   1.898  10.110 -0.1444  0.3346  0.0559
   15loPI   C1A  231  11.752   2.198   9.823 -0.2638  0.6143 -0.2695
   15loPI   C2A  232  11.863   2.096   9.361  0.0609  0.0382 -0.2096
   15loPI   C3A  233  11.849   2.098   8.971  0.0291 -0.0469  0.1740
   15loPI   C4A  234  11.798   2.151   8.551 -0.0049  0.3828  0.2563
   15loPI   C5A  235  12.059   2.281   8.264 -0.0302 -0.2878 -0.0552
   15loPI   C6A  236  12.361   2.248   7.967  0.1395 -0.1348  0.0827
   15loPI   C1B  237  11.361   1.902   9.602 -0.0418  0.1096 -0.0877
   15loPI   C2B  238  11.436   1.865   9.251 -0.0889  0.2552 -0.1373
   15loPI   C3B  239  11.356   1.773   8.864  0.0329  0.2044  0.0067
   15loPI   C4B  240  11.379   1.903   8.467 -0.0654  0.0277  0.2967
   16loPI    C1  241   0.247  13.509  10.558 -0.0663  0.3790 -0.0653
   16loPI    C2  242   0.481  13.672  10.839  0.0501 -0.1769  0.1737
   16loPI    C3  243   0.115  13.542  10.934 -0.0317 -0.0834 -0.0071
   16loPI   PO4  244   0.413  13.384  10.423 -0.1967 -0.3180 -0.1422
   16loPI   GL1  245   0.495  13.438  10.002  0.0657  0.3367  0.1177
   16loPI   GL2  246   0.504  13.639   9.868 -0.3632 -0.2771  0.0257
   16loPI   C1A  247   0.702  13.050   9.761 -0.0253 -0.2062  0.1412
   16loPI   C2A  248   0.749  12.873   9.394 -0.0821  0.0169 -0.0893
   16loPI   C3A  249   0.789  12.780   8.974 -0.0352  0.3737  0.1249
   16loPI   C4A  250   0.705  12.865   8.643  0.0678 -0.0954 -0.0622
   16loPI   C5A  251   0.655  12.822   8.233  0.1123 -0.1429  0.0057
   16loPI   C6A  252   0.535  12.595   7.922 -0.0249 -0.3027 -0.0357
   16loPI   C1B  253   0.403  13.599   9.496 -0.0834  0.0663 -0.0818
   16loPI   C2B  254   0.334  13.532   9.018  0.0701  0.2349 -0.0477
   16loPI   C3B  255   0.291  13.592   8.677  0.1045  0.1961  0.1813
   16loPI   C4B  256   0.121  13.646   8.188  0.1155 -0.1692  0.0497
   17loPI    C1  257   0.864   8.850  10.794 -0.0556 -0.0234  0.2025
   17loPI    C2  258   0.702   8.720  11.136 -0.0275 -0.2393  0.1353
   17loPI    C3  259   0.970   8.494  10.943  0.0751 -0.0488  0.0517
   17loPI   PO4  260   0.661   8.933  10.703  0.1401  0.0705 -0.1905
   17loPI   GL1  261   0.589   9.090  10.275 -0.2778 -0.0674 -0.0703
   17loPI   GL2  262   0.737   9.339  10.249  0.0686  0.0628 -0.0427
   17loPI   C1A  263   0.605   9.097   9.733  0.0964  0.3435  0.0240
   17loPI   C2A  264   0.677   9.067   9.352  0.2671  0.1205 -0.1438
   17loPI   C3A  265   0.742   9.103   8.954 -0.4139  0.0021  0.1558
   17loPI   C4A  266   0.758   8.985   8.489 -0.0203 -0.0808 -0.1146
   17loPI   C5A  267   0.659   8.719   8.167 -0.0200  0.2326 -0.3550
   17loPI   C6A  268   0.617   8.815   7.771 -0.2208 -0.0914 -0.3529
   17loPI   C1B  269   0.611   9.656   9.864 -0.0017 -0.0238 -0.1708
   17loPI   C2B  270   0.698   9.664   9.437  0.2477 -0.1607  0.1588
   17loPI   C3B  271   0.712   9.647   8.932 -0.1112 -0.2031  0.0986
   17loPI   C4B  272   0.866   9.517   8.565  0.2320  0.2418 -0.0849
   18loPI    C1  273   7.147  13.246  10.886 -0.1682 -0.2100 -0.1158
   18loPI    C2  274   7.324  13.042  10.591 -0.0152 -0.1593 -0.0597
   18loPI    C3  275   7.331  12.900  10.965  0.2213  0.0195  0.0064
   18loPI   PO4  276   7.028  13.477  10.677 -0.0985 -0.1936  0.0489
   18loPI   GL1  277   7.105  13.489  10.284  0.1342 -0.1038  0.1734
   18loPI   GL2  278   6.897  13.556  10.083 -0.2688 -0.0557 -0.1471
   18loPI   C1A  279   7.246  13.334   9.864 -0.0476  0.5623  0.1579
   18loPI   C2A  280   7.210  13.220   9.429  0.0507  0.1279  0.0458
   18loPI   C3A  281   7.146  13.351   9.027  0.1051  0.0967  0.0557
   18loPI   C4A  282   7.202  13.274   8.597  0.1174 -0.0577  0.2810
   18loPI   C5A  283   7.187  13.338   8.237 -0.2655 -0.0757  0.2708
   18loPI   C6A  284   7.120  13.660   7.977  0.3108  0.2724 -0.0586
   18loPI   C1B  285   6.745  13.531   9.637  0.0810  0.1240  0.0101
   18loPI   C2B  286   6.570  13.570   9.271  0.0874 -0.1708 -0.1705
   18loPI   C3B  287   6.757  13.597   8.865 -0.2802 -0.2029  0.2065
   18loPI   C4B  288   6.739  13.555   8.492 -0.1976  0.0174  0.2335
   19loPI    C1  289   7.917   5.961  10.583 -0.0791  0.0629 -0.0046
   19loPI    C2  290   8.147   5.977  10.910  0.1020  0.1782 -0.1356
   19loPI    C3  291   7.852   5.707  10.885  0.1923  0.0600  0.0534
   19loPI   PO4  292   8.090   5.924  10.402 -0.1586  0.0287 -0.4622
   19loPI   GL1  293   8.181   6.098   9.947  0.1813  0.1617  0.0201
   19loPI   GL2  294   8.383   6.006   9.749  0.0829 -0.0668 -0.0711
   19loPI   C1A  295   8.042   6.416   9.675 -0.0286 -0.1005 -0.1451
   19loPI   C2A  296   7.977   6.540   9.196 -0.3356  0.0884 -0.1656
   19loPI   C3A  297   8.017   6.349   8.783 -0.4268 -0.0596  0.0955
   19loPI   C4A  298   7.890   6.640   8.436  0.0429  0.0689  0.0340
   19loPI   C5A  299   7.825   6.860   8.078  0.0375  0.0342 -0.0678
   19loPI   C6A  300   7.806   7.100   7.683 -0.0195  0.0208  0.0688
   19loPI   C1B  301   8.417   6.216   9.390  0.2409 -0.3048  0.1507
   19loPI   C2B  302   8.460   6.231   8.982  0.2245 -0.0293 -0.1250
   19loPI   C3B  303   8.387   6.049   8.613 -0.0997 -0.2069 -0.1436
   19loPI   C4B  304   8.315   6.082   8.123 -0.1253 -0.0762  0.1119
   20loPI    C1  305   1.370  16.276  10.285 -0.0505  0.0972 -0.1062
   20loPI    C2  306   1.480  16.429  10.638 -0.2290  0.0166 -0.0148
   20loPI    C3  307   1.282  16.081  10.623  0.1064 -0.1709 -0.2166
   20loPI   PO4  308   1.544  16.394  10.122 -0.0508 -0.2648  0.1143
   20loPI   GL1  309   1.558  16.550   9.726  0.1086 -0.0176 -0.0743
   20loPI   GL2  310   1.398  16.858   9.765  0.2809 -0.0645  0.3774
   20loPI   C1A  311   1.690  16.386   9.377 -0.2152 -0.2374 -0.1696
   20loPI   C2A  312   1.726  16.328   8.929  0.0942 -0.0172 -0.0871
   20loPI   C3A  313   1.745  16.373   8.431 -0.0872  0.1894  0.1246
   20loPI   C4A  314   1.854  16.359   8.034  0.0856  0.1866 -0.2350
   20loPI   C5A  315   1.767  16.528   7.701 -0.1431 -0.0891 -0.0670
   20loPI   C6A  316   1.644  16.419   7.366 -0.3419 -0.0645 -0.0680
   20loPI   C1B  317   1.297  16.805   9.398 -0.1398 -0.0887  0.0428
   20loPI   C2B  318   1.337  16.633   8.929  0.0767 -0.0539 -0.1038
   20loPI   C3B  319   1.307  16.664   8.518 -0.1419  0.1815  0.1293
   20loPI   C4B  320   1.497  16.694   8.061 -0.0255  0.1784  0.2302
   21loPI    C1  321   0.064   3.379  11.001  0.0940  0.1350  0.2198
   21loPI    C2  322  -0.085   3.119  11.265  0.0812 -0.1427 -0.0547
   21loPI    C3  323   0.136   2.988  10.959 -0.0033  0.1608 -0.2501
   21loPI   PO4  324  -0.144   3.541  10.938 -0.1169  0.0102  0.0337
   21loPI   GL1  325  -0.322   3.624  10.542 -0.0816 -0.2575 -0.2829
   21loPI   GL2  326   0.033   3.638  10.425  0.0227  0.3485 -0.2185
   21loPI   C1A  327  -0.311   3.776  10.103 -0.0048 -0.1691  0.0590
   21loPI   C2A  328  -0.269   3.766   9.541  0.0033  0.1912 -0.0459
   21loPI   C3A  329  -0.338   3.615   9.207 -0.0832 -0.1663 -0.0546
   21loPI   C4A  330  -0.349   3.721   8.872  0.0656 -0.4030 -0.0501
   21loPI   C5A  331  -0.299   3.450   8.501 -0.0690 -0.0551 -0.3091
   21loPI   C6A  332  -0.395   3.020   8.408 -0.1696 -0.0067 -0.0050
   21loPI   C1B  333   0.146   3.454   9.968  0.0525 -0.0316  0.3686
   21loPI   C2B  334   0.064   3.419   9.531 -0.1551 -0.1124  0.0234
   21loPI   C3B  335   0.096   3.366   9.152  0.1122  0.2815  0.2036
   21loPI   C4B  336   0.166   3.327   8.640 -0.3556  0.2652 -0.1356
   22loPI    C1  337  12.288  16.672  10.794  0.0419  0.0763 -0.1507
   22loPI    C2  338  12.467  16.914  11.058  0.0634 -0.1999  0.0932
   22loPI    C3  339  12.069  16.913  11.025  0.0706 -0.0311 -0.0096
   22loPI   PO4  340  12.433  16.675  10.562  0.0392  0.0912 -0.0905
   22loPI   GL1  341  12.720  16.502  10.375 -0.0348 -0.0598  0.0665
   22loPI   GL2  342  12.878  16.147  10.324 -0.3491 -0.2144  0.0662
   22loPI   C1A  343  12.585  16.519   9.959 -0.1401 -0.1394 -0.1736
   22loPI   C2A  344  12.651  16.522   9.551 -0.0176 -0.0811  0.0258
   22loPI   C3A  345  12.631  16.527   9.187 -0.4067 -0.1308 -0.0941
   22loPI   C4A  346  12.707  16.516   8.782 -0.1782  0.1055 -0.0924
   22loPI   C5A  347  12.833  16.558   8.434  0.1863 -0.3109  0.1974
   22loPI   C6A  348  12.885  16.327   8.041  0.3822 -0.3304 -0.0841
   22loPI   C1B  349  13.143  16.342  10.112 -0.1908  0.1067 -0.4238
   22loPI   C2B  350  13.186  16.308   9.692 -0.1115  0.0366 -0.2584
   22loPI   C3B  351  13.092  16.255   9.276 -0.3974  0.0651  0.1355
   22loPI   C4B  352  13.182  16.327   8.792  0.0084 -0.0412 -0.1309
   23loPI    C1  353  12.817  15.717  10.907 -0.1097  0.3346 -0.2046
   23loPI    C2  354  12.782  15.564  11.275 -0.0025  0.0137 -0.3244
   23loPI    C3  355  12.924  15.934  11.226 -0.1341  0.1053 -0.0374
   23loPI   PO4  356  12.959  15.582  10.739  0.0137 -0.0708  0.0122
   23loPI   GL1  357  13.040  15.654  10.428 -0.2019  0.2220  0.0994
   23loPI   GL2  358  13.355  15.903  10.300 -0.1818 -0.0379  0.3153
   23loPI   C1A  359  13.021  15.749   9.965 -0.1470  0.0236 -0.1221
   23loPI   C2A  360  13.045  15.833   9.638  0.3264  0.0330 -0.0944
   23loPI   C3A  361  13.115  15.777   9.306 -0.1572 -0.0996  0.2563
   23loPI   C4A  362  13.076  15.831   8.953 -0.2278  0.1350  0.0596
   23loPI   C5A  363  13.173  15.748   8.593  0.0906 -0.0528 -0.2229
   23loPI   C6A  364  13.101  15.800   8.208 -0.2453  0.1321  0.2460
   23loPI   C1B  365  13.539  16.032   9.982 -0.1154  0.0353  0.0999
   23loPI   C2B  366  13.563  16.009   9.513  0.0424  0.0619 -0.3612
   23loPI   C3B  367  13.557  16.086   9.057 -0.1357  0.4233 -0.3361
   23loPI   C4B  368  13.578  16.038   8.601  0.1648  0.0041  0.1090
   24loPI    C1  369  15.106   9.568  10.589 -0.0893 -0.4061 -0.2483
   24loPI    C2  370  15.156   9.200  10.736  0.1879 -0.2120  0.1620
   24loPI    C3  371  15.040   9.497  10.977 -0.0590 -0.0322 -0.1704
   24loPI   PO4  372  15.359   9.609  10.458  0.0786 -0.0291  0.2346
   24loPI   GL1  373  15.477   9.714  10.065 -0.1719 -0.3297 -0.0728
   24loPI   GL2  374  15.469   9.960   9.886  0.0793  0.2929 -0.0782
   24loPI   C1A  375  15.319   9.417   9.634  0.2511  0.1596  0.0834
   24loPI   C2A  376  15.247   9.468   9.172 -0.4131  0.1854 -0.0710
   24loPI   C3A  377  15.230   9.355   8.814  0.2842 -0.1348  0.0253
   24loPI   C4A  378  15.190   9.195   8.346 -0.2254  0.2138 -0.2129
   24loPI   C5A  379  15.212   8.773   8.079 -0.0958  0.0099  0.1708
   24loPI   C6A  380  15.341   8.450   8.132 -0.2482  0.0433 -0.0944
   24loPI   C1B  381  15.728   9.703   9.512 -0.1569  0.0784  0.0509
   24loPI   C2B  382  15.662   9.690   9.047 -0.4571  0.3869  0.0242
   24loPI   C3B  383  15.709   9.522   8.717 -0.2693  0.2288 -0.1894
   24loPI   C4B  384  15.689   9.386   8.362  0.0773  0.0152 -0.0188
   25loPI    C1  385   0.783   2.045  10.978  0.1025 -0.1419 -0.0898
   25loPI    C2  386   0.881   1.867  11.322 -0.0354 -0.0396  0.0037
   25loPI    C3  387   0.681   2.213  11.326 -0.0535 -0.0469 -0.1798
   25loPI   PO4  388   0.944   2.007  10.766  0.2198 -0.2844 -0.0167
   25loPI   GL1  389   1.033   2.118  10.390 -0.0338  0.1906 -0.1552
   25loPI   GL2  390   0.674   2.277  10.418  0.3218 -0.0987 -0.2288
   25loPI   C1A  391   1.001   1.945   9.947  0.1195 -0.2467 -0.3143
   25loPI   C2A  392   0.965   1.873   9.487 -0.1789 -0.1841 -0.0244
   25loPI   C3A  393   1.009   1.836   9.075 -0.0865 -0.0201 -0.0220
   25loPI   C4A  394   1.043   1.636   8.641 -0.2231  0.1829  0.2140
   25loPI   C5A  395   0.829   1.368   8.432 -0.2562 -0.1684  0.1002
   25loPI   C6A  396   0.512   1.071   8.209 -0.0861  0.0609  0.1192
   25loPI   C1B  397   0.585   2.165  10.077 -0.3890 -0.0512  0.1832
   25loPI   C2B  398   0.479   2.113   9.609 -0.3570  0.1479  0.2031
   25loPI   C3B  399   0.544   2.071   9.148  0.0100  0.0881  0.1623
   25loPI   C4B  400   0.611   2.021   8.772 -0.1012  0.3052  0.1439
   26loPI    C1  401   2.241  14.486  10.329 -0.2535 -0.0149 -0.0682
   26loPI    C2  402   2.329  14.875  10.317 -0.1801 -0.0188  0.2513
   26loPI    C3  403   2.285  14.691  10.669 -0.1267 -0.3200  0.1039
   26loPI   PO4  404   1.904  14.463  10.227  0.2189 -0.2683  0.1935
   26loPI   GL1  405   1.666  14.067  10.072 -0.1994  0.2048  0.0022
   26loPI   GL2  406   1.733  13.821   9.969  0.0234  0.3792 -0.0794
   26loPI   C1A  407   1.649  14.355   9.633 -0.1487 -0.1672 -0.2093
   26loPI   C2A  408   1.695  14.394   9.239 -0.2232 -0.0794  0.3624
   26loPI   C3A  409   1.636  14.239   8.817  0.1085 -0.1916  0.2227
   26loPI   C4A  410   1.698  14.289   8.361 -0.0903 -0.1812 -0.4004
   26loPI   C5A  411   1.842  14.275   7.992 -0.3260  0.0333  0.0669
   26loPI   C6A  412   2.129  14.260   7.594  0.1058  0.2727  0.0823
   26loPI   C1B  413   1.764  13.863   9.526  0.3068  0.2773  0.1551
   26loPI   C2B  414   1.804  13.837   9.011  0.0233 -0.4177 -0.1477
   26loPI   C3B  415   1.736  13.814   8.618 -0.2001 -0.2712  0.0898
   26loPI   C4B  416   1.664  13.702   8.189  0.0968 -0.5146  0.1152
   27loPI    C1  417   6.872  10.214  10.903 -0.0302  0.1867  0.0913
   27loPI    C2  418   6.805  10.605  10.951 -0.1640  0.1856 -0.0769
   27loPI    C3  419   6.592  10.339  11.159  0.0420  0.2041  0.1620
   27loPI   PO4  420   6.871  10.165  10.558 -0.0781  0.2330  0.0307
   27loPI   GL1  421   6.940  10.205  10.098  0.0077 -0.0485 -0.0931
   27loPI   GL2  422   7.219  10.018   9.994  0.1858  0.2318  0.0120
   27loPI   C1A  423   6.803  10.336   9.726 -0.0631  0.0356 -0.0810
   27loPI   C2A  424   6.779  10.308   9.310  0.2899 -0.1900 -0.1166
   27loPI   C3A  425   6.793  10.323   8.866  0.2586 -0.0551 -0.2326
   27loPI   C4A  426   6.628  10.314   8.434  0.3508 -0.6491  0.1733
   27loPI   C5A  427   6.739   9.991   8.107  0.3173  0.2325  0.1168
   27loPI   C6A  428   6.777   9.730   7.945 -0.0641 -0.0915  0.1994
   27loPI   C1B  429   7.131   9.971   9.590  0.2156  0.0661 -0.2128
   27loPI   C2B  430   7.145   9.944   9.088 -0.2169 -0.0143  0.0133
   27loPI   C3B  431   7.182  10.109   8.794  0.2225  0.0150 -0.1161
   27loPI   C4B  432   7.134  10.161   8.354 -0.0194  0.1614 -0.1671
   28loPI    C1  433  14.976  12.344  10.442 -0.1479  0.0529 -0.0994
   28loPI    C2  434  14.668  12.556  10.584 -0.1114  0.2183 -0.2641
   28loPI    C3  435  14.938  12.404  10.836 -0.1782  0.3056 -0.1387
   28loPI   PO4  436  15.055  12.452  10.241 -0.1071 -0.1818 -0.0139
   28loPI   GL1  437  15.042  12.661   9.750 -0.1623 -0.1240  0.0520
   28loPI   GL2  438  14.869  12.997   9.772  0.1052 -0.3256 -0.0129
   28loPI   C1A  439  15.389  12.714   9.437 -0.2959 -0.2185  0.1467
   28loPI   C2A  440  15.372  12.843   9.057 -0.0887  0.0610  0.2842
   28loPI   C3A  441  15.358  12.922   8.688 -0.2358 -0.0640 -0.2049
   28loPI   C4A  442  15.325  12.856   8.300  0.0551 -0.0302 -0.1888
   28loPI   C5A  443  15.451  12.874   7.907 -0.2121 -0.1924 -0.0600
   28loPI   C6A  444  15.393  12.746   7.520 -0.1067 -0.2212 -0.0895
   28loPI   C1B  445  14.967  13.004   9.328 -0.2594 -0.4054 -0.2155
   28loPI   C2B  446  14.868  13.048   8.878  0.1901 -0.2888  0.1077
   28loPI   C3B  447  14.994  13.128   8.434 -0.1766  0.0700  0.2828
   28loPI   C4B  448  14.979  13.190   7.962 -0.0872  0.1730  0.0909
   29loPI    C1  449   1.737   4.172  10.965  0.1067  0.0447  0.0691
   29loPI    C2  450   1.598   4.055  11.321 -0.2978  0.0736 -0.0741
   29loPI    C3  451   1.679   4.441  11.255  0.1507  0.0169  0.1038
   29loPI   PO4  452   1.810   3.978  10.860  0.2534  0.3074  0.2943
   29loPI   GL1  453   1.935   3.722  10.627  0.4148  0.0345  0.2131
   29loPI   GL2  454   2.164   3.724  10.557  0.0326  0.0778 -0.0659
   29loPI   C1A  455   1.608   3.772  10.300 -0.0207  0.2770  0.0467
   29loPI   C2A  456   1.426   3.737   9.878 -0.2322 -0.1738 -0.2652
   29loPI   C3A  457   1.438   3.756   9.451 -0.0319 -0.0408  0.2846
   29loPI   C4A  458   1.541   3.858   9.002  0.1381  0.1835 -0.2613
   29loPI   C5A  459   1.550   3.776   8.592  0.3106  0.1615  0.0237
   29loPI   C6A  460   1.954   3.721   8.393  0.0297 -0.1161 -0.2244
   29loPI   C1B  461   2.011   3.524  10.209 -0.1539 -0.1130 -0.2130
   29loPI   C2B  462   1.965   3.455   9.742  0.0446 -0.3168 -0.0788
   29loPI   C3B  463   1.862   3.475   9.291  0.0217 -0.1804  0.2644
   29loPI   C4B  464   1.938   3.499   8.963  0.0544 -0.0737  0.0355
   30loPI    C1  465  16.576   8.344  10.600  0.3505  0.0963 -0.0824
   30loPI    C2  466  16.756   8.473  10.933  0.0748  0.0553  0.0859
   30loPI    C3  467  16.499   8.711  10.740  0.0141 -0.0270  0.0652
   30loPI   PO4  468  16.716   8.309  10.374 -0.0361 -0.0889  0.1515
   30loPI   GL1  469  16.921   8.385  10.029  0.2367 -0.3232  0.0445
   30loPI   GL2  470  16.835   8.641   9.913  0.0525 -0.1469  0.0485
   30loPI   C1A  471  16.911   8.100   9.719 -0.0407 -0.1608 -0.0298
   30loPI   C2A  472  16.920   8.057   9.325  0.1408 -0.1234  0.3177
   30loPI   C3A  473  17.044   8.025   8.892 -0.2461  0.0477 -0.2502
   30loPI   C4A  474  17.048   8.184   8.416 -0.1866  0.1011  0.0700
   30loPI   C5A  475  17.095   8.487   8.068  0.2416 -0.2607  0.0028
   30loPI   C6A  476  17.054   8.901   7.876  0.4340 -0.0572 -0.2628
   30loPI   C1B  477  16.965   8.523   9.498  0.2110 -0.1105  0.1770
   30loPI   C2B  478  17.038   8.506   9.007 -0.1285 -0.4673  0.2151
   30loPI   C3B  479  17.155   8.676   8.566 -0.0258 -0.1450  0.0991
   30loPI   C4B  480  17.516   8.691   8.153 -0.2635  0.1131 -0.0447
   31loPI    C1  481  11.620  18.080  10.679  0.0542  0.0949 -0.1705
   31loPI    C2  482  11.903  18.327  10.814  0.0282 -0.0309  0.1218
   31loPI    C3  483  11.966  17.932  10.815  0.0415 -0.0329 -0.2748
   31loPI   PO4  484  11.583  18.167  10.481 -0.1002 -0.2913 -0.0042
   31loPI   GL1  485  11.807  18.172  10.037 -0.1582  0.0213  0.1115
   31loPI   GL2  486  11.858  17.793  10.160  0.0028 -0.2419  0.1058
   31loPI   C1A  487  12.093  18.543   9.840 -0.1219 -0.0087 -0.1047
   31loPI   C2A  488  12.286  18.589   9.455 -0.6069 -0.0011 -0.1043
   31loPI   C3A  489  12.249  18.507   9.138 -0.5340 -0.1091 -0.0401
   31loPI   C4A  490  12.278  18.578   8.761  0.1151  0.1677  0.0010
   31loPI   C5A  491  12.390  18.509   8.377 -0.1699  0.0793  0.0585
   31loPI   C6A  492  12.724  18.697   8.105  0.0013 -0.0899 -0.0526
   31loPI   C1B  493  11.987  17.684   9.758 -0.2715 -0.1918 -0.1538
   31loPI   C2B  494  11.912  17.652   9.330 -0.1767  0.0172  0.2672
   31loPI   C3B  495  11.860  17.698   8.859 -0.1414  0.1604 -0.1991
   31loPI   C4B  496  11.780  17.692   8.391  0.1690  0.0600  0.0500
   32loPI    C1  497  10.781   4.359  10.248  0.1362  0.0065 -0.1662
   32loPI    C2  498  10.472   4.549  10.416  0.0133 -0.3599  0.0349
   32loPI    C3  499  10.846   4.651  10.513 -0.0421  0.0006 -0.1145
   32loPI   PO4  500  10.777   4.337   9.967  0.1736  0.1746 -0.1791
   32loPI   GL1  501  10.587   4.218   9.714  0.3760 -0.0765 -0.1310
   32loPI   GL2  502  10.747   4.009   9.595  0.2193  0.2634 -0.0999
   32loPI   C1A  503  10.495   4.513   9.382 -0.0811  0.0002  0.0233
   32loPI   C2A  504  10.513   4.726   9.026  0.1467 -0.2690 -0.1059
   32loPI   C3A  505  10.603   4.805   8.588 -0.1951 -0.1113  0.0430
   32loPI   C4A  506  10.663   4.803   8.130  0.3220 -0.3902 -0.2303
   32loPI   C5A  507  10.485   4.599   7.763 -0.0039  0.0967  0.2193
   32loPI   C6A  508  10.091   4.424   7.621  0.1224 -0.0333 -0.0446
   32loPI   C1B  509  10.796   3.942   9.161 -0.1307  0.1420 -0.2574
   32loPI   C2B  510  10.971   3.995   8.802 -0.1505 -0.3214  0.0514
   32loPI   C3B  511  10.941   3.939   8.358 -0.0170 -0.1765 -0.1220
   32loPI   C4B  512  11.098   3.728   7.985  0.1650 -0.1797 -0.4927
   33loPI    C1  513   5.413  14.885  10.467  0.0033  0.2765 -0.0766
   33loPI    C2  514   5.483  15.202  10.701  0.2683  0.0967  0.0929
   33loPI    C3  515   5.407  14.845  10.865 -0.2357  0.1098 -0.0948
   33loPI   PO4  516   5.209  14.986  10.313 -0.4360  0.1032 -0.1289
   33loPI   GL1  517   5.350  15.332  10.103  0.0203  0.0750 -0.1358
   33loPI   GL2  518   5.274  15.597  10.027  0.0594 -0.0309  0.1524
   33loPI   C1A  519   5.621  15.290   9.806 -0.0937  0.1434 -0.2154
   33loPI   C2A  520   5.800  15.121   9.404 -0.3898 -0.1721 -0.2700
   33loPI   C3A  521   5.881  15.032   8.984  0.3936  0.0034  0.0674
   33loPI   C4A  522   5.861  15.102   8.559  0.0929 -0.0498 -0.3056
   33loPI   C5A  523   5.893  15.178   8.183 -0.3334  0.1285 -0.0392
   33loPI   C6A  524   5.892  15.416   7.795 -0.0463 -0.1667 -0.0160
   33loPI   C1B  525   5.256  15.535   9.595  0.1232 -0.0658  0.4088
   33loPI   C2B  526   5.260  15.449   9.126 -0.1654 -0.1023  0.0416
   33loPI   C3B  527   5.392  15.341   8.684  0.0586 -0.5733  0.0477
   33loPI   C4B  528   5.354  15.347   8.299  0.0207  0.1611  0.0142
   34loPI    C1  529   0.030   2.191  10.739 -0.0024  0.1825  0.3664
   34loPI    C2  530   0.241   2.067  11.056 -0.0220 -0.2140  0.2300
   34loPI    C3  531  -0.013   1.817  10.873  0.1243 -0.0508 -0.2111
   34loPI   PO4  532  -0.003   2.515  10.847 -0.0805 -0.0406  0.2589
   34loPI   GL1  533   0.045   2.792  10.456 -0.0898  0.1412 -0.0171
   34loPI   GL2  534   0.147   3.100  10.460  0.0557 -0.0665 -0.2296
   34loPI   C1A  535   0.051   2.461  10.122  0.1078 -0.3920 -0.0592
   34loPI   C2A  536   0.077   2.386   9.717 -0.1608  0.0614  0.1674
   34loPI   C3A  537   0.127   2.350   9.240  0.2729  0.0967  0.0515
   34loPI   C4A  538   0.119   2.302   8.865  0.1752 -0.2957 -0.0638
   34loPI   C5A  539   0.267   2.343   8.521  0.1024 -0.1126 -0.1781
   34loPI   C6A  540   0.218   2.558   8.152  0.0687  0.2003 -0.0530
   34loPI   C1B  541   0.106   2.934   9.988 -0.0516 -0.1253 -0.4447
   34loPI   C2B  542   0.046   2.966   9.526  0.1671  0.3130  0.0522
   34loPI   C3B  543   0.135   2.836   9.141 -0.0358  0.1048  0.1265
   34loPI   C4B  544   0.143   2.853   8.642 -0.3585 -0.0928 -0.1604
   35loPI    C1  545   9.840   7.297  10.505  0.0996  0.1007 -0.0568
   35loPI    C2  546   9.630   7.630  10.577 -0.0896 -0.0115 -0.0831
   35loPI    C3  547   9.866   7.477  10.862  0.0121  0.1545 -0.0772
   35loPI   PO4  548   9.709   7.288  10.230  0.0051  0.1716  0.1481
   35loPI   GL1  549   9.678   7.340   9.881  0.1518  0.1731 -0.0454
   35loPI   GL2  550   9.415   7.660   9.970  0.0484 -0.1280 -0.2394
   35loPI   C1A  551   9.478   7.296   9.465  0.1357  0.3332 -0.1331
   35loPI   C2A  552   9.341   7.291   9.002 -0.1154 -0.1215 -0.1091
   35loPI   C3A  553   9.400   7.095   8.657 -0.3434 -0.2792  0.1349
   35loPI   C4A  554   9.473   7.138   8.215 -0.2002 -0.2380 -0.0854
   35loPI   C5A  555   9.437   7.306   7.875 -0.1275  0.0354 -0.0891
   35loPI   C6A  556   9.176   7.576   7.727  0.3709  0.0419 -0.2544
   35loPI   C1B  557   9.070   7.570   9.695  0.0268 -0.0188 -0.0307
   35loPI   C2B  558   8.996   7.483   9.305 -0.3489 -0.3329  0.0914
   35loPI   C3B  559   8.857   7.661   8.901  0.1899 -0.0817  0.1968
   35loPI   C4B  560   9.013   7.403   8.570 -0.1153  0.0421  0.2426
   36loPI    C1  561   9.034  16.871  10.557 -0.1517  0.0262 -0.0694
   36loPI    C2  562   8.956  16.952  10.941  0.1157 -0.0198 -0.0037
   36loPI    C3  563   9.286  17.099  10.768  0.1367 -0.2222 -0.1382
   36loPI   PO4  564   8.853  16.983  10.376 -0.0995 -0.3350  0.1119
   36loPI   GL1  565   8.764  16.958   9.891  0.1601 -0.1538  0.3088
   36loPI   GL2  566   8.501  16.932   9.750  0.0463 -0.0821 -0.5988
   36loPI   C1A  567   8.870  17.084   9.471  0.0344  0.1393 -0.3461
   36loPI   C2A  568   9.159  17.109   9.169  0.1056  0.0488  0.0049
   36loPI   C3A  569   9.108  17.142   8.804  0.1868 -0.0633 -0.0177
   36loPI   C4A  570   9.019  17.184   8.385  0.2164  0.0770  0.3900
   36loPI   C5A  571   8.937  17.203   8.052  0.0268  0.4194 -0.2022
   36loPI   C6A  572   8.587  17.483   7.872 -0.0415 -0.0331 -0.1673
   36loPI   C1B  573   8.480  16.834   9.322  0.0800  0.0595 -0.1287
   36loPI   C2B  574   8.586  16.838   8.927 -0.1618 -0.3595 -0.1824
   36loPI   C3B  575   8.616  16.923   8.512 -0.1174 -0.0278  0.0849
   36loPI   C4B  576   8.811  16.694   8.121 -0.0885 -0.2792  0.2255
   37loPI    C1  577   4.169   0.319  10.429 -0.1297 -0.0116  0.0094
   37loPI    C2  578   4.146   0.217  10.816  0.0441 -0.0349  0.0142
   37loPI    C3  579   4.451   0.442  10.685  0.0280 -0.0922 -0.1240
   37loPI   PO4  580   3.886   0.330  10.331  0.1581 -0.2025 -0.0163
   37loPI   GL1  581   3.584   0.240  10.097 -0.1354 -0.2371 -0.1041
   37loPI   GL2  582   3.700  -0.073  10.006  0.1418 -0.2927  0.3310
   37loPI   C1A  583   3.438   0.272   9.700  0.1225 -0.0123 -0.0937
   37loPI   C2A  584   3.515   0.204   9.287  0.2005 -0.1026 -0.0645
   37loPI   C3A  585   3.526   0.263   8.874  0.2002  0.1493 -0.2971
   37loPI   C4A  586   3.624   0.364   8.508  0.0606 -0.2914 -0.0938
   37loPI   C5A  587   3.500   0.268   8.130 -0.3694  0.1046  0.3505
   37loPI   C6A  588   3.311   0.114   7.787  0.3197  0.1270 -0.0198
   37loPI   C1B  589   3.859   0.063   9.573  0.1259 -0.1340 -0.3832
   37loPI   C2B  590   3.976   0.123   9.085  0.0455 -0.2628  0.0836
   37loPI   C3B  591   3.826  -0.093   8.700  0.0267  0.0946 -0.1090
   37loPI   C4B  592   4.008  -0.053   8.332 -0.1537 -0.0025  0.1277
   38loPI    C1  593   6.312  11.451  10.487 -0.0759  0.1103 -0.0725
   38loPI    C2  594   6.008  11.285  10.687  0.2629 -0.2977  0.1194
   38loPI    C3  595   6.302  11.468  10.887  0.0210  0.3315 -0.0781
   38loPI   PO4  596   6.221  11.428  10.277 -0.2032  0.2762  0.2861
   38loPI   GL1  597   6.167  11.495   9.876 -0.0506 -0.0720  0.1000
   38loPI   GL2  598   5.814  11.415   9.676  0.3310  0.3168 -0.0285
   38loPI   C1A  599   6.217  11.630   9.407  0.0793  0.0343 -0.2376
   38loPI   C2A  600   6.244  11.637   9.004  0.4497  0.3061  0.1178
   38loPI   C3A  601   6.164  11.741   8.570 -0.0746 -0.2976  0.1692
   38loPI   C4A  602   6.182  11.749   8.108  0.0476 -0.0699 -0.0336
   38loPI   C5A  603   5.786  11.464   7.990  0.1922 -0.1858 -0.1779
   38loPI   C6A  604   5.351  11.504   8.002  0.2517 -0.1144  0.2684
   38loPI   C1B  605   5.849  11.372   9.213 -0.0838  0.1054 -0.0224
   38loPI   C2B  606   5.805  11.287   8.864 -0.2893 -0.2035  0.1285
   38loPI   C3B  607   5.669  11.430   8.466  0.2082  0.4266  0.0152
   38loPI   C4B  608   5.299  11.662   8.487  0.0336 -0.1263  0.1671
   39loPI    C1  609   7.565   2.192   9.999  0.1000  0.0608  0.1093
   39loPI    C2  610   7.212   2.255  10.177  0.0611  0.2244 -0.0234
   39loPI    C3  611   7.360   1.884  10.152 -0.0434  0.1705  0.1402
   39loPI   PO4  612   7.582   2.197   9.726 -0.1578 -0.0581 -0.0682
   39loPI   GL1  613   7.457   2.086   9.338  0.0420  0.2931 -0.2388
   39loPI   GL2  614   7.189   2.216   9.208  0.0960  0.1683  0.0333
   39loPI   C1A  615   7.379   1.753   9.014 -0.2276 -0.0234  0.0507
   39loPI   C2A  616   7.253   1.800   8.661  0.1808  0.0449  0.1568
   39loPI   C3A  617   7.089   1.559   8.365  0.0459  0.1834  0.1964
   39loPI   C4A  618   6.938   1.308   7.901  0.2601 -0.1217 -0.4013
   39loPI   C5A  619   6.698   0.915   7.762 -0.1099  0.0016 -0.1690
   39loPI   C6A  620   6.347   0.716   7.736 -0.0233  0.2643  0.0765
   39loPI   C1B  621   7.125   2.230   8.819  0.0154 -0.4696  0.0646
   39loPI   C2B  622   6.966   2.096   8.394  0.0330 -0.3939 -0.1935
   39loPI   C3B  623   6.858   1.904   8.103  0.0840  0.0673 -0.0314
   39loPI   C4B  624   6.705   1.818   7.729 -0.0680 -0.1684  0.3088
   40loPI    C1  625  12.173  14.651  10.742  0.2860  0.0742 -0.0933
   40loPI    C2  626  12.150  14.622  11.140  0.1014 -0.2886 -0.1263
   40loPI    C3  627  12.342  14.341  10.930  0.2217 -0.0843 -0.2932
   40loPI   PO4  628  12.211  14.944  10.737 -0.0699  0.0098 -0.0637
   40loPI   GL1  629  12.200  15.334  10.360  0.1089  0.0147 -0.1432
   40loPI   GL2  630  12.010  15.645  10.354  0.2788  0.1219 -0.3023
   40loPI   C1A  631  12.106  15.148  10.035  0.1644 -0.1363 -0.1165
   40loPI   C2A  632  12.200  15.198   9.589  0.0351  0.0436  0.0266
   40loPI   C3A  633  12.179  15.211   9.082 -0.1554 -0.1382 -0.0276
   40loPI   C4A  634  12.231  15.280   8.597 -0.0809  0.0691 -0.0943
   40loPI   C5A  635  12.296  15.421   8.154  0.2225 -0.0948 -0.0184
   40loPI   C6A  636  12.722  15.357   7.941  0.3300  0.2149  0.1236
   40loPI   C1B  637  12.165  15.726   9.904  0.0091 -0.2285 -0.0773
   40loPI   C2B  638  12.147  15.710   9.446 -0.0716  0.1053 -0.2124
   40loPI   C3B  639  12.235  15.762   8.983  0.0959 -0.0805  0.0247
   40loPI   C4B  640  12.287  15.799   8.563 -0.0874 -0.0276 -0.1807
   41loPI    C1  641   4.466   3.358  10.662 -0.2267 -0.0134  0.0689
   41loPI    C2  642   4.711   3.547  10.916 -0.0778 -0.0914 -0.0155
   41loPI    C3  643   4.489   3.758  10.659 -0.0165 -0.0246 -0.0143
   41loPI   PO4  644   4.646   3.219  10.536 -0.1270 -0.0855 -0.0557
   41loPI   GL1  645   4.801   3.199  10.203  0.1090  0.0073 -0.2795
   41loPI   GL2  646   4.870   2.891  10.115  0.1915  0.2529 -0.0649
   41loPI   C1A  647   4.854   3.344   9.717 -0.2582 -0.1300 -0.2189
   41loPI   C2A  648   4.872   3.393   9.211  0.1052  0.1112 -0.1536
   41loPI   C3A  649   4.852   3.559   8.825 -0.2255 -0.3170 -0.0858
   41loPI   C4A  650   4.766   3.541   8.324  0.2315  0.2187  0.2829
   41loPI   C5A  651   4.819   3.415   7.862 -0.1420 -0.0423 -0.3537
   41loPI   C6A  652   4.741   3.310   7.463 -0.2472 -0.0815 -0.1694
   41loPI   C1B  653   4.941   2.853   9.661 -0.0976 -0.1291  0.0385
   41loPI   C2B  654   4.912   2.836   9.237 -0.0577  0.4050  0.2813
   41loPI   C3B  655   4.804   2.953   8.895  0.0453 -0.3318 -0.2228
   41loPI   C4B  656   4.955   3.103   8.495  0.2243 -0.0581  0.1365
   42loPI    C1  657   1.957   4.841  11.061 -0.0041  0.2943  0.3374
   42loPI    C2  658   2.176   4.609  11.302 -0.2784 -0.0989  0.2168
   42loPI    C3  659   1.947   4.898  11.457 -0.1572 -0.0968  0.3942
   42loPI   PO4  660   2.158   4.927  10.822  0.0591 -0.1780  0.0681
   42loPI   GL1  661   2.074   4.779  10.537 -0.0630 -0.2944  0.0016
   42loPI   GL2  662   1.876   4.830  10.358 -0.1352  0.0059  0.0763
   42loPI   C1A  663   2.329   4.866  10.230 -0.0443 -0.0775  0.0667
   42loPI   C2A  664   2.442   4.824   9.780  0.3251  0.3659 -0.2270
   42loPI   C3A  665   2.397   4.773   9.355  0.1290  0.1244  0.0797
   42loPI   C4A  666   2.602   4.818   9.025 -0.0334  0.1781 -0.0399
   42loPI   C5A  667   2.745   4.885   8.474 -0.1119  0.1482  0.1329
   42loPI   C6A  668   2.412   4.652   8.183 -0.1314  0.4139  0.0542
   42loPI   C1B  669   1.975   4.528  10.025  0.0405 -0.0361 -0.0293
   42loPI   C2B  670   1.978   4.596   9.615 -0.0253  0.0031  0.1335
   42loPI   C3B  671   1.902   4.584   9.103  0.0956  0.0117  0.0563
   42loPI   C4B  672   2.152   4.508   8.715 -0.0883 -0.2405  0.3771
   43loPI    C1  673   0.429   1.453  11.152 -0.3618  0.0458  0.0088
   43loPI    C2  674   0.412   1.743  11.427  0.1491  0.0783  0.0166
   43loPI    C3  675   0.661   1.434  11.478 -0.0012 -0.0907 -0.2487
   43loPI   PO4  676   0.430   1.590  10.923 -0.1299  0.1765 -0.2367
   43loPI   GL1  677   0.433   1.886  10.560 -0.2393  0.2692  0.2461
   43loPI   GL2  678   0.661   1.734  10.482 -0.0301  0.1156  0.2310
   43loPI   C1A  679   0.063   1.945  10.328 -0.2767  0.1184  0.1346
   43loPI   C2A  680   0.099   1.919   9.901  0.2146 -0.2154 -0.1023
   43loPI   C3A  681   0.070   1.877   9.480  0.0875  0.1040 -0.0754
   43loPI   C4A  682   0.069   1.778   9.076  0.0959  0.1258  0.0640
   43loPI   C5A  683   0.022   1.854   8.554  0.1666 -0.1825 -0.0505
   43loPI   C6A  684   0.079   1.907   8.084 -0.2236 -0.1029 -0.0478
   43loPI   C1B  685   0.519   1.724  10.008 -0.1406  0.2602  0.0238
   43loPI   C2B  686   0.483   1.616   9.522  0.0960 -0.0329 -0.3947
   43loPI   C3B  687   0.576   1.572   9.119  0.0480  0.1432 -0.2010
   43loPI   C4B  688   0.472   1.524   8.775 -0.0100  0.0317  0.1182
   44loPI    C1  689  10.385  13.135  10.410 -0.1804 -0.0451  0.1335
   44loPI    C2  690  10.452  13.003  10.781  0.1606 -0.0231  0.0836
   44loPI    C3  691  10.297  13.368  10.723  0.4650  0.1281  0.1999
   44loPI   PO4  692  10.218  12.901  10.302  0.1698 -0.2471 -0.3524
   44loPI   GL1  693   9.945  12.833   9.922  0.1097  0.1355  0.1250
   44loPI   GL2  694   9.551  12.874   9.853  0.0093  0.1374  0.2452
   44loPI   C1A  695   9.942  12.611   9.547  0.2579 -0.0216  0.1107
   44loPI   C2A  696   9.914  12.644   9.124  0.0462 -0.3367  0.0211
   44loPI   C3A  697   9.850  12.866   8.708  0.0133 -0.0165  0.3570
   44loPI   C4A  698   9.849  13.083   8.320 -0.1348  0.0147 -0.0432
   44loPI   C5A  699   9.806  12.952   7.869 -0.2241 -0.2066  0.0880
   44loPI   C6A  700   9.815  12.956   7.475  0.0868 -0.0803  0.1263
   44loPI   C1B  701   9.540  12.821   9.394 -0.2525 -0.1696  0.2471
   44loPI   C2B  702   9.403  12.971   9.010 -0.0413  0.1701  0.0065
   44loPI   C3B  703   9.414  13.125   8.576  0.1133  0.3933  0.1645
   44loPI   C4B  704   9.386  13.332   8.246 -0.0776  0.1135  0.2723
   45loPI    C1  705   8.757  16.343  10.821 -0.0954 -0.1017  0.1487
   45loPI    C2  706   9.054  16.164  11.020  0.0721  0.0561  0.0451
   45loPI    C3  707   8.885  16.495  11.168  0.0255  0.0317  0.0469
   45loPI   PO4  708   8.794  16.431  10.538 -0.1472 -0.0358  0.2563
   45loPI   GL1  709   8.923  16.377  10.108  0.1376 -0.3622  0.0370
   45loPI   GL2  710   8.979  16.196  10.006  0.2538 -0.0985  0.0442
   45loPI   C1A  711   8.598  16.422   9.774  0.2211  0.1567  0.2311
   45loPI   C2A  712   8.496  16.343   9.402  0.2383  0.1259  0.0771
   45loPI   C3A  713   8.511  16.238   9.082  0.3174  0.0516  0.0331
   45loPI   C4A  714   8.643  16.381   8.641 -0.3217 -0.1379  0.1677
   45loPI   C5A  715   8.628  16.237   8.153  0.0763 -0.1860  0.2326
   45loPI   C6A  716   8.909  15.911   7.893  0.0819  0.3370  0.1944
   45loPI   C1B  717   8.975  16.129   9.565  0.1895 -0.0737 -0.1287
   45loPI   C2B  718   8.942  16.022   9.144 -0.2895  0.0590 -0.0422
   45loPI   C3B  719   9.106  16.060   8.806  0.4545 -0.1320  0.1217
   45loPI   C4B  720   9.060  15.983   8.453  0.0765  0.0701 -0.0955
   46loPI    C1  721   1.683   9.020  10.671  0.0445 -0.0678  0.0897
   46loPI    C2  722   1.474   8.914  10.995  0.0596 -0.0698  0.0987
   46loPI    C3  723   1.531   9.301  10.911  0.0458 -0.0691  0.0920
   46loPI   PO4  724   1.613   9.032  10.395  0.0095  0.1157  0.0640
   46loPI   GL1  725   1.524   9.066   9.998 -0.1447  0.1454  0.1978
   46loPI   GL2  726   1.525   9.363  10.006 -0.2002  0.2615 -0.1200
   46loPI   C1A  727   1.637   9.065   9.564 -0.0199  0.1492  0.0967
   46loPI   C2A  728   1.580   9.167   9.155  0.0802  0.0150 -0.2648
   46loPI   C3A  729   1.725   8.981   8.735 -0.1131  0.0101 -0.2287
   46loPI   C4A  730   1.601   8.687   8.441 -0.0917 -0.3558  0.0073
   46loPI   C5A  731   1.772   8.605   8.043  0.0768 -0.1511 -0.0377
   46loPI   C6A  732   1.677   8.426   7.611 -0.1795  0.0780  0.1797
   46loPI   C1B  733   1.511   9.603   9.697 -0.1859 -0.0555 -0.0397
   46loPI   C2B  734   1.626   9.644   9.318 -0.3026  0.1265  0.4733
   46loPI   C3B  735   1.631   9.634   8.818 -0.3721  0.2016  0.2468
   46loPI   C4B  736   1.416   9.631   8.441 -0.0274  0.0302  0.1787
   47loPI    C1  737  10.513  10.930  10.130  0.1396 -0.0666 -0.1256
   47loPI    C2  738  10.365  11.097  10.463 -0.2589  0.0638 -0.3613
   47loPI    C3  739  10.699  10.878  10.480 -0.1151  0.3064  0.0729
   47loPI   PO4  740  10.311  10.823  10.009  0.2486  0.3293 -0.2129
   47loPI   GL1  741  10.112  11.092   9.744 -0.0405 -0.0531  0.1021
   47loPI   GL2  742   9.798  11.342   9.800 -0.1718 -0.0226  0.0463
   47loPI   C1A  743  10.156  11.124   9.317 -0.2053  0.1021 -0.0132
   47loPI   C2A  744  10.093  11.210   8.880 -0.2036  0.0796 -0.0837
   47loPI   C3A  745  10.053  11.152   8.463  0.0858 -0.1031 -0.1165
   47loPI   C4A  746   9.789  11.223   8.069  0.1049 -0.1088 -0.0567
   47loPI   C5A  747   9.345  11.239   7.948 -0.1630 -0.1578 -0.0226
   47loPI   C6A  748   8.844  11.158   8.055 -0.5685 -0.2833  0.0147
   47loPI   C1B  749   9.771  11.623   9.523  0.0723 -0.0346  0.0604
   47loPI   C2B  750   9.828  11.520   9.164  0.0585 -0.0221  0.3294
   47loPI   C3B  751   9.924  11.697   8.762 -0.1459 -0.2885  0.1213
   47loPI   C4B  752  10.052  11.702   8.375 -0.0176  0.2194  0.2556
   48loPI    C1  753  15.705   6.387  10.720 -0.0653 -0.1358 -0.0610
   48loPI    C2  754  15.835   6.560  11.057  0.0569 -0.1125 -0.1199
   48loPI    C3  755  15.566   6.264  11.075 -0.0926  0.0283 -0.0140
   48loPI   PO4  756  15.865   6.451  10.553  0.0434 -0.1244 -0.0906
   48loPI   GL1  757  15.926   6.433  10.142 -0.1444  0.0661  0.2113
   48loPI   GL2  758  15.733   6.774  10.193  0.3976  0.0848  0.2135
   48loPI   C1A  759  15.850   6.352   9.826 -0.0999 -0.0954  0.1688
   48loPI   C2A  760  16.016   6.454   9.499  0.0866  0.2594  0.3430
   48loPI   C3A  761  16.104   6.501   9.029  0.2532 -0.2153 -0.0083
   48loPI   C4A  762  16.236   6.351   8.647  0.2436 -0.3374 -0.1114
   48loPI   C5A  763  16.178   6.651   8.316  0.3055  0.1654  0.2581
   48loPI   C6A  764  16.288   6.922   8.088  0.1564  0.0604 -0.0354
   48loPI   C1B  765  15.525   6.818   9.858  0.1821  0.4472  0.2145
   48loPI   C2B  766  15.650   6.767   9.397 -0.3086 -0.2184 -0.0192
   48loPI   C3B  767  15.595   6.747   8.978 -0.2207  0.3312 -0.1278
   48loPI   C4B  768  15.724   6.775   8.478  0.0001  0.4836  0.0464
   49loPI    C1  769  18.186  15.749  10.838 -0.0459 -0.3176 -0.0919
   49loPI    C2  770  17.889  16.009  10.901  0.2291 -0.0696  0.2184
   49loPI    C3  771  17.846  15.626  11.010 -0.0625 -0.0905  0.0414
   49loPI   PO4  772  18.251  15.843  10.574 -0.0260 -0.1749 -0.0429
   49loPI   GL1  773  18.502  16.064  10.247 -0.2571 -0.2811  0.0314
   49loPI   GL2  774  18.724  15.719  10.173  0.1680 -0.3867  0.1346
   49loPI   C1A  775  18.570  16.321   9.956  0.1181  0.0556  0.3515
   49loPI   C2A  776  18.580  16.316   9.531 -0.1542 -0.1813 -0.0275
   49loPI   C3A  777  18.589  16.193   9.045  0.0725 -0.2141  0.2039
   49loPI   C4A  778  18.550  16.196   8.607  0.0257  0.0780 -0.5344
   49loPI   C5A  779  18.694  16.164   8.213  0.0654  0.0008 -0.0573
   49loPI   C6A  780  18.750  15.849   7.907 -0.0084  0.1736  0.4280
   49loPI   C1B  781  18.534  15.678   9.736 -0.0245 -0.0255 -0.0039
   49loPI   C2B  782  18.545  15.693   9.272  0.1567  0.0092  0.4000
   49loPI   C3B  783  18.655  15.714   8.815 -0.0710  0.1066 -0.0630
   49loPI   C4B  784  18.538  15.635   8.317 -0.0718 -0.1237  0.0296
   50loPI    C1  785  16.798  16.420  10.667 -0.0692 -0.0139 -0.1350
   50loPI    C2  786  17.050  16.535  10.957  0.0078 -0.1269 -0.1565
   50loPI    C3  787  16.802  16.227  11.017  0.0288 -0.1552 -0.2130
   50loPI   PO4  788  16.694  16.628  10.432  0.1678 -0.2360  0.1470
   50loPI   GL1  789  16.365  16.689  10.154  0.1183  0.2117  0.0871
   50loPI   GL2  790  16.442  16.444  10.078  0.0109 -0.1870  0.1902
   50loPI   C1A  791  16.367  16.926   9.802 -0.1573  0.3999  0.1413
   50loPI   C2A  792  16.315  17.155   9.360  0.0173 -0.2146 -0.0467
   50loPI   C3A  793  16.368  16.996   8.843 -0.2606 -0.0060 -0.0063
   50loPI   C4A  794  16.242  16.916   8.292 -0.0591  0.0208 -0.2452
   50loPI   C5A  795  16.132  16.560   7.983 -0.2879  0.1926  0.0477
   50loPI   C6A  796  15.866  16.236   7.842 -0.1454  0.1371  0.1333
   50loPI   C1B  797  16.259  16.398   9.641  0.5453 -0.0435  0.0369
   50loPI   C2B  798  16.357  16.441   9.134 -0.0411  0.0452 -0.1793
   50loPI   C3B  799  16.442  16.544   8.583 -0.1837 -0.0486  0.0214
   50loPI   C4B  800  16.400  16.244   8.180 -0.0914  0.3229  0.0764
   51loPI    C1  801   5.516   2.553  10.239 -0.1153  0.0019  0.1000
   51loPI    C2  802   5.220   2.632  10.496  0.0505 -0.2171  0.3643
   51loPI    C3  803   5.598   2.719  10.594  0.0864 -0.0235  0.0667
   51loPI   PO4  804   5.507   2.359  10.154  0.0421  0.0458  0.1322
   51loPI   GL1  805   5.539   2.547   9.729 -0.2294  0.1332  0.0065
   51loPI   GL2  806   5.179   2.498   9.840 -0.0636 -0.0248  0.3775
   51loPI   C1A  807   5.433   2.600   9.339 -0.3598  0.0805  0.2277
   51loPI   C2A  808   5.347   2.689   9.028  0.0370 -0.0936  0.2288
   51loPI   C3A  809   5.264   2.725   8.570  0.0269  0.1707 -0.0273
   51loPI   C4A  810   5.153   2.503   8.205 -0.0641  0.5612 -0.1889
   51loPI   C5A  811   5.071   2.432   7.872  0.2840 -0.4775  0.1581
   51loPI   C6A  812   4.835   2.301   7.470 -0.2200  0.2113 -0.0035
   51loPI   C1B  813   5.005   2.402   9.441  0.3167  0.1297  0.0441
   51loPI   C2B  814   4.899   2.299   9.028 -0.1233  0.0913  0.0436
   51loPI   C3B  815   4.854   2.526   8.724  0.0325 -0.0839  0.4170
   51loPI   C4B  816   4.667   2.703   8.417 -0.1528 -0.1462 -0.0749
   52loPI    C1  817   5.393  10.727  10.775  0.0515 -0.0351  0.1287
   52loPI    C2  818   5.771  10.857  10.762  0.0877 -0.1277  0.2420
   52loPI    C3  819   5.495  11.063  10.966  0.1026 -0.1236  0.2579
   52loPI   PO4  820   5.313  10.698  10.521 -0.0591  0.1959  0.3051
   52loPI   GL1  821   5.391  10.546  10.136  0.0433 -0.0048  0.0702
   52loPI   GL2  822   5.256  10.271  10.100  0.0807 -0.1007 -0.3193
   52loPI   C1A  823   5.517  10.573   9.761  0.2230 -0.0947 -0.3063
   52loPI   C2A  824   5.280  10.655   9.435  0.3085 -0.1553 -0.3149
   52loPI   C3A  825   5.354  10.664   9.002  0.0668 -0.0928 -0.0457
   52loPI   C4A  826   5.342  10.593   8.594  0.3876  0.1787  0.0936
   52loPI   C5A  827   5.523  10.520   8.129  0.3573  0.1776 -0.0175
   52loPI   C6A  828   5.563  10.137   7.948 -0.4321 -0.2047 -0.0740
   52loPI   C1B  829   5.244  10.194   9.667  0.0184 -0.1182 -0.3326
   52loPI   C2B  830   5.316  10.202   9.293  0.0078 -0.2289 -0.2775
   52loPI   C3B  831   5.337  10.114   8.885 -0.0812 -0.1479  0.0814
   52loPI   C4B  832   5.306  10.059   8.451  0.0211  0.3178 -0.1515
   53loPI    C1  833  13.212   4.196  10.370 -0.0407 -0.2196 -0.1854
   53loPI    C2  834  13.147   4.000  10.713  0.1244  0.2344  0.1154
   53loPI    C3  835  12.865   4.242  10.564  0.0881  0.1075 -0.0241
   53loPI   PO4  836  13.405   4.231  10.267 -0.0889 -0.2362  0.1042
   53loPI   GL1  837  13.751   4.097   9.981  0.0720 -0.0262  0.2516
   53loPI   GL2  838  13.771   3.841  10.194  0.2097 -0.0832  0.2089
   53loPI   C1A  839  13.764   4.187   9.525  0.1644 -0.1235  0.0624
   53loPI   C2A  840  13.770   4.104   9.083 -0.0806  0.0644  0.0450
   53loPI   C3A  841  13.869   4.083   8.620  0.1347 -0.1144  0.1669
   53loPI   C4A  842  14.154   3.966   8.297  0.1092  0.3640  0.0078
   53loPI   C5A  843  14.524   3.604   8.211 -0.0082  0.0201 -0.2587
   53loPI   C6A  844  14.887   3.318   8.251  0.1435  0.2649  0.3007
   53loPI   C1B  845  13.677   3.672   9.711 -0.2949  0.2424  0.1185
   53loPI   C2B  846  13.667   3.579   9.315 -0.0066  0.2263  0.3470
   53loPI   C3B  847  13.750   3.619   8.921  0.2648  0.2405 -0.1405
   53loPI   C4B  848  13.876   3.589   8.560  0.1038 -0.0730  0.2814
   54loPI    C1  849   7.024   1.531  10.002 -0.0222 -0.0323 -0.0826
   54loPI    C2  850   6.789   1.432  10.309 -0.0130  0.2611  0.0224
   54loPI    C3  851   6.969   1.146  10.095 -0.4321  0.0330 -0.0370
   54loPI   PO4  852   6.889   1.730   9.832  0.0092 -0.3480  0.0922
   54loPI   GL1  853   6.782   1.909   9.425 -0.0777 -0.0061  0.0772
   54loPI   GL2  854   6.525   1.683   9.525  0.1235  0.1860  0.0693
   54loPI   C1A  855   6.806   1.783   9.035  0.1293 -0.1134  0.1955
   54loPI   C2A  856   6.559   1.880   8.641 -0.2013 -0.0927  0.0604
   54loPI   C3A  857   6.367   1.920   8.229 -0.1449  0.1442 -0.1323
   54loPI   C4A  858   6.212   1.933   7.830  0.0561  0.2495 -0.2420
   54loPI   C5A  859   5.802   1.760   7.702  0.1186 -0.0140  0.2231
   54loPI   C6A  860   5.359   1.743   7.608  0.2548  0.0122 -0.2716
   54loPI   C1B  861   6.351   1.786   9.201 -0.0683  0.0737  0.0476
   54loPI   C2B  862   6.111   1.972   8.878  0.2811  0.2843 -0.0836
   54loPI   C3B  863   5.864   2.012   8.428 -0.2934 -0.1098  0.0329
   54loPI   C4B  864   5.706   1.983   8.081  0.1526  0.2275 -0.1814
   55loPI    C1  865   7.791   8.920  10.952 -0.2151 -0.0835 -0.1798
   55loPI    C2  866   7.441   8.931  11.144 -0.0469  0.1510  0.1225
   55loPI    C3  867   7.780   9.008  11.342  0.1826 -0.1209 -0.1557
   55loPI   PO4  868   7.753   9.121  10.713  0.1047 -0.3038  0.3057
   55loPI   GL1  869   7.478   9.115  10.329  0.0040  0.0370 -0.0145
   55loPI   GL2  870   7.585   9.201  10.124 -0.2024 -0.0278 -0.0125
   55loPI   C1A  871   7.225   8.923   9.988  0.2548  0.0218 -0.2243
   55loPI   C2A  872   7.214   8.910   9.579  0.0582 -0.4006 -0.1279
   55loPI   C3A  873   7.132   8.997   9.176  0.4992  0.4396  0.1056
   55loPI   C4A  874   7.147   8.972   8.715 -0.0435 -0.3421  0.5871
   55loPI   C5A  875   7.248   9.014   8.295 -0.0683 -0.2496  0.0182
   55loPI   C6A  876   7.146   8.894   7.826  0.0089 -0.0715  0.1016
   55loPI   C1B  877   7.632   9.243   9.709 -0.2489  0.1975 -0.0033
   55loPI   C2B  878   7.594   9.237   9.218 -0.1692 -0.1317 -0.0523
   55loPI   C3B  879   7.587   9.276   8.785  0.0453 -0.5985 -0.0915
   55loPI   C4B  880   7.634   9.420   8.389 -0.0140 -0.2947 -0.0397
   56loPI    C1  881  12.987  10.270   9.768  0.1222  0.3222  0.0392
   56loPI    C2  882  12.796  10.530   9.530 -0.2301  0.0294 -0.0068
   56loPI    C3  883  12.729  10.533   9.924 -0.0908  0.1302  0.0167
   56loPI   PO4  884  13.009   9.981   9.596 -0.3703  0.2442 -0.0227
   56loPI   GL1  885  13.145   9.817   9.274  0.0233  0.0233  0.5657
   56loPI   GL2  886  13.377   9.768   9.176 -0.1628  0.0613  0.2699
   56loPI   C1A  887  12.981   9.889   8.853 -0.1061  0.0407  0.0850
   56loPI   C2A  888  13.010   9.970   8.441  0.1536  0.1532 -0.2281
   56loPI   C3A  889  12.743   9.858   8.049 -0.2735  0.1055  0.1969
   56loPI   C4A  890  12.446   9.654   7.772  0.1796 -0.3566 -0.1681
   56loPI   C5A  891  12.226   9.774   7.440 -0.0242  0.1654 -0.1992
   56loPI   C6A  892  12.329   9.778   7.044  0.1109  0.2737  0.0086
   56loPI   C1B  893  13.484   9.774   8.754 -0.1811  0.3171  0.2256
   56loPI   C2B  894  13.749   9.575   8.556 -0.3947 -0.0468  0.2296
   56loPI   C3B  895  13.789   9.148   8.472  0.1479  0.1085  0.2104
   56loPI   C4B  896  13.880   8.720   8.593  0.1003 -0.1673  0.0401
   57loPI    C1  897  10.975   3.448  10.207  0.0702  0.0692  0.0737
   57loPI    C2  898  10.997   3.220  10.535 -0.0143 -0.0364  0.0065
   57loPI    C3  899  10.647   3.380  10.426  0.0390  0.1024  0.0374
   57loPI   PO4  900  11.081   3.367   9.999  0.1805 -0.0946 -0.1481
   57loPI   GL1  901  11.432   3.394   9.806  0.1693 -0.1010  0.1289
   57loPI   GL2  902  11.586   3.718   9.820 -0.2932  0.2473  0.0640
   57loPI   C1A  903  11.535   3.207   9.421 -0.0405  0.1282  0.0604
   57loPI   C2A  904  11.510   3.174   9.043  0.0971  0.0859 -0.0857
   57loPI   C3A  905  11.458   3.065   8.594 -0.0677 -0.2445  0.1010
   57loPI   C4A  906  11.402   3.218   8.206  0.0513 -0.3299  0.1867
   57loPI   C5A  907  11.387   3.244   7.776 -0.0661  0.0078 -0.2024
   57loPI   C6A  908  11.701   3.213   7.389 -0.1310  0.1248  0.1263
   57loPI   C1B  909  11.400   3.699   9.389  0.1928  0.1953 -0.2738
   57loPI   C2B  910  11.357   3.714   8.982  0.3543 -0.1042 -0.1180
   57loPI   C3B  911  11.446   3.626   8.552 -0.1451  0.1089  0.3928
   57loPI   C4B  912  11.588   3.699   8.140 -0.0178  0.1990  0.1620
   58loPI    C1  913  11.011   1.219  10.763 -0.1184 -0.2040  0.0257
   58loPI    C2  914  11.254   1.536  10.784 -0.1812 -0.1437 -0.1402
   58loPI    C3  915  11.056   1.414  11.109 -0.0637 -0.0874 -0.0466
   58loPI   PO4  916  11.214   1.107  10.518 -0.1038  0.4201 -0.0083
   58loPI   GL1  917  11.330   1.198  10.011  0.2658  0.0171  0.3046
   58loPI   GL2  918  11.261   1.452   9.872  0.2174 -0.2661 -0.0537
   58loPI   C1A  919  11.641   1.140   9.729 -0.0700  0.4411  0.3672
   58loPI   C2A  920  11.832   1.109   9.306 -0.1441 -0.1995  0.2137
   58loPI   C3A  921  11.878   1.072   8.775 -0.1730 -0.1010  0.2391
   58loPI   C4A  922  11.935   1.115   8.316  0.0822 -0.1188  0.2481
   58loPI   C5A  923  11.975   1.249   7.915 -0.0968 -0.1863 -0.1013
   58loPI   C6A  924  11.724   1.318   7.499  0.0558 -0.0718  0.3059
   58loPI   C1B  925  11.377   1.415   9.450  0.2281  0.0751 -0.1867
   58loPI   C2B  926  11.443   1.294   9.027  0.0965 -0.3417  0.3350
   58loPI   C3B  927  11.407   1.350   8.554  0.1350 -0.0311 -0.3246
   58loPI   C4B  928  11.516   1.554   8.120  0.0078 -0.0549 -0.0948
   59loPI    C1  929   6.908   0.351  10.196  0.0581  0.0589 -0.1189
   59loPI    C2  930   7.191   0.629  10.246  0.0937  0.0182 -0.0927
   59loPI    C3  931   6.824   0.690  10.392  0.0945  0.0622 -0.1089
   59loPI   PO4  932   6.947   0.287   9.931 -0.1873 -0.0056 -0.2237
   59loPI   GL1  933   6.975   0.448   9.550  0.2005  0.1382  0.2091
   59loPI   GL2  934   7.012   0.772   9.812  0.0391  0.2670 -0.1001
   59loPI   C1A  935   7.315   0.527   9.187  0.1356  0.0599  0.1174
   59loPI   C2A  936   7.332   0.498   8.793 -0.3546 -0.1634 -0.0601
   59loPI   C3A  937   6.965   0.524   8.613  0.2122  0.0748  0.1729
   59loPI   C4A  938   6.831   0.509   8.241  0.2382  0.2116 -0.4524
   59loPI   C5A  939   7.081   0.639   7.879  0.0541  0.4258  0.2461
   59loPI   C6A  940   7.158   0.913   7.560  0.2414  0.1158 -0.3218
   59loPI   C1B  941   6.990   0.910   9.378 -0.1164 -0.0196  0.2906
   59loPI   C2B  942   6.840   0.823   9.027 -0.3081 -0.0574  0.0809
   59loPI   C3B  943   6.633   0.916   8.693 -0.2803  0.1467  0.0182
   59loPI   C4B  944   6.550   0.943   8.251 -0.1210  0.0159  0.2343
   60loPI    C1  945  18.020   6.093  10.911  0.1998  0.0182  0.1361
   60loPI    C2  946  17.729   5.967  11.154  0.0061  0.2132  0.0085
   60loPI    C3  947  17.760   6.355  11.063  0.1279  0.1539 -0.2104
   60loPI   PO4  948  17.998   5.958  10.739  0.0661  0.0243 -0.1615
   60loPI   GL1  949  18.142   5.735  10.362  0.1643  0.0119 -0.0894
   60loPI   GL2  950  18.442   5.408  10.313 -0.1546 -0.0123  0.0672
   60loPI   C1A  951  18.254   5.796   9.994  0.2286 -0.1880  0.0053
   60loPI   C2A  952  18.383   5.682   9.501 -0.4069 -0.3585  0.3895
   60loPI   C3A  953  18.403   5.571   9.092 -0.0972  0.0788  0.1474
   60loPI   C4A  954  18.446   5.602   8.659 -0.4089 -0.2239 -0.0789
   60loPI   C5A  955  18.398   5.380   8.298 -0.1266 -0.1149 -0.0272
   60loPI   C6A  956  18.454   4.926   8.181  0.1381 -0.1146 -0.1428
   60loPI   C1B  957  18.381   5.246   9.844 -0.0153  0.1513 -0.0473
   60loPI   C2B  958  18.394   5.118   9.454  0.0410  0.1401  0.1359
   60loPI   C3B  959  18.384   4.950   9.118  0.0790 -0.0225  0.3303
   60loPI   C4B  960  18.450   5.048   8.689  0.2272 -0.1283  0.1173
   61loPI    C1  961   4.048  12.278  10.870  0.1120 -0.2255  0.2848
   61loPI    C2  962   4.380  12.085  10.756  0.2207 -0.0079  0.2276
   61loPI    C3  963   4.402  12.377  11.028  0.0892  0.0676  0.1587
   61loPI   PO4  964   3.967  12.395  10.553 -0.0690 -0.0768 -0.1745
   61loPI   GL1  965   3.722  12.246  10.174 -0.3693  0.0617  0.0899
   61loPI   GL2  966   3.698  12.606  10.043 -0.0186  0.0974 -0.0509
   61loPI   C1A  967   3.979  12.084   9.868  0.2649 -0.0478  0.2814
   61loPI   C2A  968   3.949  12.009   9.413  0.2060  0.1076  0.0318
   61loPI   C3A  969   3.910  12.008   8.971 -0.2256 -0.3724 -0.1794
   61loPI   C4A  970   3.877  11.812   8.603  0.2287 -0.1733  0.1735
   61loPI   C5A  971   4.049  11.823   8.141 -0.1395  0.0237  0.2468
   61loPI   C6A  972   3.995  11.714   7.693 -0.0283 -0.0811  0.3778
   61loPI   C1B  973   3.597  12.334   9.662 -0.0986  0.0631 -0.1794
   61loPI   C2B  974   3.510  12.279   9.237 -0.0318 -0.0765 -0.1540
   61loPI   C3B  975   3.486  12.239   8.776 -0.2289  0.1685  0.0510
   61loPI   C4B  976   3.536  12.060   8.336 -0.0587  0.1277  0.3644
   62loPI    C1  977   8.719  10.631  10.614 -0.0567  0.0779 -0.0280
   62loPI    C2  978   8.566  10.807  10.939  0.1190 -0.1570  0.1865
   62loPI    C3  979   8.777  10.469  10.976 -0.2169 -0.4206 -0.2164
   62loPI   PO4  980   8.573  10.804  10.399 -0.1629  0.2063 -0.0656
   62loPI   GL1  981   8.317  11.018  10.244 -0.1998 -0.0504 -0.0405
   62loPI   GL2  982   8.305  11.326  10.115 -0.1126 -0.1007 -0.1640
   62loPI   C1A  983   8.403  11.003   9.777  0.1525  0.2985 -0.2806
   62loPI   C2A  984   8.482  11.153   9.493  0.0682 -0.1397  0.1952
   62loPI   C3A  985   8.524  11.333   9.145  0.0103  0.1856 -0.3167
   62loPI   C4A  986   8.530  11.453   8.761 -0.0021  0.0495 -0.0523
   62loPI   C5A  987   8.617  11.437   8.405  0.2935 -0.1629 -0.0873
   62loPI   C6A  988   8.372  11.349   8.030 -0.0132 -0.3628 -0.4932
   62loPI   C1B  989   8.631  11.470   9.806 -0.0841  0.1341 -0.1077
   62loPI   C2B  990   8.855  11.670   9.445  0.1808 -0.1284 -0.3401
   62loPI   C3B  991   8.931  11.717   9.046 -0.0889  0.1110 -0.0874
   62loPI   C4B  992   8.924  11.768   8.650 -0.0553 -0.0466 -0.1033
   63loPI    C1  993   6.033   7.284  10.860  0.2846 -0.3980  0.0226
   63loPI    C2  994   6.295   7.568  10.756 -0.0695 -0.1157 -0.1175
   63loPI    C3  995   6.246   7.472  11.141  0.0859 -0.0200 -0.0730
   63loPI   PO4  996   5.797   7.330  10.593  0.2908  0.2831 -0.4798
   63loPI   GL1  997   5.740   7.316  10.249 -0.0307  0.1202  0.0684
   63loPI   GL2  998   6.045   7.426  10.111 -0.0582 -0.1848  0.1486
   63loPI   C1A  999   5.680   7.144   9.802  0.1189  0.1700  0.1196
   63loPI   C2A 1000   5.607   7.182   9.400 -0.2137 -0.0523 -0.0036
   63loPI   C3A 1001   5.756   7.150   8.991 -0.0622 -0.0741 -0.2174
   63loPI   C4A 1002   5.830   7.176   8.500 -0.2880 -0.3454 -0.1780
   63loPI   C5A 1003   5.914   7.004   8.104 -0.1293  0.2122 -0.0322
   63loPI   C6A 1004   5.920   7.162   7.697 -0.0115 -0.0923 -0.3021
   63loPI   C1B 1005   6.151   7.373   9.651  0.1623 -0.0026  0.5729
   63loPI   C2B 1006   6.171   7.361   9.257 -0.1088 -0.1408  0.1660
   63loPI   C3B 1007   6.235   7.352   8.767  0.1888 -0.1219 -0.1701
   63loPI   C4B 1008   6.169   7.406   8.258  0.2611  0.2791  0.0942
   64loPI    C1 1009   1.101  17.546  10.709 -0.0262  0.2113  0.0972
   64loPI    C2 1010   1.471  17.417  10.786 -0.0398  0.0752 -0.0582
   64loPI    C3 1011   1.179  17.153  10.714 -0.1901  0.1786  0.1615
   64loPI   PO4 1012   1.140  17.684  10.545  0.0187 -0.2217 -0.1203
   64loPI   GL1 1013   1.058  17.826  10.087  0.2130 -0.0424 -0.0740
   64loPI   GL2 1014   0.795  18.066  10.116  0.0136 -0.0461  0.3509
   64loPI   C1A 1015   1.033  17.542   9.845 -0.2159 -0.0358 -0.1596
   64loPI   C2A 1016   0.865  17.532   9.429  0.1753 -0.0265 -0.0221
   64loPI   C3A 1017   0.801  17.488   8.991 -0.2419  0.5265 -0.3045
   64loPI   C4A 1018   0.951  17.503   8.646 -0.1749  0.0523  0.1534
   64loPI   C5A 1019   0.826  17.482   8.160  0.0471  0.0097 -0.3049
   64loPI   C6A 1020   0.873  18.009   7.891 -0.2839 -0.0302  0.0220
   64loPI   C1B 1021   0.933  17.997   9.633  0.2862  0.1405 -0.2093
   64loPI   C2B 1022   0.845  17.993   9.210  0.0963  0.0649  0.0133
   64loPI   C3B 1023   0.831  18.021   8.820 -0.1158 -0.0276  0.3680
   64loPI   C4B 1024   0.823  17.960   8.418  0.0823  0.0861 -0.1819
   65loPI    C1 1025   5.745  15.705  10.685  0.2129 -0.0129  0.2804
   65loPI    C2 1026   5.509  15.610  10.993 -0.0857 -0.1735  0.0086
   65loPI    C3 1027   5.468  15.964  10.812  0.0219 -0.1194  0.0891
   65loPI   PO4 1028   5.656  15.537  10.432  0.1308 -0.2917 -0.2516
   65loPI   GL1 1029   5.862  15.708  10.184 -0.0764  0.1133 -0.0326
   65loPI   GL2 1030   6.100  15.469  10.138 -0.2317  0.0525 -0.1163
   65loPI   C1A 1031   5.742  15.748   9.804  0.1834 -0.3391  0.3103
   65loPI   C2A 1032   5.710  15.638   9.371 -0.2485 -0.2677  0.1258
   65loPI   C3A 1033   5.783  15.564   8.895  0.0005  0.2722  0.1832
   65loPI   C4A 1034   5.856  15.604   8.561 -0.2272  0.5518 -0.3838
   65loPI   C5A 1035   6.102  15.720   8.219 -0.0723  0.0050  0.2141
   65loPI   C6A 1036   6.188  16.100   7.986  0.0223 -0.2188 -0.1050
   65loPI   C1B 1037   6.163  15.312   9.698  0.3505  0.0803  0.1360
   65loPI   C2B 1038   6.251  15.350   9.287  0.0618 -0.1814 -0.0593
   65loPI   C3B 1039   6.326  15.297   8.804 -0.1429 -0.3070  0.1818
   65loPI   C4B 1040   6.294  15.374   8.419 -0.0535  0.4254 -0.1552
   66loPI    C1 1041   9.194  15.124  10.780  0.1045 -0.2269  0.1337
   66loPI    C2 1042   9.331  14.907  10.473 -0.1335  0.0077 -0.1444
   66loPI    C3 1043   9.581  15.028  10.761  0.1218 -0.0880 -0.3229
   66loPI   PO4 1044   9.057  15.408  10.581  0.1253 -0.0812  0.2517
   66loPI   GL1 1045   9.206  15.696  10.223 -0.0599  0.0283  0.0237
   66loPI   GL2 1046   9.452  15.966  10.204  0.0613  0.0530  0.1531
   66loPI   C1A 1047   9.148  15.752   9.820 -0.0693  0.4369  0.0448
   66loPI   C2A 1048   9.151  15.640   9.436  0.0545  0.0589  0.1027
   66loPI   C3A 1049   9.450  15.778   9.064 -0.0535  0.1171  0.0305
   66loPI   C4A 1050   9.531  15.798   8.586 -0.1947  0.4654 -0.1106
   66loPI   C5A 1051   9.978  15.629   8.358 -0.2559 -0.1973  0.0211
   66loPI   C6A 1052  10.197  15.342   8.074 -0.0516  0.2154 -0.0471
   66loPI   C1B 1053   9.491  16.144   9.806  0.1494  0.2194  0.1552
   66loPI   C2B 1054   9.518  16.237   9.405 -0.0177 -0.2476 -0.0215
   66loPI   C3B 1055   9.526  16.343   8.962 -0.0010  0.0987  0.0102
   66loPI   C4B 1056   9.432  16.312   8.515  0.2573  0.2375 -0.1073
   67loPI    C1 1057   6.664   2.111  10.116 -0.1554  0.0743 -0.1785
   67loPI    C2 1058   6.435   1.843  10.305  0.4540 -0.1828  0.2248
   67loPI    C3 1059   6.511   2.197  10.476  0.3504 -0.0922  0.0854
   67loPI   PO4 1060   6.597   2.195   9.868  0.1196 -0.1502  0.2013
   67loPI   GL1 1061   6.579   2.419   9.445 -0.4723 -0.0289  0.5412
   67loPI   GL2 1062   6.442   2.691   9.451 -0.5308  0.2305  0.0121
   67loPI   C1A 1063   6.624   2.226   9.107  0.3354 -0.1220  0.0532
   67loPI   C2A 1064   6.444   2.335   8.739  0.3470 -0.0248  0.2413
   67loPI   C3A 1065   6.161   2.356   8.327 -0.3056  0.0441  0.2034
   67loPI   C4A 1066   6.329   2.408   7.868  0.2055  0.2732 -0.0521
   67loPI   C5A 1067   6.469   2.764   7.769  0.0183  0.3482  0.3432
   67loPI   C6A 1068   6.462   3.178   7.667 -0.0041  0.0723 -0.2280
   67loPI   C1B 1069   6.285   2.720   9.005  0.2151 -0.1441  0.3497
   67loPI   C2B 1070   6.227   2.788   8.578 -0.0013  0.3750 -0.1131
   67loPI   C3B 1071   6.185   2.848   8.211  0.0507  0.0199  0.0370
   67loPI   C4B 1072   5.999   2.844   7.894  0.0733  0.3949 -0.2566
   68loPI    C1 1073   4.754  15.943  10.737 -0.0642 -0.1956 -0.0404
   68loPI    C2 1074   4.722  15.558  10.842  0.0654 -0.1284  0.2536
   68loPI    C3 1075   4.977  15.799  11.036  0.0320  0.0915  0.0295
   68loPI   PO4 1076   4.754  15.935  10.490 -0.2086 -0.1059 -0.4879
   68loPI   GL1 1077   4.850  15.998  10.141 -0.0968 -0.0214  0.0255
   68loPI   GL2 1078   4.807  15.749   9.938 -0.1020  0.4341 -0.2106
   68loPI   C1A 1079   4.725  16.202   9.797 -0.2666  0.0120 -0.3606
   68loPI   C2A 1080   4.831  16.329   9.438  0.2361 -0.0672 -0.1395
   68loPI   C3A 1081   4.810  16.277   9.027 -0.1025  0.1880 -0.1213
   68loPI   C4A 1082   4.883  16.132   8.685 -0.1290 -0.2041  0.1351
   68loPI   C5A 1083   5.004  15.986   8.307  0.4151  0.0311  0.0591
   68loPI   C6A 1084   5.115  15.924   7.926 -0.0341  0.0965 -0.1117
   68loPI   C1B 1085   4.789  15.802   9.533  0.2060 -0.0180  0.2430
   68loPI   C2B 1086   4.875  15.741   9.161  0.2462  0.2178  0.0586
   68loPI   C3B 1087   4.964  15.583   8.708 -0.3635 -0.0807 -0.1646
   68loPI   C4B 1088   4.890  15.482   8.228 -0.1342 -0.4513  0.0259
   69loPI    C1 1089  10.690  17.893  10.617 -0.0535  0.1107  0.0539
   69loPI    C2 1090  10.388  17.849  10.876  0.0075 -0.0188  0.1043
   69loPI    C3 1091  10.732  18.014  10.996 -0.1010  0.2874  0.0035
   69loPI   PO4 1092  10.596  17.844  10.360  0.1789  0.2095  0.1619
   69loPI   GL1 1093  10.746  18.043  10.057 -0.0770  0.0269 -0.0048
   69loPI   GL2 1094  10.382  18.148  10.062  0.1287 -0.1970 -0.2938
   69loPI   C1A 1095  10.824  18.109   9.649 -0.1796  0.0021  0.0178
   69loPI   C2A 1096  10.902  18.185   9.223 -0.0884  0.2801  0.1353
   69loPI   C3A 1097  10.782  18.227   8.780  0.1785  0.1210 -0.3094
   69loPI   C4A 1098  10.376  18.420   8.621 -0.1620 -0.3079  0.2412
   69loPI   C5A 1099  10.202  18.476   8.251  0.1108  0.0827 -0.0673
   69loPI   C6A 1100  10.205  18.530   7.913  0.4537  0.0117 -0.0139
   69loPI   C1B 1101  10.427  17.786   9.732  0.0717  0.0285  0.1614
   69loPI   C2B 1102  10.487  17.848   9.390  0.3526 -0.1274  0.0299
   69loPI   C3B 1103  10.512  17.627   9.080  0.0979  0.0210  0.1334
   69loPI   C4B 1104  10.450  17.317   8.654 -0.0691  0.2128 -0.3801
   70loPI    C1 1105   7.291   9.969  10.803 -0.2172  0.3150  0.0865
   70loPI    C2 1106   7.610   9.943  11.043  0.0743  0.3189 -0.2920
   70loPI    C3 1107   7.249   9.839  11.179  0.2910 -0.0358  0.0320
   70loPI   PO4 1108   7.316   9.865  10.566 -0.0362 -0.0803 -0.1347
   70loPI   GL1 1109   7.239   9.533  10.359  0.2644 -0.1573 -0.3369
   70loPI   GL2 1110   6.882   9.739  10.258 -0.2742  0.0850  0.0484
   70loPI   C1A 1111   7.146   9.428   9.957 -0.1370  0.0324 -0.0730
   70loPI   C2A 1112   7.187   9.466   9.533  0.1926  0.0873 -0.2705
   70loPI   C3A 1113   7.176   9.447   9.067  0.0664 -0.0372  0.1962
   70loPI   C4A 1114   7.143   9.492   8.671  0.0486  0.2977  0.0055
   70loPI   C5A 1115   7.232   9.692   8.283  0.1342  0.1198  0.1221
   70loPI   C6A 1116   7.140   9.426   7.866 -0.1281  0.4600  0.1937
   70loPI   C1B 1117   6.770   9.802   9.839  0.0720 -0.0140  0.0116
   70loPI   C2B 1118   6.788   9.690   9.336  0.0232 -0.2918  0.2619
   70loPI   C3B 1119   6.655   9.854   8.970  0.1106 -0.1024  0.0922
   70loPI   C4B 1120   6.831   9.851   8.604 -0.1707  0.2289  0.2086
   71loPI    C1 1121   1.743   0.659  10.761 -0.0552 -0.2240 -0.0627
   71loPI    C2 1122   1.646   0.971  10.991  0.0651 -0.0863 -0.1970
   71loPI    C3 1123   1.927   0.714  11.112 -0.2002 -0.2794  0.0231
   71loPI   PO4 1124   1.533   0.658  10.608  0.0473  0.1722  0.1538
   71loPI   GL1 1125   1.211   0.483  10.347  0.0614  0.0416  0.0315
   71loPI   GL2 1126   1.105   0.261  10.154  0.0398 -0.0488 -0.0473
   71loPI   C1A 1127   1.317   0.681   9.924 -0.4164 -0.0477  0.1208
   71loPI   C2A 1128   1.319   0.564   9.460 -0.0863 -0.1808  0.1885
   71loPI   C3A 1129   1.380   0.626   9.064 -0.0376  0.2511  0.1196
   71loPI   C4A 1130   1.394   0.567   8.593 -0.1546  0.1217  0.3171
   71loPI   C5A 1131   1.182   0.626   8.147  0.0920 -0.0809 -0.0464
   71loPI   C6A 1132   0.964   1.024   8.091  0.1015  0.0746 -0.1364
   71loPI   C1B 1133   1.011   0.292   9.698 -0.0280  0.0756  0.0905
   71loPI   C2B 1134   0.912   0.318   9.284 -0.2583 -0.0858 -0.3109
   71loPI   C3B 1135   0.984   0.251   8.800  0.0402 -0.0910  0.2218
   71loPI   C4B 1136   0.861   0.391   8.495 -0.0684 -0.0258  0.2490
   72loPI    C1 1137  15.170  16.516  10.522 -0.0148 -0.2954 -0.0364
   72loPI    C2 1138  15.222  16.672  10.887 -0.2354 -0.0407 -0.1102
   72loPI    C3 1139  15.232  16.275  10.836 -0.1326 -0.0753  0.1593
   72loPI   PO4 1140  14.995  16.702  10.428 -0.2337 -0.2167 -0.0932
   72loPI   GL1 1141  14.907  16.891  10.084  0.2977 -0.0315 -0.1677
   72loPI   GL2 1142  15.096  17.134   9.949 -0.3562 -0.1683 -0.1320
   72loPI   C1A 1143  15.007  16.740   9.657  0.1163 -0.1478  0.2117
   72loPI   C2A 1144  14.858  16.742   9.249  0.0263 -0.2369 -0.0523
   72loPI   C3A 1145  14.991  16.719   8.805 -0.0918 -0.1500  0.0705
   72loPI   C4A 1146  14.961  16.562   8.372 -0.0426  0.0630  0.2555
   72loPI   C5A 1147  14.635  16.478   8.030 -0.0168  0.0732 -0.0613
   72loPI   C6A 1148  14.399  16.319   7.801  0.0849  0.0348 -0.2446
   72loPI   C1B 1149  14.981  17.265   9.592 -0.1027  0.1986  0.2170
   72loPI   C2B 1150  14.867  17.333   9.155  0.0130  0.1041 -0.1031
   72loPI   C3B 1151  14.939  17.253   8.719 -0.3718 -0.0054 -0.2623
   72loPI   C4B 1152  14.967  17.268   8.271  0.0614  0.1973  0.1933
   73loPI    C1 1153  11.731   7.198  10.124 -0.0481  0.0156  0.1803
   73loPI    C2 1154  11.760   7.568   9.972  0.2864 -0.0785  0.0029
   73loPI    C3 1155  11.747   7.514  10.369  0.0367  0.1328  0.0258
   73loPI   PO4 1156  11.613   7.077  10.011 -0.0012 -0.1452  0.2317
   73loPI   GL1 1157  11.757   6.882   9.692 -0.1441  0.3176 -0.1877
   73loPI   GL2 1158  12.090   6.973   9.897  0.3048  0.0456 -0.1609
   73loPI   C1A 1159  11.827   6.847   9.283  0.0696  0.0183 -0.0258
   73loPI   C2A 1160  11.842   6.764   8.894 -0.0263  0.0393 -0.0274
   73loPI   C3A 1161  11.810   6.789   8.466 -0.0561 -0.0839  0.1838
   73loPI   C4A 1162  11.837   6.672   8.012 -0.2191  0.3993  0.0837
   73loPI   C5A 1163  11.720   6.308   7.890 -0.2052 -0.0707  0.1525
   73loPI   C6A 1164  11.671   6.159   7.466  0.1603  0.0097  0.0277
   73loPI   C1B 1165  12.057   7.264   9.567 -0.1533  0.1974 -0.0250
   73loPI   C2B 1166  12.115   7.245   9.223 -0.2132 -0.1545  0.1640
   73loPI   C3B 1167  12.145   7.168   8.829 -0.2218  0.1273 -0.0311
   73loPI   C4B 1168  12.508   6.995   8.639 -0.0258 -0.2996 -0.1325
   74loPI    C1 1169   3.135  10.413  10.739  0.1011  0.2647  0.1237
   74loPI    C2 1170   3.102  10.100  10.985 -0.1640  0.0696 -0.1528
   74loPI    C3 1171   2.878  10.426  11.045 -0.0032  0.1464  0.0421
   74loPI   PO4 1172   3.065  10.343  10.430 -0.2122  0.1971  0.2382
   74loPI   GL1 1173   2.854  10.444  10.120  0.2259  0.0221 -0.1521
   74loPI   GL2 1174   2.745  10.704  10.224  0.2449  0.0262  0.0858
   74loPI   C1A 1175   3.017  10.549   9.696  0.0316 -0.0184 -0.2928
   74loPI   C2A 1176   2.944  10.569   9.297  0.1339 -0.1964 -0.2967
   74loPI   C3A 1177   3.035  10.529   8.991  0.5315 -0.1797 -0.3428
   74loPI   C4A 1178   2.995  10.292   8.676 -0.3738 -0.1813 -0.2419
   74loPI   C5A 1179   2.772  10.243   8.358  0.1757  0.1061  0.1726
   74loPI   C6A 1180   2.643  10.116   7.962 -0.1831 -0.1521 -0.0098
   74loPI   C1B 1181   2.553  10.718   9.796 -0.1391 -0.0709  0.2438
   74loPI   C2B 1182   2.468  10.694   9.296 -0.3785  0.2990 -0.0699
   74loPI   C3B 1183   2.467  10.682   8.875  0.1622 -0.2403  0.0568
   74loPI   C4B 1184   2.471  10.605   8.575 -0.0400 -0.1461  0.2497
   75loPI    C1 1185   1.489   2.811  11.322 -0.1620  0.1572  0.1449
   75loPI    C2 1186   1.429   2.518  11.587 -0.0740  0.1329  0.1383
   75loPI    C3 1187   1.671   2.822  11.678 -0.0563  0.1327  0.0919
   75loPI   PO4 1188   1.525   2.684  11.116 -0.0229 -0.2283 -0.0925
   75loPI   GL1 1189   1.630   2.804  10.693  0.0173 -0.0646 -0.1593
   75loPI   GL2 1190   1.331   2.748  10.633 -0.0008 -0.1558 -0.1892
   75loPI   C1A 1191   1.596   2.781  10.235 -0.0730  0.2943  0.0655
   75loPI   C2A 1192   1.516   2.751   9.911 -0.2261 -0.0332 -0.2908
   75loPI   C3A 1193   1.451   2.679   9.471  0.0269 -0.1193  0.2141
   75loPI   C4A 1194   1.462   2.667   9.070 -0.0572  0.0212 -0.1940
   75loPI   C5A 1195   1.491   2.648   8.574  0.2822 -0.0743  0.2697
   75loPI   C6A 1196   1.223   2.724   8.220 -0.1068  0.0251  0.0026
   75loPI   C1B 1197   1.420   3.246  10.499 -0.2139 -0.0656  0.0042
   75loPI   C2B 1198   1.128   3.536  10.286  0.0420 -0.0328 -0.1565
   75loPI   C3B 1199   1.001   3.491   9.984 -0.0606 -0.1507 -0.2427
   75loPI   C4B 1200   0.931   3.379   9.492  0.0150  0.1228 -0.0111
   76loPI    C1 1201  12.775   9.119   9.975 -0.0234 -0.1084 -0.3792
   76loPI    C2 1202  13.098   8.971   9.789  0.2639 -0.0465  0.0555
   76loPI    C3 1203  12.992   8.831  10.148 -0.1057  0.0451 -0.0131
   76loPI   PO4 1204  12.595   9.091   9.777 -0.0007  0.2214 -0.0408
   76loPI   GL1 1205  12.429   8.909   9.522  0.0326  0.3209 -0.0644
   76loPI   GL2 1206  12.300   9.163   9.337 -0.0072 -0.1178 -0.2403
   76loPI   C1A 1207  12.366   8.703   9.110  0.2626  0.1413  0.0574
   76loPI   C2A 1208  12.284   8.677   8.669  0.0353 -0.1229  0.3437
   76loPI   C3A 1209  12.377   8.899   8.225  0.1570  0.3515 -0.1090
   76loPI   C4A 1210  12.494   8.976   7.763  0.1079  0.2181  0.4761
   76loPI   C5A 1211  12.417   9.255   7.437 -0.1583 -0.2217 -0.1912
   76loPI   C6A 1212  12.596   9.338   6.942 -0.0234 -0.1558 -0.1111
   76loPI   C1B 1213  12.137   9.095   8.918 -0.2291 -0.0956  0.2861
   76loPI   C2B 1214  12.066   9.284   8.441 -0.0326 -0.0984  0.0324
   76loPI   C3B 1215  12.077   9.381   8.037 -0.2932 -0.0467 -0.0883
   76loPI   C4B 1216  11.905   9.380   7.588  0.1425  0.1639 -0.1113
   77loPI    C1 1217  11.389  10.430   9.923 -0.1060 -0.0427  0.2217
   77loPI    C2 1218  11.744  10.330   9.767 -0.3232 -0.1026 -0.2520
   77loPI    C3 1219  11.584  10.108  10.060  0.0227 -0.0784 -0.0394
   77loPI   PO4 1220  11.278  10.480   9.727 -0.0368 -0.1005 -0.0216
   77loPI   GL1 1221  11.176  10.202   9.365 -0.0164 -0.0003 -0.0199
   77loPI   GL2 1222  11.484  10.316   9.250  0.1442 -0.1706 -0.3334
   77loPI   C1A 1223  11.118  10.222   8.930 -0.0162 -0.3063  0.1094
   77loPI   C2A 1224  11.209  10.307   8.612  0.1618  0.0383 -0.0708
   77loPI   C3A 1225  11.154  10.373   8.153 -0.0468 -0.0022 -0.0245
   77loPI   C4A 1226  10.835  10.493   7.870  0.1689  0.2106  0.1611
   77loPI   C5A 1227  10.627  10.372   7.565  0.3290  0.0230  0.0809
   77loPI   C6A 1228  10.242  10.171   7.570 -0.1193  0.1432  0.0399
   77loPI   C1B 1229  11.595  10.478   8.853 -0.1181  0.3015 -0.3706
   77loPI   C2B 1230  11.528  10.638   8.385 -0.1491 -0.1213  0.0392
   77loPI   C3B 1231  11.527  10.609   7.887 -0.0714  0.0882  0.1159
   77loPI   C4B 1232  11.658  10.869   7.543 -0.0922 -0.1751  0.0024
   78loPI    C1 1233   0.204  14.093  10.658  0.0644  0.0265 -0.0852
   78loPI    C2 1234   0.073  13.997  11.023 -0.1078  0.0236 -0.1471
   78loPI    C3 1235   0.423  14.185  10.980 -0.0234 -0.0949  0.0100
   78loPI   PO4 1236   0.090  14.034  10.471  0.1562 -0.0526  0.1953
   78loPI   GL1 1237   0.093  13.809  10.171 -0.3399  0.1816 -0.2015
   78loPI   GL2 1238  -0.190  14.037  10.075 -0.2988 -0.2927  0.0156
   78loPI   C1A 1239  -0.051  13.676   9.819 -0.0904  0.0035  0.3994
   78loPI   C2A 1240  -0.040  13.505   9.416 -0.1500  0.2280  0.1248
   78loPI   C3A 1241  -0.102  13.313   9.048  0.1881  0.3155 -0.1172
   78loPI   C4A 1242  -0.253  13.346   8.627  0.1074 -0.1417  0.2663
   78loPI   C5A 1243  -0.466  13.497   8.278 -0.1914 -0.1961  0.1151
   78loPI   C6A 1244  -0.707  13.503   7.862  0.0682 -0.1571  0.0575
   78loPI   C1B 1245  -0.373  14.120   9.669 -0.0867 -0.1830  0.0233
   78loPI   C2B 1246  -0.309  14.013   9.307 -0.0249 -0.0278  0.2465
   78loPI   C3B 1247  -0.171  13.774   8.982 -0.1322 -0.3285  0.0021
   78loPI   C4B 1248  -0.176  13.834   8.593  0.5184  0.0339  0.2483
   79loPI    C1 1249   1.907  18.142  10.638  0.1479 -0.3094 -0.0932
   79loPI    C2 1250   1.596  17.971  10.823 -0.0010 -0.0548 -0.1040
   79loPI    C3 1251   1.646  18.368  10.839  0.1897 -0.0684 -0.3046
   79loPI   PO4 1252   1.803  18.001  10.348 -0.0770  0.2639 -0.0489
   79loPI   GL1 1253   1.744  17.966   9.913  0.3251 -0.2601 -0.1405
   79loPI   GL2 1254   1.496  17.948   9.893 -0.4259  0.0655 -0.0446
   79loPI   C1A 1255   1.887  18.007   9.552 -0.1670  0.3154 -0.0878
   79loPI   C2A 1256   2.038  18.292   9.196  0.1068  0.0821 -0.0428
   79loPI   C3A 1257   2.145  18.310   8.794 -0.1493 -0.0356  0.0182
   79loPI   C4A 1258   2.186  18.240   8.348  0.1273 -0.0094  0.1067
   79loPI   C5A 1259   2.530  18.182   8.039 -0.1758 -0.1513 -0.0293
   79loPI   C6A 1260   3.070  18.096   8.099 -0.2801 -0.2310  0.3030
   79loPI   C1B 1261   1.376  17.767   9.589  0.5063  0.6196  0.1037
   79loPI   C2B 1262   1.231  17.691   9.093  0.2214 -0.0756  0.4898
   79loPI   C3B 1263   1.403  17.684   8.756  0.0140  0.1846  0.3263
   79loPI   C4B 1264   1.335  17.753   8.318  0.0683  0.0294  0.1655
   80loPI    C1 1265   3.584  15.428  10.473  0.1040  0.2451 -0.2688
   80loPI    C2 1266   3.618  15.102  10.702 -0.1237  0.0981 -0.4399
   80loPI    C3 1267   3.846  15.422  10.775 -0.0457 -0.0223 -0.1405
   80loPI   PO4 1268   3.582  15.335  10.236  0.1005 -0.0401 -0.0996
   80loPI   GL1 1269   3.712  15.218   9.934 -0.1975 -0.1387  0.4585
   80loPI   GL2 1270   3.625  14.945   9.800  0.4607  0.0174  0.3697
   80loPI   C1A 1271   3.877  15.223   9.529  0.1019  0.3829 -0.3227
   80loPI   C2A 1272   3.986  15.251   9.178  0.1592 -0.1793  0.1631
   80loPI   C3A 1273   3.920  15.145   8.791  0.0955  0.0294  0.1930
   80loPI   C4A 1274   3.934  15.000   8.306  0.0261 -0.1572 -0.2732
   80loPI   C5A 1275   3.865  14.980   7.868  0.0573 -0.0475  0.0162
   80loPI   C6A 1276   3.912  15.127   7.523 -0.1107 -0.1908 -0.0386
   80loPI   C1B 1277   3.450  14.938   9.408  0.0395  0.1327 -0.1307
   80loPI   C2B 1278   3.424  14.858   8.948  0.0812 -0.0260  0.0571
   80loPI   C3B 1279   3.611  14.750   8.532  0.1284  0.2692 -0.1394
   80loPI   C4B 1280   3.616  14.633   8.130 -0.1379  0.0282  0.0752
   81loPI    C1 1281   5.835  17.740  10.446 -0.0023  0.0117 -0.1704
   81loPI    C2 1282   5.587  17.552  10.697  0.1865 -0.1357 -0.0917
   81loPI    C3 1283   5.696  17.930  10.770 -0.2211  0.0213 -0.2685
   81loPI   PO4 1284   5.680  17.719  10.155 -0.0812  0.1073 -0.2224
   81loPI   GL1 1285   5.839  17.698   9.719  0.0828  0.5078  0.1421
   81loPI   GL2 1286   5.841  17.333   9.801  0.3827  0.1725 -0.2611
   81loPI   C1A 1287   5.708  17.988   9.431 -0.0222  0.0080  0.1398
   81loPI   C2A 1288   5.715  18.079   8.975  0.1141  0.2737  0.1243
   81loPI   C3A 1289   5.656  17.819   8.574 -0.1706 -0.0675  0.3567
   81loPI   C4A 1290   5.566  17.842   8.229  0.1349 -0.1443  0.1407
   81loPI   C5A 1291   5.740  18.010   7.979 -0.0370 -0.1066  0.0628
   81loPI   C6A 1292   5.735  18.226   7.583 -0.1654  0.2823  0.0876
   81loPI   C1B 1293   6.010  17.262   9.420  0.1089 -0.0926  0.1804
   81loPI   C2B 1294   6.205  16.985   9.102  0.0460 -0.1179 -0.1311
   81loPI   C3B 1295   6.339  17.011   8.736  0.0240  0.0958  0.1915
   81loPI   C4B 1296   6.199  17.042   8.326  0.1719 -0.2429 -0.0499
   82loPI    C1 1297  17.074  12.666  11.004  0.1544 -0.2812 -0.0929
   82loPI    C2 1298  16.791  12.385  10.987 -0.0706 -0.0565 -0.1207
   82loPI    C3 1299  16.793  12.648  11.288  0.0997 -0.0462 -0.1300
   82loPI   PO4 1300  17.278  12.588  10.851  0.1910  0.4427  0.1811
   82loPI   GL1 1301  17.227  12.456  10.413  0.1570 -0.0146  0.0963
   82loPI   GL2 1302  16.852  12.459  10.495  0.0868  0.0593  0.1092
   82loPI   C1A 1303  17.126  12.649  10.030 -0.3264 -0.1038 -0.1845
   82loPI   C2A 1304  17.227  12.761   9.649  0.1769  0.1125  0.0529
   82loPI   C3A 1305  17.233  12.800   9.150  0.1754  0.2332 -0.0101
   82loPI   C4A 1306  17.115  12.854   8.706 -0.4864  0.4303 -0.0034
   82loPI   C5A 1307  16.845  12.783   8.358  0.0560 -0.2796  0.1237
   82loPI   C6A 1308  16.617  13.165   8.192  0.1138  0.1507  0.2816
   82loPI   C1B 1309  16.779  12.216  10.074 -0.0927  0.2202  0.0647
   82loPI   C2B 1310  16.786  12.040   9.719  0.0872  0.0963 -0.0916
   82loPI   C3B 1311  16.690  12.043   9.281 -0.0001  0.3364  0.0223
   82loPI   C4B 1312  16.721  12.065   8.865 -0.0263 -0.0143 -0.2716
   83loPI    C1 1313  12.517   8.130  10.267  0.2143 -0.4126 -0.2027
   83loPI    C2 1314  12.520   7.817  10.517  0.0952 -0.3060 -0.0660
   83loPI    C3 1315  12.752   8.135  10.591 -0.0321 -0.2224 -0.0231
   83loPI   PO4 1316  12.581   8.080   9.946 -0.0408  0.0547 -0.1629
   83loPI   GL1 1317  12.736   7.764   9.709 -0.0505  0.0181 -0.2592
   83loPI   GL2 1318  12.932   8.020   9.573  0.2982  0.0858 -0.0972
   83loPI   C1A 1319  12.986   7.378   9.738  0.0528  0.2936 -0.0869
   83loPI   C2A 1320  13.291   7.191   9.531  0.0312 -0.1451  0.1557
   83loPI   C3A 1321  13.421   7.087   9.114  0.2558  0.0045  0.3160
   83loPI   C4A 1322  13.424   7.066   8.657 -0.1215  0.1269 -0.2151
   83loPI   C5A 1323  13.485   6.907   8.284 -0.2505  0.1361 -0.2448
   83loPI   C6A 1324  13.589   6.785   7.845 -0.0528  0.1877 -0.0633
   83loPI   C1B 1325  12.833   7.883   9.102  0.0022 -0.2115  0.1069
   83loPI   C2B 1326  12.846   7.798   8.616 -0.1527 -0.0628  0.1648
   83loPI   C3B 1327  12.691   7.715   8.179  0.1275  0.5231  0.1606
   83loPI   C4B 1328  12.723   7.886   7.719  0.0521  0.0423 -0.0473
   84loPI    C1 1329  11.278   7.298  10.244  0.0828 -0.0652  0.0573
   84loPI    C2 1330  11.210   7.500  10.582  0.1284  0.0463  0.0004
   84loPI    C3 1331  11.450   7.180  10.586 -0.0793 -0.1109  0.1239
   84loPI   PO4 1332  11.081   7.290  10.111 -0.1311 -0.1224  0.0074
   84loPI   GL1 1333  11.164   7.485   9.728  0.0174 -0.0682 -0.2603
   84loPI   GL2 1334  10.861   7.732   9.594 -0.0503 -0.1587 -0.1985
   84loPI   C1A 1335  11.142   7.413   9.322  0.1686  0.0561 -0.1618
   84loPI   C2A 1336  10.933   7.381   8.957 -0.0727  0.3905  0.1751
   84loPI   C3A 1337  10.918   7.280   8.446  0.1831  0.0033 -0.1773
   84loPI   C4A 1338  10.791   7.168   8.098  0.0754  0.2323 -0.2097
   84loPI   C5A 1339  10.823   7.211   7.645  0.4287 -0.0926 -0.0077
   84loPI   C6A 1340  11.139   7.004   7.501  0.0563 -0.2073  0.2101
   84loPI   C1B 1341  10.549   7.591   9.326  0.0113  0.2441 -0.1773
   84loPI   C2B 1342  10.476   7.563   8.960 -0.0346 -0.1553 -0.2309
   84loPI   C3B 1343  10.524   7.614   8.533 -0.0933 -0.0143  0.1088
   84loPI   C4B 1344  10.801   7.656   8.091 -0.0381 -0.0069  0.1390
   85loPI    C1 1345   6.927   3.916  10.255 -0.0629  0.0840  0.0541
   85loPI    C2 1346   6.850   4.133  10.582  0.0861  0.0652  0.1025
   85loPI    C3 1347   6.837   3.733  10.599  0.0450  0.0653  0.0729
   85loPI   PO4 1348   6.709   4.012  10.053  0.4734 -0.1731  0.2982
   85loPI   GL1 1349   6.444   4.253   9.775 -0.1497  0.0803  0.3431
   85loPI   GL2 1350   6.711   4.449   9.661  0.5197  0.2804  0.0862
   85loPI   C1A 1351   6.261   4.185   9.410 -0.2109  0.0960 -0.1697
   85loPI   C2A 1352   6.260   4.273   8.967  0.0861 -0.3791  0.1614
   85loPI   C3A 1353   6.076   4.377   8.628  0.0285 -0.1918  0.3193
   85loPI   C4A 1354   5.957   4.603   8.311 -0.1947  0.1187  0.1596
   85loPI   C5A 1355   6.061   4.441   7.963 -0.1651 -0.2697 -0.2205
   85loPI   C6A 1356   6.289   4.515   7.518 -0.0041 -0.1186  0.0697
   85loPI   C1B 1357   6.660   4.531   9.227 -0.2912 -0.1934  0.0595
   85loPI   C2B 1358   6.636   4.575   8.795  0.0484  0.0966  0.0355
   85loPI   C3B 1359   6.652   4.737   8.356  0.1444 -0.0386 -0.2416
   85loPI   C4B 1360   6.675   4.786   7.855 -0.0084 -0.3253  0.0604
   86loPI    C1 1361   6.303  14.085  10.543 -0.4163 -0.2182 -0.3500
   86loPI    C2 1362   5.993  14.254  10.731 -0.1983 -0.1226 -0.0695
   86loPI    C3 1363   6.083  13.870  10.799 -0.2375 -0.1426 -0.1298
   86loPI   PO4 1364   6.365  14.216  10.245 -0.3295 -0.1835 -0.1138
   86loPI   GL1 1365   6.212  14.258   9.767  0.1133  0.1154 -0.0153
   86loPI   GL2 1366   6.012  14.142   9.901 -0.0068 -0.1538  0.1081
   86loPI   C1A 1367   6.270  14.291   9.268 -0.1276 -0.0286  0.0909
   86loPI   C2A 1368   6.332  14.359   8.849 -0.3192  0.1459 -0.0148
   86loPI   C3A 1369   6.273  14.374   8.414  0.0088  0.0740  0.0194
   86loPI   C4A 1370   6.115  14.281   8.000 -0.1304 -0.0549 -0.2784
   86loPI   C5A 1371   6.079  14.184   7.522  0.2156 -0.0003 -0.0850
   86loPI   C6A 1372   5.813  14.039   7.175 -0.0606  0.2482  0.0446
   86loPI   C1B 1373   5.765  14.035   9.571  0.3735 -0.1681  0.1805
   86loPI   C2B 1374   5.781  14.052   9.058  0.2334 -0.1594  0.0425
   86loPI   C3B 1375   5.871  14.114   8.721 -0.1216  0.3259 -0.2419
   86loPI   C4B 1376   5.748  14.048   8.406  0.0241 -0.0512 -0.1974
   87loPI    C1 1377   5.587   8.382  10.975  0.1731  0.2066 -0.0541
   87loPI    C2 1378   5.414   8.713  10.832 -0.2749  0.0102  0.0165
   87loPI    C3 1379   5.298   8.562  11.184  0.2415  0.0253  0.2027
   87loPI   PO4 1380   5.639   8.179  10.744 -0.2628 -0.2894 -0.0700
   87loPI   GL1 1381   5.798   8.203  10.334 -0.1147 -0.1420  0.0151
   87loPI   GL2 1382   6.088   8.363  10.345  0.0707 -0.1356 -0.0500
   87loPI   C1A 1383   5.708   8.403   9.969  0.0941  0.0185 -0.0218
   87loPI   C2A 1384   5.721   8.221   9.641  0.1706 -0.1399  0.0758
   87loPI   C3A 1385   5.682   8.254   9.203  0.3623  0.0415 -0.0932
   87loPI   C4A 1386   5.742   8.275   8.778 -0.2358  0.1676 -0.0718
   87loPI   C5A 1387   5.646   8.165   8.421  0.2296 -0.1743 -0.1015
   87loPI   C6A 1388   5.436   8.216   8.055  0.0759 -0.0868 -0.3130
   87loPI   C1B 1389   6.265   8.364   9.898  0.3259  0.3566  0.1074
   87loPI   C2B 1390   6.231   8.442   9.461 -0.0779 -0.1045  0.1410
   87loPI   C3B 1391   6.207   8.541   9.021 -0.0174 -0.0738 -0.2240
   87loPI   C4B 1392   6.193   8.570   8.528  0.2060  0.2319 -0.1081
   88loPI    C1 1393  17.291  14.357  10.496 -0.0294 -0.1499 -0.1640
   88loPI    C2 1394  17.321  14.712  10.315  0.0127 -0.0320  0.0716
   88loPI    C3 1395  17.647  14.488  10.371  0.0203 -0.0097  0.1177
   88loPI   PO4 1396  17.123  14.199  10.301 -0.3798  0.0831  0.2249
   88loPI   GL1 1397  17.111  13.768   9.970 -0.1308  0.1801 -0.0873
   88loPI   GL2 1398  17.363  13.986   9.900 -0.2322 -0.0142  0.0921
   88loPI   C1A 1399  17.126  13.593   9.643 -0.1989  0.1326 -0.2678
   88loPI   C2A 1400  17.165  13.750   9.166  0.1128 -0.4046  0.0837
   88loPI   C3A 1401  17.056  13.955   8.845 -0.1908  0.0825 -0.3493
   88loPI   C4A 1402  16.795  14.186   8.519 -0.1199 -0.2039 -0.2131
   88loPI   C5A 1403  16.405  14.301   8.253  0.0655 -0.3185 -0.0432
   88loPI   C6A 1404  16.239  13.985   7.938  0.0709  0.3036 -0.1262
   88loPI   C1B 1405  17.349  14.095   9.503 -0.3748  0.0766  0.1188
   88loPI   C2B 1406  17.518  14.079   8.989 -0.1051  0.0203 -0.0761
   88loPI   C3B 1407  17.661  14.071   8.699 -0.1777 -0.0328 -0.0211
   88loPI   C4B 1408  17.653  14.004   8.340  0.0900  0.0548 -0.2965
   89loPI    C1 1409   5.043  17.553  10.556 -0.3150 -0.1679 -0.1373
   89loPI    C2 1410   4.745  17.752  10.735 -0.0132  0.2895 -0.1265
   89loPI    C3 1411   4.985  17.515  10.950 -0.2371  0.0828 -0.1000
   89loPI   PO4 1412   5.055  17.713  10.299 -0.1940  0.1720  0.0755
   89loPI   GL1 1413   4.872  17.623   9.883 -0.2248 -0.2040  0.2687
   89loPI   GL2 1414   4.836  17.934   9.872  0.1150  0.0630 -0.1595
   89loPI   C1A 1415   4.923  17.357   9.505  0.0355  0.1251 -0.0800
   89loPI   C2A 1416   5.103  17.208   9.132 -0.0761  0.0263  0.0441
   89loPI   C3A 1417   5.221  17.058   8.793 -0.1613 -0.2164  0.0793
   89loPI   C4A 1418   5.262  16.863   8.408  0.1758  0.1059 -0.1282
   89loPI   C5A 1419   5.331  16.788   7.962  0.0627  0.0025  0.2080
   89loPI   C6A 1420   5.339  16.735   7.473  0.0649 -0.0279  0.0416
   89loPI   C1B 1421   4.897  17.856   9.497  0.2230 -0.3869  0.1688
   89loPI   C2B 1422   4.821  17.714   9.079 -0.0212  0.2115 -0.3211
   89loPI   C3B 1423   4.791  17.723   8.615 -0.3184 -0.0287 -0.0428
   89loPI   C4B 1424   4.571  17.696   8.323 -0.0882 -0.0333  0.0071
   90loPI    C1 1425  16.972  10.332  10.521  0.1228 -0.2872  0.0372
   90loPI    C2 1426  17.360  10.291  10.608  0.1524 -0.0572  0.0193
   90loPI    C3 1427  17.095  10.352  10.901  0.1812  0.1729 -0.0010
   90loPI   PO4 1428  16.970  10.141  10.282 -0.2718  0.0701 -0.0013
   90loPI   GL1 1429  16.911  10.302   9.902  0.0254  0.0390  0.0061
   90loPI   GL2 1430  16.613  10.374   9.826 -0.1915 -0.1681  0.1410
   90loPI   C1A 1431  17.003  10.339   9.442 -0.1323  0.1300  0.2516
   90loPI   C2A 1432  17.073  10.244   8.978  0.0226  0.0798  0.0867
   90loPI   C3A 1433  17.098  10.145   8.581  0.0386 -0.1462 -0.2248
   90loPI   C4A 1434  17.180  10.288   8.130  0.0711  0.1491 -0.0803
   90loPI   C5A 1435  17.398  10.283   7.712 -0.1021 -0.1036  0.0191
   90loPI   C6A 1436  17.293   9.969   7.384  0.0456  0.0681 -0.3345
   90loPI   C1B 1437  16.534  10.121   9.518  0.5334  0.0864 -0.1164
   90loPI   C2B 1438  16.549  10.059   9.046 -0.1133 -0.3258 -0.1185
   90loPI   C3B 1439  16.617   9.980   8.609  0.1353  0.0148 -0.1939
   90loPI   C4B 1440  16.570   9.982   8.179 -0.0906 -0.2440  0.2435
   91loPI    C1 1441  11.547   8.874  10.445  0.2578  0.1652  0.1089
   91loPI    C2 1442  11.368   8.650  10.724 -0.0719  0.3015  0.0104
   91loPI    C3 1443  11.546   8.993  10.828  0.1752  0.1440  0.1153
   91loPI   PO4 1444  11.285   8.848  10.122  0.0169 -0.2623 -0.1225
   91loPI   GL1 1445  11.290   8.801   9.633  0.1687 -0.4699 -0.0964
   91loPI   GL2 1446  11.020   8.551   9.413  0.0152  0.1091 -0.0439
   91loPI   C1A 1447  11.375   8.934   9.176  0.0088  0.0294  0.0517
   91loPI   C2A 1448  11.339   8.963   8.647  0.1087  0.0656 -0.0970
   91loPI   C3A 1449  11.350   9.038   8.213 -0.0354  0.0336  0.5222
   91loPI   C4A 1450  11.140   9.152   7.831  0.2590 -0.2376 -0.0344
   91loPI   C5A 1451  11.300   9.258   7.430 -0.2138  0.2437  0.1486
   91loPI   C6A 1452  11.620   9.201   7.174 -0.1651  0.0963 -0.1580
   91loPI   C1B 1453  10.797   8.401   9.076  0.2563 -0.0860 -0.0159
   91loPI   C2B 1454  10.719   8.343   8.614  0.1436  0.0934  0.0697
   91loPI   C3B 1455  10.673   8.316   8.207  0.1481 -0.0940 -0.0746
   91loPI   C4B 1456  10.715   8.135   7.814 -0.0872  0.1423 -0.1323
   92loPI    C1 1457   3.121   3.596  10.904  0.0505  0.0780 -0.0761
   92loPI    C2 1458   3.389   3.312  10.817 -0.1408 -0.1197 -0.0316
   92loPI    C3 1459   3.364   3.457  11.189  0.0763  0.0857 -0.0943
   92loPI   PO4 1460   3.119   3.769  10.680 -0.0844 -0.1806 -0.3252
   92loPI   GL1 1461   3.227   3.832  10.280 -0.0252 -0.2186  0.1806
   92loPI   GL2 1462   2.969   3.996  10.282 -0.3115  0.2342 -0.0200
   92loPI   C1A 1463   3.479   3.731   9.871  0.3049  0.0006 -0.1163
   92loPI   C2A 1464   3.434   3.749   9.391 -0.3006 -0.3652  0.1182
   92loPI   C3A 1465   3.308   3.718   8.991  0.3096  0.0475  0.1593
   92loPI   C4A 1466   3.417   3.670   8.563  0.2445 -0.2625  0.2765
   92loPI   C5A 1467   3.527   3.397   8.182 -0.0436 -0.0461  0.1684
   92loPI   C6A 1468   3.668   2.952   8.057 -0.1846  0.3008 -0.5127
   92loPI   C1B 1469   2.882   3.989   9.826 -0.0848 -0.3097  0.0632
   92loPI   C2B 1470   2.931   3.973   9.317  0.0526  0.1181  0.1165
   92loPI   C3B 1471   2.888   4.074   8.877  0.3875 -0.1705  0.0298
   92loPI   C4B 1472   3.001   3.998   8.440 -0.1762  0.0992 -0.1007
   93loPI    C1 1473  11.823  11.273   9.822 -0.0183 -0.2155 -0.0450
   93loPI    C2 1474  11.736  11.098  10.172 -0.1276  0.1009  0.0893
   93loPI    C3 1475  11.562  10.970   9.835  0.1767 -0.3802  0.1067
   93loPI   PO4 1476  12.050  11.274   9.830  0.1439  0.1344  0.0824
   93loPI   GL1 1477  12.199  11.418   9.503 -0.3553  0.0066  0.1576
   93loPI   GL2 1478  12.002  11.084   9.381 -0.0542  0.1392 -0.1610
   93loPI   C1A 1479  12.104  11.681   9.170  0.5394  0.2214  0.1063
   93loPI   C2A 1480  12.163  11.790   8.815  0.1009  0.1155 -0.0233
   93loPI   C3A 1481  12.117  11.870   8.411 -0.0279 -0.2756 -0.3314
   93loPI   C4A 1482  12.174  11.964   8.007  0.0575  0.2961 -0.2778
   93loPI   C5A 1483  12.180  12.267   7.772  0.3427 -0.2589 -0.1893
   93loPI   C6A 1484  11.865  12.474   7.490  0.0840  0.0436  0.0944
   93loPI   C1B 1485  11.948  11.240   8.911 -0.1317 -0.1797 -0.1218
   93loPI   C2B 1486  11.942  11.396   8.598  0.0067  0.1672  0.4550
   93loPI   C3B 1487  12.070  11.449   8.168  0.1238  0.0856 -0.0279
   93loPI   C4B 1488  12.066  11.539   7.733 -0.2873 -0.1921 -0.0726
   94loPI    C1 1489   2.905   7.925  10.992 -0.1208 -0.0884  0.0159
   94loPI    C2 1490   3.089   8.264  11.097 -0.0047 -0.1633  0.0563
   94loPI    C3 1491   2.708   8.272  10.977  0.0014 -0.0171  0.0454
   94loPI   PO4 1492   3.100   7.814  10.832  0.2331 -0.1382  0.1099
   94loPI   GL1 1493   2.980   7.425  10.662  0.0455 -0.0472 -0.0221
   94loPI   GL2 1494   3.070   7.204  10.460  0.1068  0.3376 -0.2871
   94loPI   C1A 1495   2.998   7.675  10.182 -0.0251 -0.0252  0.2000
   94loPI   C2A 1496   3.043   7.659   9.716  0.1219  0.0878  0.4568
   94loPI   C3A 1497   3.044   7.623   9.256 -0.0081  0.0218  0.1684
   94loPI   C4A 1498   3.034   7.628   8.871 -0.0213  0.1709  0.0765
   94loPI   C5A 1499   3.055   7.578   8.470  0.0204  0.0113  0.0210
   94loPI   C6A 1500   2.895   7.638   8.011 -0.0303  0.1363 -0.1093
   94loPI   C1B 1501   2.903   7.233   9.953  0.1567 -0.2430  0.0795
   94loPI   C2B 1502   3.033   7.182   9.511 -0.4034  0.3491 -0.0859
   94loPI   C3B 1503   3.003   7.123   9.032  0.1353  0.1141 -0.2808
   94loPI   C4B 1504   2.984   7.135   8.595  0.0065 -0.0587 -0.0694
   95loPI    C1 1505  10.812  14.515  10.871  0.4010 -0.1896 -0.0209
   95loPI    C2 1506  11.129  14.309  11.002  0.3295 -0.0747  0.3457
   95loPI    C3 1507  10.806  14.347  11.234  0.1854  0.1121  0.1195
   95loPI   PO4 1508  11.051  14.643  10.655  0.1132 -0.1970  0.0934
   95loPI   GL1 1509  11.345  14.681  10.313 -0.2285 -0.1442 -0.0355
   95loPI   GL2 1510  11.240  15.032  10.225 -0.0380 -0.0728  0.1175
   95loPI   C1A 1511  11.220  14.615   9.869 -0.2640 -0.1665 -0.0088
   95loPI   C2A 1512  11.185  14.667   9.480 -0.0794  0.2237 -0.0799
   95loPI   C3A 1513  11.242  14.660   8.953 -0.0845  0.0092 -0.0588
   95loPI   C4A 1514  11.326  14.906   8.623 -0.2344 -0.0693  0.1277
   95loPI   C5A 1515  11.057  15.058   8.202  0.1207  0.0376  0.0944
   95loPI   C6A 1516  10.792  14.913   7.860  0.0131  0.0982  0.2667
   95loPI   C1B 1517  11.285  15.233   9.835 -0.1514  0.0789  0.0297
   95loPI   C2B 1518  11.154  15.215   9.452 -0.2721  0.0101 -0.1505
   95loPI   C3B 1519  11.244  15.179   8.991  0.0828 -0.2081  0.1023
   95loPI   C4B 1520  11.262  15.411   8.521  0.1451  0.3200 -0.1343
   96loPI    C1 1521   1.173  14.637  10.519 -0.1632 -0.1921 -0.0759
   96loPI    C2 1522   1.433  14.386  10.347  0.1157  0.1099 -0.1053
   96loPI    C3 1523   1.332  14.338  10.731  0.2766  0.0375 -0.0715
   96loPI   PO4 1524   0.966  14.621  10.326 -0.1995 -0.0544 -0.4546
   96loPI   GL1 1525   0.935  14.558   9.993  0.3595 -0.1083  0.1315
   96loPI   GL2 1526   1.214  14.538   9.847 -0.0428  0.0696 -0.0293
   96loPI   C1A 1527   0.795  14.443   9.538 -0.1277  0.2163 -0.1868
   96loPI   C2A 1528   0.810  14.357   9.078  0.0708  0.1821  0.2281
   96loPI   C3A 1529   0.762  14.303   8.619 -0.1125  0.1896  0.1614
   96loPI   C4A 1530   0.766  14.378   8.170  0.0957  0.1415  0.4111
   96loPI   C5A 1531   0.922  14.146   7.877 -0.1481 -0.3790  0.3138
   96loPI   C6A 1532   0.928  13.733   7.702  0.4125 -0.1983  0.0276
   96loPI   C1B 1533   1.282  14.632   9.334 -0.0128 -0.0237  0.1341
   96loPI   C2B 1534   1.287  14.610   8.871  0.0538  0.0004 -0.1037
   96loPI   C3B 1535   1.175  14.535   8.453 -0.0032 -0.1184 -0.2978
   96loPI   C4B 1536   1.262  14.634   8.029 -0.0373 -0.1526  0.1275
   97loPI    C1 1537  15.962  15.663  10.511 -0.1981  0.2078 -0.1467
   97loPI    C2 1538  16.111  15.863  10.825 -0.1721  0.1433 -0.1177
   97loPI    C3 1539  15.983  15.486  10.869 -0.1422  0.1242 -0.1910
   97loPI   PO4 1540  16.225  15.661  10.315  0.0682 -0.2206  0.2652
   97loPI   GL1 1541  16.480  15.867  10.021 -0.1448  0.3437 -0.0122
   97loPI   GL2 1542  16.263  15.947   9.898  0.1860 -0.2138 -0.0674
   97loPI   C1A 1543  16.735  15.859   9.635 -0.0679 -0.3230  0.1873
   97loPI   C2A 1544  16.743  15.876   9.264  0.1227 -0.1523 -0.2932
   97loPI   C3A 1545  16.796  15.688   8.957 -0.1327 -0.0493  0.2322
   97loPI   C4A 1546  16.754  15.668   8.447 -0.0930  0.1191 -0.1275
   97loPI   C5A 1547  17.041  15.588   8.097  0.1191  0.1215  0.1292
   97loPI   C6A 1548  17.242  15.204   7.977 -0.0842  0.0289  0.0807
   97loPI   C1B 1549  16.258  15.897   9.556  0.0462  0.0446  0.2565
   97loPI   C2B 1550  16.330  15.964   9.014  0.1633 -0.0464  0.2735
   97loPI   C3B 1551  16.251  15.852   8.522 -0.2390 -0.3142  0.2092
   97loPI   C4B 1552  16.070  15.868   8.135  0.0950 -0.1652  0.1071
   98loPI    C1 1553   9.519  16.254  10.746  0.0589  0.0657 -0.1828
   98loPI    C2 1554   9.333  16.445  10.448 -0.2426  0.0785  0.0104
   98loPI    C3 1555   9.276  16.561  10.827 -0.0829 -0.1161  0.0958
   98loPI   PO4 1556   9.751  16.256  10.620  0.1929 -0.0216 -0.2638
   98loPI   GL1 1557   9.834  16.441  10.247  0.0916  0.2507  0.0204
   98loPI   GL2 1558   9.932  16.645  10.075  0.0760 -0.0422 -0.0787
   98loPI   C1A 1559   9.974  16.111   9.979  0.0356  0.2943  0.2498
   98loPI   C2A 1560   9.938  16.002   9.420 -0.1187 -0.0290 -0.3181
   98loPI   C3A 1561   9.872  16.025   8.981 -0.1101  0.1414 -0.1537
   98loPI   C4A 1562   9.949  16.057   8.623  0.1839  0.1066  0.0732
   98loPI   C5A 1563  10.198  16.174   8.393  0.0614  0.1126  0.0869
   98loPI   C6A 1564  10.355  16.123   8.023 -0.2751  0.3008 -0.1734
   98loPI   C1B 1565   9.943  16.564   9.679 -0.0103  0.1520 -0.0358
   98loPI   C2B 1566   9.968  16.457   9.294 -0.3477  0.4391 -0.1781
   98loPI   C3B 1567   9.984  16.567   8.919 -0.0660 -0.1484  0.0117
   98loPI   C4B 1568   9.880  16.541   8.484 -0.0284  0.1469 -0.1069
   99loPI    C1 1569   5.981   4.108  10.754  0.1478 -0.2387 -0.0558
   99loPI    C2 1570   5.821   4.141  11.120  0.1461  0.0383 -0.0797
   99loPI    C3 1571   5.937   3.783  10.984 -0.0891 -0.1055  0.0915
   99loPI   PO4 1572   5.838   4.408  10.644 -0.3278  0.3432  0.2647
   99loPI   GL1 1573   5.711   4.429  10.233 -0.0788 -0.0424  0.0527
   99loPI   GL2 1574   5.831   4.728  10.158 -0.0900 -0.1841 -0.0290
   99loPI   C1A 1575   5.932   4.403   9.798  0.0446  0.0223 -0.4417
   99loPI   C2A 1576   5.799   4.467   9.344 -0.1013  0.4072  0.0425
   99loPI   C3A 1577   5.727   4.546   9.011 -0.2237 -0.1027  0.3524
   99loPI   C4A 1578   5.524   4.540   8.578  0.0459 -0.3433 -0.0470
   99loPI   C5A 1579   5.127   4.478   8.368  0.2269 -0.3019 -0.0872
   99loPI   C6A 1580   4.883   4.863   8.240  0.0803 -0.2867  0.2887
   99loPI   C1B 1581   5.788   4.904   9.728  0.1122 -0.2005  0.0429
   99loPI   C2B 1582   5.705   5.010   9.237 -0.1656 -0.2424 -0.4077
   99loPI   C3B 1583   5.774   5.061   8.782 -0.0862  0.1858  0.0323
   99loPI   C4B 1584   5.855   5.154   8.320 -0.0718  0.0774  0.1993
  100loPI    C1 1585  14.827  15.937  10.852 -0.0428 -0.0561  0.0017
  100loPI    C2 1586  14.756  16.261  10.629 -0.2400 -0.1972 -0.1438
  100loPI    C3 1587  14.724  16.281  11.027 -0.2410 -0.0357 -0.1514
  100loPI   PO4 1588  14.728  15.786  10.699  0.0317  0.3188 -0.0046
  100loPI   GL1 1589  14.793  15.545  10.356  0.1131 -0.0394  0.0348
  100loPI   GL2 1590  14.933  15.324  10.206 -0.2527  0.3086 -0.1001
  100loPI   C1A 1591  14.847  15.750   9.960  0.2006 -0.1222  0.4265
  100loPI   C2A 1592  14.903  15.674   9.505  0.0043  0.2931  0.0209
  100loPI   C3A 1593  14.883  15.746   8.998  0.4273  0.3416 -0.0859
  100loPI   C4A 1594  14.918  15.720   8.449  0.0794  0.0235 -0.1675
  100loPI   C5A 1595  14.991  15.572   8.022  0.0745  0.3419  0.1429
  100loPI   C6A 1596  14.890  15.712   7.639  0.2076  0.1788  0.0570
  100loPI   C1B 1597  15.022  15.192   9.761  0.0540 -0.1795 -0.0354
  100loPI   C2B 1598  14.953  15.151   9.396 -0.1459  0.0331  0.0238
  100loPI   C3B 1599  14.883  15.171   8.934  0.4132  0.2407 -0.4857
  100loPI   C4B 1600  14.893  15.222   8.526 -0.2409 -0.0123 -0.0333
  101loPI    C1 1601   4.774   2.709  10.719  0.0142 -0.1067 -0.3186
  101loPI    C2 1602   4.562   2.686  11.058  0.1793 -0.2674 -0.2244
  101loPI    C3 1603   4.800   3.001  10.992 -0.0567 -0.1046 -0.3137
  101loPI   PO4 1604   4.641   2.557  10.392 -0.1354 -0.4158  0.1602
  101loPI   GL1 1605   4.654   2.340   9.979 -0.1495 -0.0631  0.1865
  101loPI   GL2 1606   4.610   2.098   9.734 -0.1439  0.0705  0.0890
  101loPI   C1A 1607   4.537   2.527   9.587  0.2073 -0.0469 -0.2513
  101loPI   C2A 1608   4.477   2.614   9.173 -0.3463  0.0832  0.0833
  101loPI   C3A 1609   4.262   2.649   8.745  0.1674  0.1484  0.2353
  101loPI   C4A 1610   4.183   2.727   8.337  0.1178  0.1049  0.3761
  101loPI   C5A 1611   3.910   2.570   7.982 -0.1391 -0.1601 -0.1308
  101loPI   C6A 1612   3.812   2.320   7.624  0.1746  0.3212 -0.1524
  101loPI   C1B 1613   4.561   2.082   9.284 -0.2860 -0.3359  0.1200
  101loPI   C2B 1614   4.418   2.137   8.875  0.1618  0.0213 -0.0049
  101loPI   C3B 1615   4.156   2.258   8.517 -0.1324 -0.0077  0.1268
  101loPI   C4B 1616   4.145   2.147   8.105 -0.1231  0.1318 -0.0090
  102loPI    C1 1617  17.687   9.223  10.595  0.0182  0.3283  0.0944
  102loPI    C2 1618  17.830   9.314  10.958  0.0765  0.0554  0.1421
  102loPI    C3 1619  17.630   8.972  10.902 -0.2149  0.2475 -0.0129
  102loPI   PO4 1620  17.900   9.249  10.462 -0.0082 -0.3690  0.1568
  102loPI   GL1 1621  18.027   9.145  10.103 -0.0059  0.0750  0.0178
  102loPI   GL2 1622  18.322   9.020  10.112 -0.0633  0.1322 -0.2063
  102loPI   C1A 1623  17.881   9.120   9.745 -0.1186  0.0480 -0.1140
  102loPI   C2A 1624  17.904   9.034   9.246  0.0120 -0.2984  0.1365
  102loPI   C3A 1625  18.012   9.163   8.887 -0.0022  0.2845 -0.1308
  102loPI   C4A 1626  18.112   9.121   8.510 -0.1482  0.1337 -0.3549
  102loPI   C5A 1627  18.027   8.978   8.085  0.1484 -0.0408 -0.0069
  102loPI   C6A 1628  18.270   9.004   7.688 -0.0511  0.3830  0.0132
  102loPI   C1B 1629  18.409   8.825   9.655  0.2159 -0.0128 -0.1995
  102loPI   C2B 1630  18.481   8.777   9.335  0.1101  0.0786  0.0493
  102loPI   C3B 1631  18.521   8.842   8.918  0.0638  0.0599  0.0112
  102loPI   C4B 1632  18.424   8.705   8.475 -0.3694  0.1255 -0.0012
  103loPI    C1 1633  12.004   1.092  11.003 -0.0008  0.1021 -0.2316
  103loPI    C2 1634  12.219   0.886  11.270 -0.0480  0.0757 -0.2138
  103loPI    C3 1635  11.830   0.806  11.222 -0.1042  0.2684 -0.0933
  103loPI   PO4 1636  12.245   1.041  10.762 -0.1275 -0.0421  0.5020
  103loPI   GL1 1637  12.533   0.921  10.468  0.0667  0.0792 -0.2247
  103loPI   GL2 1638  12.711   0.691  10.451  0.1658 -0.3857  0.3061
  103loPI   C1A 1639  12.534   1.043  10.109  0.1940  0.3083  0.0507
  103loPI   C2A 1640  12.681   1.090   9.689 -0.1046  0.1132 -0.2952
  103loPI   C3A 1641  12.712   1.105   9.247  0.0274 -0.0549  0.1902
  103loPI   C4A 1642  12.781   1.148   8.865  0.1540 -0.0149 -0.1986
  103loPI   C5A 1643  12.780   1.118   8.412 -0.1840 -0.1510 -0.2601
  103loPI   C6A 1644  13.062   1.410   8.161 -0.1165  0.2073 -0.0811
  103loPI   C1B 1645  12.934   0.782  10.098  0.1535 -0.0804 -0.3727
  103loPI   C2B 1646  13.149   0.770   9.660  0.3177 -0.0425 -0.0692
  103loPI   C3B 1647  13.186   0.859   9.186 -0.0005 -0.3014 -0.0594
  103loPI   C4B 1648  13.289   0.826   8.642  0.1061 -0.0086 -0.2407
  104loPI    C1 1649   5.502  13.310  10.724  0.0628 -0.0097 -0.0142
  104loPI    C2 1650   5.686  13.653  10.633 -0.1333  0.0464 -0.2084
  104loPI    C3 1651   5.886  13.363  10.822  0.0077  0.3015  0.0424
  104loPI   PO4 1652   5.352  13.201  10.487  0.0494 -0.1941  0.2338
  104loPI   GL1 1653   5.065  13.236  10.137  0.1665  0.3974 -0.0521
  104loPI   GL2 1654   5.371  13.298   9.910 -0.2114  0.0211  0.1583
  104loPI   C1A 1655   4.961  13.105   9.693 -0.0388  0.2817 -0.2097
  104loPI   C2A 1656   4.842  13.005   9.227  0.1285  0.0118 -0.0315
  104loPI   C3A 1657   4.945  13.017   8.791 -0.1633 -0.2700 -0.1994
  104loPI   C4A 1658   4.833  13.015   8.295 -0.0872  0.1870 -0.2146
  104loPI   C5A 1659   4.695  12.713   8.020  0.2328  0.0896 -0.1459
  104loPI   C6A 1660   4.272  12.663   7.861  0.1103 -0.1887 -0.0954
  104loPI   C1B 1661   5.335  13.305   9.482 -0.1108 -0.1967 -0.0103
  104loPI   C2B 1662   5.322  13.330   9.000  0.2324 -0.3788  0.1903
  104loPI   C3B 1663   5.367  13.194   8.578  0.1452  0.3607 -0.0696
  104loPI   C4B 1664   5.328  13.189   8.203  0.0668  0.0239  0.0081
  105loPI    C1 1665   9.366   2.488   9.796  0.1775  0.0084 -0.0159
  105loPI    C2 1666   9.352   2.462  10.194 -0.1356  0.0108 -0.0247
  105loPI    C3 1667   9.644   2.278   9.992 -0.0579 -0.1108  0.1944
  105loPI   PO4 1668   9.319   2.764   9.753  0.1045  0.1366 -0.1818
  105loPI   GL1 1669   9.398   2.955   9.404  0.0713 -0.3501  0.0023
  105loPI   GL2 1670   9.601   3.107   9.274 -0.1388  0.1307 -0.1637
  105loPI   C1A 1671   9.477   2.700   9.018  0.5126  0.0162 -0.1691
  105loPI   C2A 1672   9.545   2.718   8.576  0.3270  0.2260  0.0905
  105loPI   C3A 1673   9.586   2.572   8.161 -0.1351  0.0273  0.1566
  105loPI   C4A 1674   9.721   2.605   7.736 -0.1427 -0.1818 -0.0180
  105loPI   C5A 1675   9.677   2.624   7.280  0.0858  0.0999 -0.3191
  105loPI   C6A 1676   9.416   2.847   7.033  0.1074 -0.0720  0.1393
  105loPI   C1B 1677   9.592   3.197   8.768 -0.0634 -0.1434 -0.0562
  105loPI   C2B 1678   9.609   3.114   8.345 -0.1054  0.0428 -0.1461
  105loPI   C3B 1679   9.642   3.068   7.945  0.0261  0.2217  0.1596
  105loPI   C4B 1680   9.523   3.092   7.537 -0.1724 -0.0666 -0.0488
  106loPI    C1 1681   1.547  11.044  11.110  0.0149 -0.1177 -0.0629
  106loPI    C2 1682   1.850  10.816  10.982  0.2727  0.1516  0.0571
  106loPI    C3 1683   1.839  10.938  11.362  0.0245  0.1641  0.0474
  106loPI   PO4 1684   1.482  11.117  10.832  0.0969 -0.0315  0.2171
  106loPI   GL1 1685   1.623  11.005  10.350 -0.2821 -0.2461  0.2879
  106loPI   GL2 1686   1.331  11.224  10.171 -0.0263 -0.0229  0.0717
  106loPI   C1A 1687   1.680  11.140   9.885  0.2072 -0.2352  0.1579
  106loPI   C2A 1688   1.661  11.214   9.461 -0.1513 -0.2846 -0.0953
  106loPI   C3A 1689   1.663  11.214   9.122 -0.1943  0.2331  0.2004
  106loPI   C4A 1690   1.610  11.298   8.669 -0.0528  0.1742  0.2348
  106loPI   C5A 1691   1.373  11.161   8.346  0.0250  0.1981  0.1185
  106loPI   C6A 1692   0.923  11.329   8.190  0.2488  0.0628  0.0903
  106loPI   C1B 1693   1.230  11.380   9.814 -0.2039 -0.2850  0.1036
  106loPI   C2B 1694   1.276  11.424   9.464  0.0439 -0.2132 -0.1122
  106loPI   C3B 1695   1.235  11.493   9.008  0.1318 -0.1464  0.0625
  106loPI   C4B 1696   1.087  11.535   8.546 -0.3278 -0.1840 -0.2730
  107loPI    C1 1697  13.037   2.766  10.860 -0.0835  0.0746 -0.0379
  107loPI    C2 1698  12.764   3.003  11.030 -0.2406 -0.1037 -0.0389
  107loPI    C3 1699  12.949   2.723  11.248 -0.0004  0.0674 -0.0196
  107loPI   PO4 1700  12.950   2.622  10.679  0.0102 -0.0775  0.0062
  107loPI   GL1 1701  12.931   2.596  10.248 -0.0134 -0.0799  0.1242
  107loPI   GL2 1702  13.115   2.396  10.192 -0.1674  0.1351 -0.0557
  107loPI   C1A 1703  12.780   2.633   9.782  0.0860 -0.0237  0.2824
  107loPI   C2A 1704  12.721   2.607   9.392  0.1049  0.0562 -0.1078
  107loPI   C3A 1705  12.714   2.616   8.953 -0.0440 -0.0387  0.1278
  107loPI   C4A 1706  13.032   2.540   8.723  0.0915  0.0478  0.0922
  107loPI   C5A 1707  13.056   2.673   8.309  0.4366  0.3259 -0.2718
  107loPI   C6A 1708  13.088   3.135   8.133 -0.1104 -0.1192 -0.1237
  107loPI   C1B 1709  13.198   2.329   9.819 -0.1944  0.0320  0.5837
  107loPI   C2B 1710  13.220   2.365   9.319 -0.0375 -0.0376  0.1255
  107loPI   C3B 1711  13.409   2.282   8.937 -0.3283 -0.7588 -0.0089
  107loPI   C4B 1712  13.428   2.321   8.522 -0.0956  0.1555  0.0256
  108loPI    C1 1713   8.243   1.662   9.990 -0.0809 -0.0762  0.0732
  108loPI    C2 1714   7.873   1.806   9.948 -0.0954 -0.1437 -0.0354
  108loPI    C3 1715   8.071   1.861  10.291 -0.1429  0.0362 -0.0356
  108loPI   PO4 1716   8.323   1.721   9.711 -0.0381  0.0339  0.0381
  108loPI   GL1 1717   8.657   1.849   9.489  0.0203 -0.1455  0.0770
  108loPI   GL2 1718   8.347   1.994   9.320  0.1371  0.5155 -0.0780
  108loPI   C1A 1719   8.855   2.039   9.153 -0.1171 -0.0456 -0.0887
  108loPI   C2A 1720   8.760   2.102   8.777  0.2886 -0.0726 -0.3450
  108loPI   C3A 1721   8.795   2.069   8.292 -0.0941  0.2156  0.1465
  108loPI   C4A 1722   8.868   2.107   7.883 -0.0406  0.0886  0.0798
  108loPI   C5A 1723   9.346   2.075   7.832 -0.0663  0.1344 -0.1106
  108loPI   C6A 1724   9.804   2.141   8.033 -0.1474  0.0837  0.1081
  108loPI   C1B 1725   8.279   2.212   8.913  0.3438 -0.0306 -0.1012
  108loPI   C2B 1726   8.281   2.229   8.468  0.1344 -0.1722  0.0898
  108loPI   C3B 1727   8.056   2.195   8.066  0.4427  0.1626 -0.1437
  108loPI   C4B 1728   7.667   2.383   7.912 -0.0609  0.0998  0.1114
  109loPI    C1 1729   3.176  11.301  10.656  0.1264 -0.0182  0.0533
  109loPI    C2 1730   3.078  11.663  10.796 -0.1716 -0.0434 -0.0809
  109loPI    C3 1731   3.288  11.410  11.024  0.2943  0.3180 -0.0934
  109loPI   PO4 1732   3.004  11.278  10.514 -0.1131  0.1263 -0.1241
  109loPI   GL1 1733   2.923  11.196  10.100 -0.1361  0.1439  0.0407
  109loPI   GL2 1734   2.625  11.188   9.997 -0.0068 -0.1733  0.1752
  109loPI   C1A 1735   2.980  11.028   9.608 -0.0241  0.3081 -0.0923
  109loPI   C2A 1736   3.019  11.063   9.169 -0.1518 -0.4406 -0.2508
  109loPI   C3A 1737   2.930  11.010   8.666  0.0931 -0.3522 -0.0866
  109loPI   C4A 1738   2.877  10.738   8.390  0.0523 -0.1486 -0.4881
  109loPI   C5A 1739   2.636  10.667   8.084 -0.1044  0.1135 -0.0337
  109loPI   C6A 1740   2.542  10.950   7.712 -0.2820 -0.0893  0.2767
  109loPI   C1B 1741   2.557  11.191   9.531  0.1392 -0.1971 -0.3625
  109loPI   C2B 1742   2.499  11.135   9.102 -0.0189 -0.1848 -0.2818
  109loPI   C3B 1743   2.514  11.271   8.702 -0.1914 -0.0714  0.0266
  109loPI   C4B 1744   2.414  11.027   8.283  0.2714  0.3492  0.0851
  110loPI    C1 1745  15.771  16.181  10.556 -0.1218  0.0482 -0.0628
  110loPI    C2 1746  15.573  15.889  10.743 -0.1719  0.0824 -0.0622
  110loPI    C3 1747  15.731  16.190  10.954  0.0385 -0.0392 -0.0438
  110loPI   PO4 1748  15.628  16.326  10.371  0.1752  0.2086 -0.2367
  110loPI   GL1 1749  15.360  16.289  10.115 -0.0413 -0.1258  0.1220
  110loPI   GL2 1750  15.078  16.322  10.052  0.2643  0.0038  0.0258
  110loPI   C1A 1751  15.376  16.467   9.667 -0.2441  0.1720  0.2566
  110loPI   C2A 1752  15.322  16.514   9.331 -0.0767  0.3423 -0.0823
  110loPI   C3A 1753  15.425  16.527   8.832 -0.0940 -0.1115 -0.1410
  110loPI   C4A 1754  15.479  16.431   8.522  0.0248 -0.1630  0.1655
  110loPI   C5A 1755  15.718  16.709   8.215  0.0263 -0.0839 -0.0688
  110loPI   C6A 1756  15.607  16.697   7.792 -0.1831  0.2864 -0.2299
  110loPI   C1B 1757  14.863  16.190   9.717  0.0860 -0.0609  0.1507
  110loPI   C2B 1758  14.907  16.125   9.387 -0.0893 -0.1119  0.0609
  110loPI   C3B 1759  14.938  16.297   9.040  0.4317  0.0582 -0.1371
  110loPI   C4B 1760  14.986  16.190   8.691 -0.2310  0.2176  0.1086
  111loPI    C1 1761  14.371  10.356  10.165 -0.1696  0.2220  0.1194
  111loPI    C2 1762  14.487  10.620  10.443  0.1098  0.0745  0.1461
  111loPI    C3 1763  14.333  10.268  10.553  0.0542  0.0886  0.1130
  111loPI   PO4 1764  14.255  10.466  10.010  0.1734 -0.1577 -0.1043
  111loPI   GL1 1765  14.344  10.424   9.589 -0.2028  0.1586 -0.0980
  111loPI   GL2 1766  14.516  10.675   9.548  0.0713 -0.2106  0.0946
  111loPI   C1A 1767  14.407  10.453   9.076 -0.3330 -0.0975 -0.0776
  111loPI   C2A 1768  14.407  10.409   8.685 -0.1246  0.3210  0.2015
  111loPI   C3A 1769  14.367  10.246   8.322 -0.0716 -0.0771  0.0735
  111loPI   C4A 1770  14.402  10.326   7.924  0.3097  0.0050  0.2947
  111loPI   C5A 1771  14.590  10.590   7.678  0.3250  0.3172 -0.2947
  111loPI   C6A 1772  14.899  10.808   7.739  0.0006 -0.2445  0.2274
  111loPI   C1B 1773  14.822  10.714   9.177 -0.2439 -0.1488 -0.2223
  111loPI   C2B 1774  14.794  10.763   8.785 -0.3873  0.0576  0.0059
  111loPI   C3B 1775  14.885  10.577   8.412 -0.0051  0.1633  0.0754
  111loPI   C4B 1776  14.887  10.412   8.025 -0.2809  0.1894 -0.4693
  112loPI    C1 1777   9.691   3.957  10.276  0.0178 -0.1338  0.0532
  112loPI    C2 1778   9.516   3.916  10.634  0.0025  0.1399  0.0791
  112loPI    C3 1779   9.881   3.766  10.572 -0.0116  0.0558  0.1965
  112loPI   PO4 1780   9.460   3.851  10.119  0.0429  0.1768  0.0965
  112loPI   GL1 1781   9.275   3.810   9.717 -0.0463 -0.0201 -0.4222
  112loPI   GL2 1782   9.307   3.512   9.511 -0.2215  0.0388  0.0528
  112loPI   C1A 1783   9.401   4.037   9.287  0.2307  0.2297 -0.1492
  112loPI   C2A 1784   9.559   4.028   8.786  0.4162  0.2117  0.2362
  112loPI   C3A 1785   9.713   4.120   8.388 -0.2167 -0.1326  0.1745
  112loPI   C4A 1786   9.669   4.268   7.964  0.0693  0.3086 -0.1150
  112loPI   C5A 1787   9.354   4.368   7.856  0.1141 -0.1455  0.3821
  112loPI   C6A 1788   8.865   4.226   7.906 -0.1312 -0.1087 -0.4775
  112loPI   C1B 1789   9.476   3.542   9.029 -0.0984 -0.0198  0.0257
  112loPI   C2B 1790   9.714   3.608   8.550  0.2526 -0.2507 -0.3499
  112loPI   C3B 1791   9.735   3.714   8.091  0.1818 -0.2169 -0.1793
  112loPI   C4B 1792   9.447   3.925   7.730 -0.0797 -0.0597  0.0290
  113loPI    C1 1793   8.695   1.281  10.389  0.0980 -0.0260  0.0010
  113loPI    C2 1794   8.456   1.596  10.450  0.1329  0.0196 -0.0969
  113loPI    C3 1795   8.623   1.410  10.761  0.0526  0.0516 -0.0341
  113loPI   PO4 1796   8.507   1.206  10.141 -0.2213  0.0908  0.0873
  113loPI   GL1 1797   8.601   1.295   9.665  0.0671 -0.1025  0.1561
  113loPI   GL2 1798   8.966   1.297   9.621  0.3420 -0.0022  0.2364
  113loPI   C1A 1799   8.646   1.071   9.269  0.1671 -0.1488  0.1621
  113loPI   C2A 1800   8.546   1.178   8.845 -0.0365 -0.0198  0.3122
  113loPI   C3A 1801   8.499   1.189   8.394 -0.1651  0.1062 -0.2892
  113loPI   C4A 1802   8.502   1.263   8.008 -0.0195 -0.0422  0.1831
  113loPI   C5A 1803   8.637   1.466   7.619  0.0067  0.0175 -0.1052
  113loPI   C6A 1804   8.275   1.614   7.333 -0.1227 -0.0952 -0.1386
  113loPI   C1B 1805   8.866   1.461   9.269 -0.1904  0.1932  0.1491
  113loPI   C2B 1806   8.901   1.598   8.936 -0.0131  0.0487  0.2630
  113loPI   C3B 1807   8.903   1.506   8.599  0.0619  0.2338  0.4687
  113loPI   C4B 1808   8.901   1.531   8.132 -0.1358 -0.3862  0.1522
  114loPI    C1 1809   8.827  11.683  10.602 -0.1750 -0.0239  0.1712
  114loPI    C2 1810   8.891  12.075  10.645 -0.1044 -0.0145 -0.0108
  114loPI    C3 1811   8.843  11.844  10.967 -0.2555  0.1608  0.0945
  114loPI   PO4 1812   8.637  11.620  10.400  0.2970  0.0527 -0.1339
  114loPI   GL1 1813   8.664  11.867  10.111 -0.2443 -0.0496 -0.0823
  114loPI   GL2 1814   8.926  11.991  10.135 -0.3485 -0.0477 -0.2991
  114loPI   C1A 1815   8.514  11.953   9.641 -0.1594  0.2306 -0.0293
  114loPI   C2A 1816   8.524  11.991   9.159  0.1802 -0.1737 -0.0950
  114loPI   C3A 1817   8.523  12.030   8.679 -0.0697  0.1503 -0.2369
  114loPI   C4A 1818   8.553  11.950   8.275  0.0598 -0.1115  0.2508
  114loPI   C5A 1819   8.312  11.938   7.850  0.0609 -0.1651  0.0143
  114loPI   C6A 1820   8.167  11.686   7.661 -0.0922 -0.1560  0.2677
  114loPI   C1B 1821   8.970  12.156   9.699  0.0687 -0.2518 -0.1260
  114loPI   C2B 1822   8.955  12.160   9.313  0.1550 -0.2711 -0.2742
  114loPI   C3B 1823   9.002  12.230   8.878  0.0873 -0.0613  0.4630
  114loPI   C4B 1824   9.090  12.188   8.427 -0.1597  0.1058 -0.0070
  115loPI    C1 1825   1.991  17.539  10.362  0.0327 -0.0356 -0.1713
  115loPI    C2 1826   1.890  17.240  10.608 -0.0072  0.0894 -0.0345
  115loPI    C3 1827   1.974  17.602  10.757 -0.0524  0.1717 -0.2069
  115loPI   PO4 1828   1.977  17.452  10.199 -0.0276 -0.1572  0.2142
  115loPI   GL1 1829   1.729  17.447   9.798 -0.0824  0.1802  0.0822
  115loPI   GL2 1830   1.510  17.361   9.789  0.1110  0.2156 -0.0104
  115loPI   C1A 1831   1.755  17.586   9.359 -0.2423  0.1546  0.3424
  115loPI   C2A 1832   1.814  17.832   8.944 -0.0886  0.1858  0.0124
  115loPI   C3A 1833   1.855  17.925   8.553  0.0594  0.1161  0.1738
  115loPI   C4A 1834   1.682  18.106   8.116 -0.1281  0.2161  0.1960
  115loPI   C5A 1835   1.330  18.248   7.826 -0.1596 -0.2185 -0.1440
  115loPI   C6A 1836   0.997  18.452   7.952  0.0813 -0.4523 -0.2772
  115loPI   C1B 1837   1.270  17.290   9.423 -0.1666 -0.0869  0.0751
  115loPI   C2B 1838   1.210  17.233   9.051 -0.1192  0.1586  0.0159
  115loPI   C3B 1839   1.383  17.168   8.596 -0.0268 -0.0196 -0.3669
  115loPI   C4B 1840   1.356  17.202   8.149  0.1979  0.2917  0.1353
  116loPI    C1 1841   2.355   7.802  11.131 -0.0774 -0.1063 -0.0763
  116loPI    C2 1842   2.616   7.700  11.417 -0.0426 -0.1774 -0.1331
  116loPI    C3 1843   2.249   7.823  11.517  0.1039  0.1980 -0.0396
  116loPI   PO4 1844   2.503   7.621  10.929  0.1083  0.1685  0.2038
  116loPI   GL1 1845   2.311   7.457  10.539  0.2275 -0.1829  0.1819
  116loPI   GL2 1846   2.093   7.279  10.394 -0.1377  0.0262 -0.1978
  116loPI   C1A 1847   2.535   7.493  10.218 -0.0523  0.0765 -0.0604
  116loPI   C2A 1848   2.486   7.456   9.773  0.2197  0.0892 -0.3246
  116loPI   C3A 1849   2.479   7.449   9.376 -0.0783  0.0813  0.0660
  116loPI   C4A 1850   2.554   7.355   8.977  0.0245  0.1254  0.3321
  116loPI   C5A 1851   2.529   7.437   8.448  0.0892 -0.0878  0.1222
  116loPI   C6A 1852   2.427   7.835   8.099 -0.0350 -0.3003  0.0438
  116loPI   C1B 1853   2.106   7.252   9.973  0.1471 -0.1051 -0.2338
  116loPI   C2B 1854   1.988   7.248   9.559 -0.0074 -0.1319  0.1719
  116loPI   C3B 1855   1.959   7.165   9.102  0.2016 -0.0844  0.2405
  116loPI   C4B 1856   2.158   7.115   8.758  0.0274  0.2103  0.1030
  117loPI    C1 1857   4.909  18.201  10.279  0.0928 -0.0547  0.1488
  117loPI    C2 1858   4.547  18.270  10.123  0.2848 -0.1146 -0.3384
  117loPI    C3 1859   4.588  18.226  10.518 -0.1843  0.2423 -0.2401
  117loPI   PO4 1860   5.100  18.437  10.087  0.1748 -0.2325  0.0940
  117loPI   GL1 1861   5.184  18.326   9.687  0.1464  0.2061  0.0586
  117loPI   GL2 1862   5.167  18.585   9.612  0.1411  0.1895  0.1043
  117loPI   C1A 1863   5.296  18.191   9.324 -0.4726  0.1281 -0.3950
  117loPI   C2A 1864   5.170  18.092   8.960 -0.0146 -0.3237 -0.3336
  117loPI   C3A 1865   5.154  18.066   8.558  0.1873 -0.1400 -0.0039
  117loPI   C4A 1866   4.996  17.983   8.194  0.0649  0.2783 -0.0016
  117loPI   C5A 1867   5.221  18.116   7.785 -0.0278 -0.1414 -0.2822
  117loPI   C6A 1868   5.299  18.128   7.333  0.5712 -0.0503 -0.0992
  117loPI   C1B 1869   5.106  18.585   9.127  0.0792  0.2633  0.0186
  117loPI   C2B 1870   5.067  18.582   8.614  0.3477  0.2043 -0.0261
  117loPI   C3B 1871   5.008  18.480   8.260  0.0459 -0.3203 -0.1370
  117loPI   C4B 1872   4.781  18.287   7.827 -0.1266 -0.1444  0.2811
  118loPI    C1 1873   4.181  14.635  10.604 -0.1614  0.0052  0.0612
  118loPI    C2 1874   3.803  14.626  10.734 -0.1457 -0.2522  0.0939
  118loPI    C3 1875   4.100  14.502  10.972 -0.0759 -0.3590 -0.0474
  118loPI   PO4 1876   4.152  14.607  10.318 -0.1240  0.0966  0.0204
  118loPI   GL1 1877   4.250  14.858   9.940 -0.0444 -0.1097  0.4131
  118loPI   GL2 1878   4.035  14.611   9.863 -0.1445  0.0396 -0.0358
  118loPI   C1A 1879   4.279  14.962   9.620  0.0887  0.0626  0.2842
  118loPI   C2A 1880   4.347  14.955   9.246  0.1040 -0.1148  0.2330
  118loPI   C3A 1881   4.454  14.810   8.847 -0.2062  0.1071  0.0233
  118loPI   C4A 1882   4.428  14.733   8.429 -0.1110  0.4161 -0.4012
  118loPI   C5A 1883   4.562  14.594   8.141  0.0537 -0.1190 -0.2104
  118loPI   C6A 1884   4.750  14.672   7.704  0.1492 -0.2430 -0.0195
  118loPI   C1B 1885   3.913  14.706   9.403 -0.2177  0.1619  0.1341
  118loPI   C2B 1886   3.875  14.631   9.054  0.0696  0.1702 -0.0440
  118loPI   C3B 1887   4.030  14.489   8.649  0.0705 -0.2335  0.2054
  118loPI   C4B 1888   4.094  14.333   8.210 -0.1913  0.1578 -0.1346
  119loPI    C1 1889  11.548  17.056  10.707  0.2021  0.1350  0.0142
  119loPI    C2 1890  11.621  17.214  11.068  0.0882 -0.0378  0.1140
  119loPI    C3 1891  11.267  17.273  10.891  0.1139 -0.0228  0.0677
  119loPI   PO4 1892  11.766  17.089  10.596 -0.0785  0.1828 -0.0937
  119loPI   GL1 1893  11.970  16.721  10.372 -0.0164  0.0529  0.2221
  119loPI   GL2 1894  12.144  16.781  10.130 -0.4181  0.1183 -0.0862
  119loPI   C1A 1895  11.785  16.559   9.934  0.2985  0.1203 -0.0895
  119loPI   C2A 1896  11.749  16.494   9.609 -0.0623  0.2600 -0.1234
  119loPI   C3A 1897  11.827  16.520   9.223  0.0860 -0.1183 -0.0519
  119loPI   C4A 1898  11.770  16.557   8.883 -0.1264  0.0370 -0.2662
  119loPI   C5A 1899  11.549  16.711   8.525 -0.0577  0.0225 -0.1237
  119loPI   C6A 1900  11.280  16.932   8.287  0.0242  0.0260  0.1539
  119loPI   C1B 1901  12.210  16.785   9.743  0.1341 -0.0895  0.0560
  119loPI   C2B 1902  12.246  16.790   9.276  0.1105 -0.0616 -0.0218
  119loPI   C3B 1903  12.253  16.871   8.872 -0.1580 -0.1678 -0.1273
  119loPI   C4B 1904  12.353  16.924   8.459  0.1027  0.1014 -0.0079
  120loPI    C1 1905   6.270  13.080  10.593  0.2791  0.2097 -0.0119
  120loPI    C2 1906   6.378  12.710  10.702  0.0242  0.1296 -0.0241
  120loPI    C3 1907   6.194  12.950  10.963 -0.0986  0.1325 -0.1126
  120loPI   PO4 1908   6.268  13.063  10.255  0.0150  0.0632 -0.0346
  120loPI   GL1 1909   6.194  13.304   9.894  0.0503 -0.1065  0.1455
  120loPI   GL2 1910   5.895  13.074   9.862  0.0010  0.0611 -0.0723
  120loPI   C1A 1911   6.228  13.259   9.460  0.0105 -0.0976 -0.0363
  120loPI   C2A 1912   6.209  13.223   9.077 -0.0647 -0.2868 -0.1412
  120loPI   C3A 1913   6.359  13.265   8.727  0.0772  0.0454 -0.0263
  120loPI   C4A 1914   6.331  13.359   8.345  0.1486  0.3325  0.2761
  120loPI   C5A 1915   6.645  13.467   7.981  0.0125  0.0558  0.0914
  120loPI   C6A 1916   6.721  13.506   7.568 -0.0889 -0.2024  0.2265
  120loPI   C1B 1917   5.714  12.974   9.407 -0.1429 -0.1235  0.4173
  120loPI   C2B 1918   5.767  13.038   8.967 -0.2953  0.2212 -0.2946
  120loPI   C3B 1919   5.836  12.989   8.622 -0.0535  0.1076  0.1566
  120loPI   C4B 1920   5.844  13.035   8.087 -0.0083  0.3566 -0.0293
  121loPI    C1 1921   1.752  16.988  10.136 -0.1377  0.0484 -0.1675
  121loPI    C2 1922   1.816  16.728  10.433  0.2029  0.2454 -0.0623
  121loPI    C3 1923   1.967  16.657  10.070  0.0318  0.1470 -0.1156
  121loPI   PO4 1924   1.495  17.107  10.335 -0.2738  0.0992  0.0888
  121loPI   GL1 1925   1.044  17.143  10.144 -0.1517 -0.2740 -0.0071
  121loPI   GL2 1926   0.816  17.317  10.225  0.1748  0.1244  0.1628
  121loPI   C1A 1927   0.912  17.032   9.695 -0.1745  0.0157 -0.2797
  121loPI   C2A 1928   0.859  16.981   9.291 -0.3622  0.0218 -0.0411
  121loPI   C3A 1929   0.912  16.920   8.861 -0.1133  0.1357  0.1555
  121loPI   C4A 1930   0.944  16.995   8.380  0.2031 -0.2779  0.0088
  121loPI   C5A 1931   0.982  16.893   7.948  0.1559 -0.0297  0.0303
  121loPI   C6A 1932   0.989  17.085   7.488 -0.0953 -0.0249 -0.1314
  121loPI   C1B 1933   0.504  17.250   9.848  0.0111 -0.1367 -0.2039
  121loPI   C2B 1934   0.445  17.256   9.532  0.2074 -0.1555 -0.0986
  121loPI   C3B 1935   0.395  17.196   9.026  0.0317 -0.2321 -0.3598
  121loPI   C4B 1936   0.507  17.177   8.672  0.0241  0.0478  0.2387
  122loPI    C1 1937   7.040  14.019  10.478  0.0610  0.0377  0.1341
  122loPI    C2 1938   6.823  14.345  10.559  0.0190 -0.0003  0.1749
  122loPI    C3 1939   7.123  14.239  10.801  0.0266  0.0029  0.1667
  122loPI   PO4 1940   6.817  13.923  10.322  0.4881 -0.2649  0.0092
  122loPI   GL1 1941   6.655  13.961   9.942  0.4509 -0.1288 -0.0815
  122loPI   GL2 1942   6.401  13.831   9.930  0.1394  0.0635  0.0547
  122loPI   C1A 1943   6.666  14.051   9.477  0.0826  0.0713  0.0330
  122loPI   C2A 1944   6.734  14.064   9.051 -0.0389  0.1765 -0.2034
  122loPI   C3A 1945   6.718  14.051   8.642 -0.1585  0.2894  0.3338
  122loPI   C4A 1946   6.773  14.021   8.255 -0.0529  0.3103  0.2423
  122loPI   C5A 1947   6.716  14.016   7.767 -0.1745  0.0426  0.1742
  122loPI   C6A 1948   6.387  13.852   7.561 -0.3807  0.0789 -0.0048
  122loPI   C1B 1949   6.195  13.730   9.568  0.0861 -0.0225  0.1613
  122loPI   C2B 1950   6.177  13.799   9.148 -0.1815 -0.0366  0.0188
  122loPI   C3B 1951   6.284  13.850   8.672 -0.1500  0.0114 -0.0205
  122loPI   C4B 1952   6.217  13.816   8.210 -0.3648  0.2150 -0.3068
  123loPI    C1 1953  14.891   9.769  10.197  0.0123  0.0423 -0.1770
  123loPI    C2 1954  14.780  10.141  10.294 -0.1096 -0.0225 -0.0633
  123loPI    C3 1955  14.514   9.843  10.310 -0.0219 -0.1086 -0.1901
  123loPI   PO4 1956  14.989   9.802   9.986  0.0719  0.2899  0.1786
  123loPI   GL1 1957  15.080  10.174   9.785  0.1702  0.0346  0.1564
  123loPI   GL2 1958  14.882  10.211   9.572 -0.3079  0.0084  0.0250
  123loPI   C1A 1959  15.282   9.937   9.403  0.1492  0.1517 -0.1183
  123loPI   C2A 1960  15.273   9.936   8.964 -0.4129  0.0025 -0.1070
  123loPI   C3A 1961  15.226   9.790   8.576 -0.0755  0.0808 -0.0016
  123loPI   C4A 1962  15.169   9.644   8.131  0.0487  0.1420 -0.3538
  123loPI   C5A 1963  15.306   9.249   7.843  0.0982 -0.0393 -0.1468
  123loPI   C6A 1964  15.612   9.148   7.883  0.4109  0.0670  0.0669
  123loPI   C1B 1965  14.864  10.176   9.162  0.1972  0.0843 -0.2029
  123loPI   C2B 1966  14.829  10.077   8.744  0.0339  0.0996 -0.0228
  123loPI   C3B 1967  14.868  10.037   8.352 -0.1226  0.1311  0.2808
  123loPI   C4B 1968  14.672   9.918   7.959 -0.1071 -0.1435  0.1093
  124loPI    C1 1969  11.857   3.700  10.432  0.0682  0.3864  0.1294
  124loPI    C2 1970  11.788   3.435  10.724 -0.0318  0.1310 -0.1212
  124loPI    C3 1971  11.741   3.826  10.793 -0.2826  0.0583  0.1382
  124loPI   PO4 1972  11.786   3.623  10.251 -0.0075  0.1262 -0.0798
  124loPI   GL1 1973  12.008   3.418   9.902 -0.0883 -0.0664  0.0307
  124loPI   GL2 1974  12.119   3.722   9.697  0.2395 -0.2200  0.1103
  124loPI   C1A 1975  12.047   3.200   9.614  0.0134  0.1712  0.0184
  124loPI   C2A 1976  12.008   3.215   9.159  0.0221 -0.1224 -0.0441
  124loPI   C3A 1977  11.886   3.379   8.768 -0.5208 -0.0239 -0.0477
  124loPI   C4A 1978  11.869   3.247   8.279 -0.0129 -0.3189  0.1999
  124loPI   C5A 1979  11.718   2.941   7.952 -0.2570  0.1983 -0.0816
  124loPI   C6A 1980  11.566   2.781   7.544  0.4393  0.4070  0.0312
  124loPI   C1B 1981  11.888   3.632   9.384  0.1643 -0.1302 -0.1108
  124loPI   C2B 1982  11.804   3.869   8.997 -0.3436 -0.2875 -0.0489
  124loPI   C3B 1983  11.958   3.861   8.584 -0.0418 -0.0938 -0.1950
  124loPI   C4B 1984  12.061   3.827   8.171  0.2309 -0.0618  0.0561
  125loPI    C1 1985   4.458   9.351  10.881 -0.0747  0.1072  0.1194
  125loPI    C2 1986   4.371   8.963  10.923 -0.2385  0.1439  0.1250
  125loPI    C3 1987   4.625   9.139  11.176  0.0188 -0.0138 -0.0185
  125loPI   PO4 1988   4.356   9.339  10.604 -0.2866  0.0875  0.0525
  125loPI   GL1 1989   4.283   9.311  10.193  0.4367 -0.1380 -0.0557
  125loPI   GL2 1990   4.627   9.349  10.224  0.4108 -0.1498  0.1693
  125loPI   C1A 1991   4.399   9.501   9.783 -0.0717  0.2713  0.1069
  125loPI   C2A 1992   4.515   9.467   9.321 -0.0365 -0.1366  0.0784
  125loPI   C3A 1993   4.289   9.567   8.874  0.1255  0.0357 -0.0605
  125loPI   C4A 1994   4.323   9.474   8.474  0.3273  0.3910  0.2231
  125loPI   C5A 1995   4.418   9.590   8.033  0.1645  0.2582 -0.0136
  125loPI   C6A 1996   4.455   9.347   7.551  0.2077  0.1803 -0.1302
  125loPI   C1B 1997   4.894   9.324   9.880 -0.0342 -0.1329 -0.1404
  125loPI   C2B 1998   4.923   9.290   9.513  0.0464  0.0651  0.0729
  125loPI   C3B 1999   4.916   9.268   9.135  0.0407 -0.3268 -0.0594
  125loPI   C4B 2000   4.737   9.207   8.720 -0.0489 -0.1135  0.0240
  126loPI    C1 2001   9.695  13.548  10.908  0.2345  0.1394  0.2263
  126loPI    C2 2002   9.964  13.343  11.123  0.0584 -0.1651  0.1629
  126loPI    C3 2003   9.715  13.598  11.305  0.0727 -0.2385  0.2861
  126loPI   PO4 2004   9.800  13.456  10.639  0.0077  0.0695 -0.1529
  126loPI   GL1 2005   9.748  13.701  10.294 -0.1047 -0.0631  0.3586
  126loPI   GL2 2006   9.528  13.494  10.198 -0.0631  0.1264  0.0807
  126loPI   C1A 2007   9.905  13.824   9.863 -0.0346  0.2711 -0.1213
  126loPI   C2A 2008   9.907  13.694   9.523  0.0365 -0.0823 -0.2869
  126loPI   C3A 2009   9.906  13.762   9.130 -0.2763 -0.2616 -0.1389
  126loPI   C4A 2010   9.879  13.888   8.704  0.2608  0.0451 -0.2199
  126loPI   C5A 2011   9.951  14.071   8.378  0.0472  0.0840  0.1860
  126loPI   C6A 2012  10.369  14.199   8.178 -0.1052  0.1676  0.0541
  126loPI   C1B 2013   9.515  13.382   9.790  0.0575 -0.0218 -0.1475
  126loPI   C2B 2014   9.513  13.433   9.347  0.1125  0.0830  0.2741
  126loPI   C3B 2015   9.440  13.540   8.994  0.0261 -0.3065 -0.4591
  126loPI   C4B 2016   9.373  13.683   8.580 -0.1487 -0.1304  0.0447
  127loPI    C1 2017  13.410  17.826  10.847  0.1324 -0.1169 -0.0847
  127loPI    C2 2018  13.193  17.883  11.179 -0.1194 -0.1093 -0.2480
  127loPI    C3 2019  13.553  18.054  11.143 -0.0743 -0.1406  0.0358
  127loPI   PO4 2020  13.279  17.854  10.630 -0.0478  0.1684 -0.0167
  127loPI   GL1 2021  13.268  17.760  10.190 -0.2153  0.3615 -0.0665
  127loPI   GL2 2022  13.511  17.599  10.066 -0.2048  0.0092  0.1058
  127loPI   C1A 2023  13.267  17.943   9.862 -0.0727 -0.1357 -0.4007
  127loPI   C2A 2024  13.145  17.848   9.403 -0.4965 -0.1368 -0.1752
  127loPI   C3A 2025  13.213  17.921   8.981  0.0082  0.0754 -0.2492
  127loPI   C4A 2026  13.218  17.798   8.594  0.1326  0.1314  0.2669
  127loPI   C5A 2027  13.077  17.877   8.254 -0.0711 -0.1714  0.1623
  127loPI   C6A 2028  12.715  17.880   7.964  0.2046  0.0107 -0.1374
  127loPI   C1B 2029  13.586  17.652   9.630  0.3118  0.4311  0.0974
  127loPI   C2B 2030  13.587  17.627   9.164 -0.0543  0.1140  0.0327
  127loPI   C3B 2031  13.625  17.457   8.640 -0.2135  0.2166 -0.0405
  127loPI   C4B 2032  13.779  17.112   8.294 -0.2098 -0.1573 -0.4390
  128loPI    C1 2033   4.477  13.241  10.742 -0.3358  0.0733 -0.0165
  128loPI    C2 2034   4.112  13.279  10.902 -0.3185 -0.1681  0.0852
  128loPI    C3 2035   4.430  13.224  11.139 -0.2599 -0.2857 -0.0194
  128loPI   PO4 2036   4.549  13.099  10.573 -0.0649  0.1759  0.3819
  128loPI   GL1 2037   4.580  13.176  10.191 -0.0656  0.0138  0.0015
  128loPI   GL2 2038   4.438  12.946  10.085 -0.1054  0.0600  0.0917
  128loPI   C1A 2039   4.535  13.332   9.715  0.2822 -0.0952  0.0022
  128loPI   C2A 2040   4.395  13.314   9.340  0.0868  0.1505  0.2522
  128loPI   C3A 2041   4.409  13.242   8.979 -0.1137  0.1425 -0.2135
  128loPI   C4A 2042   4.438  13.260   8.648  0.2023  0.2399  0.0683
  128loPI   C5A 2043   4.547  13.391   8.168 -0.0572 -0.1817 -0.2689
  128loPI   C6A 2044   4.373  13.214   7.866  0.2862 -0.0268 -0.0853
  128loPI   C1B 2045   4.454  12.876   9.716 -0.2418  0.0786  0.2823
  128loPI   C2B 2046   4.323  12.798   9.266 -0.1021  0.1225  0.0927
  128loPI   C3B 2047   4.406  12.762   8.876  0.0235  0.1044 -0.0208
  128loPI   C4B 2048   4.350  12.654   8.449  0.1426 -0.1110  0.3140
  129loPI    C1 2049   8.204   4.782  10.435  0.1647  0.1379 -0.0535
  129loPI    C2 2050   8.601   4.816  10.393  0.2146 -0.1726  0.1352
  129loPI    C3 2051   8.376   4.698  10.083  0.2860 -0.1332  0.0681
  129loPI   PO4 2052   7.979   4.932  10.483 -0.2130  0.1214 -0.1438
  129loPI   GL1 2053   7.828   4.877  10.131  0.3609  0.0877 -0.1819
  129loPI   GL2 2054   7.747   5.240  10.038  0.4454 -0.0179  0.0946
  129loPI   C1A 2055   7.954   4.712   9.722 -0.3571 -0.0776 -0.0548
  129loPI   C2A 2056   8.054   4.761   9.264  0.0258 -0.0384  0.2154
  129loPI   C3A 2057   7.996   4.733   8.794 -0.1149 -0.2253 -0.1696
  129loPI   C4A 2058   8.010   4.784   8.291 -0.1857  0.2366 -0.1005
  129loPI   C5A 2059   7.846   5.051   7.980 -0.0442 -0.2537  0.2088
  129loPI   C6A 2060   7.902   5.492   7.766  0.2554  0.1709  0.2754
  129loPI   C1B 2061   7.520   5.454   9.672 -0.0222 -0.2178 -0.0818
  129loPI   C2B 2062   7.506   5.516   9.295  0.0992  0.2797  0.0494
  129loPI   C3B 2063   7.477   5.648   8.891  0.2840  0.1761 -0.0889
  129loPI   C4B 2064   7.512   5.602   8.493  0.1407  0.0016 -0.1050
  130loPI    C1 2065   4.739  17.228  10.286  0.1029 -0.1902 -0.2674
  130loPI    C2 2066   4.558  16.905  10.437  0.1185 -0.1246 -0.1071
  130loPI    C3 2067   4.590  17.238  10.657  0.5598 -0.1810 -0.0778
  130loPI   PO4 2068   4.621  17.208  10.070  0.2122 -0.1030 -0.1012
  130loPI   GL1 2069   4.550  17.120   9.674 -0.0654  0.1463 -0.2371
  130loPI   GL2 2070   4.321  16.787   9.582  0.0152  0.1014 -0.3393
  130loPI   C1A 2071   4.632  17.060   9.249 -0.1085 -0.1818 -0.2260
  130loPI   C2A 2072   4.401  16.952   8.801 -0.0546  0.0587  0.1011
  130loPI   C3A 2073   4.191  16.769   8.363 -0.0407 -0.2482 -0.1456
  130loPI   C4A 2074   4.101  16.432   8.049 -0.1685 -0.2084  0.2257
  130loPI   C5A 2075   3.951  16.278   7.676  0.2758  0.4067 -0.1816
  130loPI   C6A 2076   4.060  16.352   7.215  0.1365 -0.3262  0.1238
  130loPI   C1B 2077   4.458  16.601   9.223 -0.0589  0.1400  0.1188
  130loPI   C2B 2078   4.338  16.456   8.847  0.6039  0.0240 -0.1369
  130loPI   C3B 2079   4.498  16.376   8.398  0.3984  0.0120  0.1607
  130loPI   C4B 2080   4.539  16.196   7.982 -0.1041 -0.1120  0.1592
  131loPI    C1 2081  10.265   7.454  10.262  0.2946 -0.2735 -0.0229
  131loPI    C2 2082  10.368   7.335  10.630  0.0626  0.1416  0.1836
  131loPI    C3 2083  10.295   7.721  10.558 -0.1535  0.0285 -0.2391
  131loPI   PO4 2084  10.189   7.100  10.067  0.3680  0.0937 -0.0201
  131loPI   GL1 2085  10.393   6.961   9.676 -0.1019  0.2271 -0.0209
  131loPI   GL2 2086  10.320   6.674   9.576  0.1357 -0.3787 -0.3288
  131loPI   C1A 2087  10.315   7.116   9.334 -0.1748  0.2432 -0.2038
  131loPI   C2A 2088  10.275   7.154   8.837  0.2109  0.1743  0.1789
  131loPI   C3A 2089  10.241   6.978   8.342  0.0086 -0.1470  0.2612
  131loPI   C4A 2090  10.433   6.927   7.872 -0.1123 -0.2903  0.3902
  131loPI   C5A 2091  10.851   6.698   7.744  0.0718  0.2053 -0.2171
  131loPI   C6A 2092  11.027   6.390   7.486 -0.0786 -0.2402 -0.0838
  131loPI   C1B 2093  10.276   6.672   9.070 -0.0126 -0.0434 -0.0131
  131loPI   C2B 2094  10.303   6.568   8.650 -0.0192 -0.0009  0.1511
  131loPI   C3B 2095  10.280   6.490   8.169  0.1704 -0.1874  0.0846
  131loPI   C4B 2096  10.521   6.373   7.859  0.0544  0.1587 -0.1256
  132loPI    C1 2097   0.853  14.073  10.604  0.0935  0.0683  0.0172
  132loPI    C2 2098   0.838  14.400  10.833  0.1254  0.0297  0.0747
  132loPI    C3 2099   0.894  14.041  11.001 -0.0199 -0.0179  0.0224
  132loPI   PO4 2100   1.036  14.098  10.393  0.6862  0.1949  0.1912
  132loPI   GL1 2101   1.102  14.112  10.069 -0.1251  0.0452  0.0117
  132loPI   GL2 2102   0.825  14.025   9.919 -0.1091 -0.3180  0.1329
  132loPI   C1A 2103   1.214  14.118   9.568  0.1555 -0.3396  0.0188
  132loPI   C2A 2104   1.294  14.133   9.117  0.0959  0.1209 -0.1615
  132loPI   C3A 2105   1.185  14.080   8.721 -0.1844 -0.3032 -0.0406
  132loPI   C4A 2106   1.291  13.988   8.295 -0.1572 -0.1163 -0.2155
  132loPI   C5A 2107   1.424  14.030   7.880  0.2298  0.0756  0.1281
  132loPI   C6A 2108   1.515  14.304   7.547 -0.0404 -0.3279 -0.3051
  132loPI   C1B 2109   0.788  13.877   9.542 -0.1731  0.0004  0.0195
  132loPI   C2B 2110   0.864  13.804   9.112 -0.1500  0.1918  0.2750
  132loPI   C3B 2111   0.740  13.803   8.693 -0.0103  0.2692  0.1332
  132loPI   C4B 2112   0.776  13.873   8.298  0.0866 -0.0376 -0.1223
  133loPI    C1 2113  10.989  11.060  10.076  0.2532 -0.0705  0.0124
  133loPI    C2 2114  11.261  10.809  10.227  0.1205 -0.0664  0.2632
  133loPI    C3 2115  11.293  11.202  10.293  0.1772 -0.0430  0.1015
  133loPI   PO4 2116  11.013  11.030   9.820  0.1021  0.0134  0.0363
  133loPI   GL1 2117  11.115  11.133   9.454 -0.1475 -0.0165  0.2454
  133loPI   GL2 2118  11.351  10.862   9.413 -0.1065  0.0066 -0.2622
  133loPI   C1A 2119  11.093  11.250   8.986  0.0060  0.3256 -0.0654
  133loPI   C2A 2120  11.063  11.383   8.607  0.3071 -0.1688 -0.0550
  133loPI   C3A 2121  10.979  11.392   8.172 -0.0836 -0.3424  0.1839
  133loPI   C4A 2122  11.084  11.738   7.908 -0.1732 -0.2990 -0.3250
  133loPI   C5A 2123  11.126  11.790   7.481  0.2639 -0.0847  0.1801
  133loPI   C6A 2124  11.068  11.932   7.165  0.1226 -0.2166  0.2539
  133loPI   C1B 2125  11.567  10.974   9.082 -0.0877 -0.0601  0.0774
  133loPI   C2B 2126  11.522  11.050   8.752 -0.0485  0.2469  0.3044
  133loPI   C3B 2127  11.489  11.180   8.343 -0.0438 -0.0390 -0.3824
  133loPI   C4B 2128  11.547  11.327   7.940 -0.1850  0.0638 -0.2443
  134loPI    C1 2129  13.365  15.977  10.864  0.0023  0.0206 -0.1076
  134loPI    C2 2130  13.434  16.101  11.238  0.1188  0.0608 -0.1419
  134loPI    C3 2131  13.386  15.711  11.163  0.2661  0.0360 -0.1098
  134loPI   PO4 2132  13.142  16.147  10.789  0.1135 -0.1944  0.1741
  134loPI   GL1 2133  13.341  16.478  10.560 -0.0236  0.1965  0.1082
  134loPI   GL2 2134  13.549  16.377  10.350 -0.2026 -0.5209 -0.1917
  134loPI   C1A 2135  13.246  16.778  10.266 -0.2000  0.1772  0.1642
  134loPI   C2A 2136  13.133  16.784   9.853 -0.1396  0.0004 -0.0875
  134loPI   C3A 2137  13.064  16.753   9.392 -0.1401  0.3316  0.1222
  134loPI   C4A 2138  13.086  16.777   8.989  0.2583 -0.0530  0.3386
  134loPI   C5A 2139  13.195  16.828   8.618  0.3958 -0.1349  0.0255
  134loPI   C6A 2140  13.413  16.801   8.175 -0.0145  0.5832 -0.2992
  134loPI   C1B 2141  13.559  16.579   9.952  0.2609  0.1611  0.2217
  134loPI   C2B 2142  13.590  16.497   9.518  0.0317  0.1493 -0.0074
  134loPI   C3B 2143  13.564  16.605   9.100  0.0730  0.3580  0.4845
  134loPI   C4B 2144  13.660  16.508   8.621  0.0842  0.0151 -0.4894
  135loPI    C1 2145  13.564  14.094  10.504 -0.0451 -0.1095 -0.0919
  135loPI    C2 2146  13.650  14.324  10.820 -0.0527  0.1054 -0.2442
  135loPI    C3 2147  13.847  13.981  10.763 -0.1071  0.0255  0.0366
  135loPI   PO4 2148  13.457  14.184  10.357  0.0286 -0.1043 -0.1783
  135loPI   GL1 2149  13.379  14.382  10.009 -0.3746 -0.2178  0.3321
  135loPI   GL2 2150  13.150  14.638   9.888 -0.1634  0.2992  0.1173
  135loPI   C1A 2151  13.450  14.310   9.504 -0.1286  0.1962 -0.1976
  135loPI   C2A 2152  13.504  14.351   9.020  0.1522 -0.1639 -0.1054
  135loPI   C3A 2153  13.643  14.344   8.583 -0.2258 -0.0402 -0.2815
  135loPI   C4A 2154  13.609  14.343   8.142 -0.1897  0.0415  0.1672
  135loPI   C5A 2155  13.516  14.672   7.865 -0.1296  0.1172 -0.0308
  135loPI   C6A 2156  13.500  15.031   7.594 -0.1913 -0.0896 -0.0105
  135loPI   C1B 2157  13.069  14.567   9.386  0.2944 -0.0414 -0.5732
  135loPI   C2B 2158  13.143  14.670   8.971 -0.0456  0.1013 -0.0111
  135loPI   C3B 2159  13.176  14.671   8.509 -0.0305 -0.1210 -0.0055
  135loPI   C4B 2160  13.070  14.682   8.061 -0.2713 -0.2736  0.1761
  136loPI    C1 2161   2.197  10.521  10.613 -0.0120 -0.3538  0.1664
  136loPI    C2 2162   2.592  10.456  10.626  0.0517 -0.0520 -0.1318
  136loPI    C3 2163   2.381  10.473  10.965  0.2641 -0.3813  0.0214
  136loPI   PO4 2164   2.126  10.735  10.440 -0.2233 -0.1539  0.1420
  136loPI   GL1 2165   2.093  10.543  10.020 -0.1328 -0.0752  0.3147
  136loPI   GL2 2166   1.806  10.513  10.082 -0.1246  0.2006  0.0541
  136loPI   C1A 2167   2.116  10.442   9.559 -0.0928  0.0826  0.1065
  136loPI   C2A 2168   2.140  10.399   9.078 -0.0484  0.0320 -0.2468
  136loPI   C3A 2169   2.127  10.285   8.653  0.2381 -0.2619 -0.0801
  136loPI   C4A 2170   1.834  10.137   8.339 -0.2926 -0.6631 -0.0138
  136loPI   C5A 2171   1.357  10.150   8.312  0.1441  0.1462 -0.0362
  136loPI   C6A 2172   1.062  10.450   8.101 -0.2596  0.1304 -0.3599
  136loPI   C1B 2173   1.643  10.620   9.658  0.1901 -0.1329 -0.0231
  136loPI   C2B 2174   1.664  10.729   9.334 -0.1777 -0.2426 -0.0448
  136loPI   C3B 2175   1.557  10.779   8.824  0.2559 -0.1007  0.4692
  136loPI   C4B 2176   1.444  10.671   8.359 -0.0961  0.0429  0.0849
  137loPI    C1 2177   7.860  17.078  10.710  0.2105  0.0397 -0.2827
  137loPI    C2 2178   8.197  17.284  10.769  0.3101 -0.1990  0.0063
  137loPI    C3 2179   8.118  16.962  10.992 -0.1563 -0.0906  0.0078
  137loPI   PO4 2180   7.791  17.147  10.406 -0.0162 -0.2393  0.2360
  137loPI   GL1 2181   7.699  17.312   9.964  0.0543 -0.0840  0.1600
  137loPI   GL2 2182   8.053  17.269   9.810 -0.0135  0.2139  0.2053
  137loPI   C1A 2183   7.643  17.429   9.533  0.2328  0.1240 -0.0556
  137loPI   C2A 2184   7.611  17.279   9.086  0.2076  0.1625 -0.0018
  137loPI   C3A 2185   7.607  17.342   8.599 -0.3105  0.2236 -0.2033
  137loPI   C4A 2186   7.656  17.382   8.099  0.1861 -0.0311 -0.3559
  137loPI   C5A 2187   7.823  17.292   7.735  0.3103  0.2094  0.0006
  137loPI   C6A 2188   8.035  16.957   7.585  0.0277 -0.3584 -0.2070
  137loPI   C1B 2189   7.993  17.031   9.371 -0.1573  0.2444  0.2391
  137loPI   C2B 2190   8.064  16.911   8.950  0.0643  0.0999  0.0979
  137loPI   C3B 2191   8.136  17.112   8.614  0.0886 -0.2258 -0.1751
  137loPI   C4B 2192   8.303  17.125   8.081  0.0558 -0.1946 -0.0944
  138loPI    C1 2193   0.899   8.002  10.755 -0.0819  0.1276  0.1418
  138loPI    C2 2194   1.240   8.150  10.609 -0.0640  0.0496  0.1040
  138loPI    C3 2195   1.234   7.784  10.770 -0.1684 -0.0226 -0.0620
  138loPI   PO4 2196   0.715   8.048  10.609  0.0890 -0.0102  0.2019
  138loPI   GL1 2197   0.528   8.131  10.264 -0.2675  0.4223  0.1806
  138loPI   GL2 2198   0.341   7.970  10.145 -0.0682 -0.2645 -0.0639
  138loPI   C1A 2199   0.625   8.073   9.797 -0.0913 -0.1219 -0.2030
  138loPI   C2A 2200   0.643   8.026   9.370  0.2048  0.0590 -0.0697
  138loPI   C3A 2201   0.601   7.985   8.864 -0.0937  0.2302 -0.0551
  138loPI   C4A 2202   0.731   7.753   8.468 -0.2690  0.2154 -0.3627
  138loPI   C5A 2203   0.781   7.931   8.052  0.0748 -0.1212 -0.0108
  138loPI   C6A 2204   0.766   8.296   7.843  0.1421 -0.0334  0.1362
  138loPI   C1B 2205   0.220   7.815   9.663 -0.0291  0.2021 -0.3150
  138loPI   C2B 2206   0.223   7.852   9.212  0.0358 -0.1406  0.0819
  138loPI   C3B 2207   0.161   7.737   8.729  0.0545 -0.4210 -0.1262
  138loPI   C4B 2208   0.098   7.541   8.327  0.0581 -0.0469  0.0845
  139loPI    C1 2209  15.128   1.348  11.234 -0.0757  0.0046 -0.0525
  139loPI    C2 2210  15.237   0.972  11.315  0.2249  0.1174  0.0795
  139loPI    C3 2211  15.011   1.175  11.575  0.1732  0.0724  0.0697
  139loPI   PO4 2212  15.090   1.387  10.966  0.0318 -0.2097 -0.0520
  139loPI   GL1 2213  14.827   1.650  10.572  0.0548  0.1030 -0.0645
  139loPI   GL2 2214  14.460   1.562  10.500 -0.2648  0.0819 -0.1524
  139loPI   C1A 2215  14.827   1.934  10.154 -0.1848 -0.0214  0.1390
  139loPI   C2A 2216  15.041   2.125   9.820  0.2577 -0.0416 -0.0665
  139loPI   C3A 2217  15.095   2.284   9.403 -0.2246  0.2903  0.0285
  139loPI   C4A 2218  15.182   2.287   8.944  0.2104  0.1233 -0.0424
  139loPI   C5A 2219  15.000   2.093   8.586 -0.1632  0.0330 -0.1068
  139loPI   C6A 2220  14.925   1.694   8.475  0.2138  0.0315 -0.1712
  139loPI   C1B 2221  14.481   1.559   9.978  0.0755  0.3177 -0.0132
  139loPI   C2B 2222  14.507   1.488   9.558  0.2015 -0.0933 -0.1067
  139loPI   C3B 2223  14.605   1.519   9.118  0.2185 -0.0444  0.0133
  139loPI   C4B 2224  14.628   1.265   8.692  0.0878 -0.0203  0.0285
  140loPI    C1 2225   1.220  10.676  11.047 -0.0195 -0.1651  0.2028
  140loPI    C2 2226   1.543  10.517  11.222  0.0120 -0.1167  0.1890
  140loPI    C3 2227   1.286  10.735  11.438 -0.0844 -0.2684  0.2296
  140loPI   PO4 2228   1.222  10.468  10.769  0.3646 -0.2181 -0.0875
  140loPI   GL1 2229   0.860  10.387  10.433 -0.1096  0.3360 -0.1201
  140loPI   GL2 2230   0.597  10.280  10.520 -0.3652 -0.1427 -0.1668
  140loPI   C1A 2231   0.802  10.568  10.074  0.0192 -0.0682 -0.0821
  140loPI   C2A 2232   0.755  10.681   9.617  0.0138  0.0399  0.0310
  140loPI   C3A 2233   0.778  10.620   9.180  0.0443 -0.2014 -0.1455
  140loPI   C4A 2234   0.642  10.637   8.753 -0.2860  0.2506  0.0791
  140loPI   C5A 2235   0.533  10.481   8.291  0.3738  0.1491 -0.0479
  140loPI   C6A 2236   0.611  10.437   7.851 -0.0691 -0.2758 -0.2279
  140loPI   C1B 2237   0.645  10.090  10.120  0.0217 -0.0022 -0.0204
  140loPI   C2B 2238   0.697  10.191   9.660  0.0392  0.0880  0.0268
  140loPI   C3B 2239   0.744  10.143   9.281  0.0874 -0.0517 -0.1297
  140loPI   C4B 2240   0.720  10.113   8.837  0.2197 -0.1386  0.0714
  141loPI    C1 2241   8.170   9.361  10.758  0.3088 -0.0049  0.0717
  141loPI    C2 2242   8.395   9.509  11.053  0.1437  0.1371  0.1285
  141loPI    C3 2243   8.252   9.137  11.079  0.1800  0.1279  0.1986
  141loPI   PO4 2244   8.280   9.381  10.544  0.2517  0.1940 -0.2314
  141loPI   GL1 2245   8.036   9.368  10.147  0.4092 -0.1543 -0.0581
  141loPI   GL2 2246   8.075   8.981  10.102 -0.1790  0.1964 -0.0639
  141loPI   C1A 2247   8.080   9.478   9.757 -0.1813 -0.1147  0.1301
  141loPI   C2A 2248   8.066   9.492   9.243 -0.0216 -0.0179 -0.0316
  141loPI   C3A 2249   8.156   9.567   8.697 -0.3070 -0.1794 -0.1705
  141loPI   C4A 2250   8.084   9.736   8.193  0.1435  0.0889  0.1271
  141loPI   C5A 2251   8.337   9.782   7.823 -0.0497 -0.0169 -0.3176
  141loPI   C6A 2252   8.435   9.334   7.553 -0.0330 -0.0646 -0.0332
  141loPI   C1B 2253   8.098   9.015   9.618  0.4882  0.3263 -0.0753
  141loPI   C2B 2254   8.080   8.978   9.215 -0.1569  0.0589 -0.0168
  141loPI   C3B 2255   8.029   9.034   8.716  0.1531  0.3124  0.0706
  141loPI   C4B 2256   8.095   9.095   8.315 -0.0487 -0.1261 -0.0095
  142loPI    C1 2257  12.449   2.665  10.663  0.1472 -0.3802 -0.0230
  142loPI    C2 2258  12.148   2.587  10.915  0.1557 -0.3046  0.0110
  142loPI    C3 2259  12.522   2.485  11.012  0.1763 -0.1586  0.0874
  142loPI   PO4 2260  12.392   2.652  10.460  0.0436 -0.2761 -0.0602
  142loPI   GL1 2261  12.431   2.301  10.192 -0.1055 -0.2391  0.2409
  142loPI   GL2 2262  12.211   2.417   9.948  0.1098  0.2395 -0.1114
  142loPI   C1A 2263  12.693   2.108   9.843  0.3047 -0.0338  0.2823
  142loPI   C2A 2264  12.699   2.067   9.384 -0.2736 -0.1174  0.3672
  142loPI   C3A 2265  12.736   2.130   8.986  0.3727  0.1197 -0.0716
  142loPI   C4A 2266  12.874   2.078   8.616  0.0299 -0.3072 -0.1634
  142loPI   C5A 2267  12.899   2.121   8.189 -0.1639  0.0597 -0.0209
  142loPI   C6A 2268  12.831   2.062   7.754  0.1600 -0.4170  0.0037
  142loPI   C1B 2269  12.286   2.316   9.548 -0.0207 -0.1983 -0.1934
  142loPI   C2B 2270  12.309   2.354   9.130 -0.0326  0.0837  0.2941
  142loPI   C3B 2271  12.236   2.400   8.692  0.0650 -0.1608  0.2992
  142loPI   C4B 2272  12.514   2.451   8.413  0.1008 -0.1384 -0.1866
  143loPI    C1 2273   5.651   0.414  10.399 -0.2008  0.0014 -0.1806
  143loPI    C2 2274   5.624   0.604  10.750 -0.2331  0.1505 -0.2628
  143loPI    C3 2275   5.522   0.218  10.723  0.1316  0.0322 -0.0255
  143loPI   PO4 2276   5.600   0.551  10.214 -0.2196  0.1781  0.0428
  143loPI   GL1 2277   5.601   0.603   9.764  0.0559  0.0906 -0.1776
  143loPI   GL2 2278   5.696   0.888   9.623 -0.4112  0.3752 -0.1482
  143loPI   C1A 2279   5.664   0.343   9.475 -0.0576  0.1305  0.1669
  143loPI   C2A 2280   5.544   0.376   8.988 -0.0575 -0.2181 -0.0113
  143loPI   C3A 2281   5.496   0.184   8.682 -0.0435 -0.1678 -0.0239
  143loPI   C4A 2282   5.482   0.098   8.276  0.0478  0.1770 -0.0566
  143loPI   C5A 2283   5.849   0.257   7.992 -0.1975  0.2923  0.0583
  143loPI   C6A 2284   5.930   0.687   8.009  0.3510  0.0313 -0.3048
  143loPI   C1B 2285   5.766   0.806   9.240 -0.0711  0.2077 -0.0733
  143loPI   C2B 2286   5.839   0.831   8.840  0.1449 -0.1323  0.0066
  143loPI   C3B 2287   6.060   0.902   8.430 -0.1599  0.2830 -0.1217
  143loPI   C4B 2288   6.158   1.097   8.046 -0.1094 -0.0944 -0.3238
  144loPI    C1 2289  11.973   7.956  10.293 -0.2771 -0.0401  0.0916
  144loPI    C2 2290  12.136   8.139  10.609  0.0391  0.1276 -0.1623
  144loPI    C3 2291  11.893   8.342  10.364 -0.2193 -0.0068 -0.0215
  144loPI   PO4 2292  12.141   7.810  10.215  0.1769 -0.0748  0.0324
  144loPI   GL1 2293  12.275   7.577   9.819  0.2249  0.0594 -0.3514
  144loPI   GL2 2294  12.092   7.903   9.697 -0.0565 -0.3329 -0.3688
  144loPI   C1A 2295  12.362   7.602   9.371 -0.0466  0.0927  0.1915
  144loPI   C2A 2296  12.506   7.467   8.974  0.1937 -0.0000 -0.2445
  144loPI   C3A 2297  12.435   7.471   8.514  0.0384  0.0183 -0.1046
  144loPI   C4A 2298  12.434   7.254   8.187 -0.2278 -0.0543 -0.0380
  144loPI   C5A 2299  12.333   6.857   7.978  0.1042  0.1935 -0.0081
  144loPI   C6A 2300  12.233   6.645   7.670  0.2888 -0.0418 -0.0776
  144loPI   C1B 2301  11.851   7.790   9.353  0.0603 -0.3234 -0.3234
  144loPI   C2B 2302  12.007   7.680   9.032  0.0851 -0.0974 -0.1103
  144loPI   C3B 2303  11.998   7.684   8.615  0.1963  0.1423  0.0257
  144loPI   C4B 2304  11.933   7.388   8.256  0.0471  0.0212 -0.0515
  145loPI    C1 2305  13.295  11.478   9.990 -0.1363 -0.4445 -0.1190
  145loPI    C2 2306  13.144  11.723  10.267  0.2660 -0.1880 -0.1197
  145loPI    C3 2307  13.168  11.330  10.339 -0.1460 -0.1980 -0.0165
  145loPI   PO4 2308  13.208  11.515   9.783 -0.1119  0.0097 -0.2368
  145loPI   GL1 2309  13.124  11.851   9.502 -0.0743 -0.2097 -0.0452
  145loPI   GL2 2310  12.969  12.191   9.538  0.1765 -0.0047  0.1184
  145loPI   C1A 2311  13.277  11.734   9.064  0.0842  0.0128 -0.0280
  145loPI   C2A 2312  13.219  11.752   8.627  0.2143 -0.0345  0.0687
  145loPI   C3A 2313  13.432  11.822   8.244 -0.3508 -0.0532  0.1878
  145loPI   C4A 2314  13.317  11.863   7.754  0.1193  0.1149 -0.1784
  145loPI   C5A 2315  13.377  11.700   7.361 -0.1540  0.0406  0.3052
  145loPI   C6A 2316  13.373  11.565   6.939 -0.2165 -0.1668 -0.3061
  145loPI   C1B 2317  12.941  12.162   9.073 -0.2155 -0.0054 -0.0126
  145loPI   C2B 2318  12.937  12.206   8.699  0.0180 -0.2457  0.0012
  145loPI   C3B 2319  13.021  12.261   8.257 -0.0217  0.1205  0.2672
  145loPI   C4B 2320  13.134  12.305   7.850 -0.0956  0.0401  0.1719
  146loPI    C1 2321   6.736  16.008  10.788  0.1936  0.0126  0.0639
  146loPI    C2 2322   6.864  16.384  10.836  0.1906  0.0211  0.0084
  146loPI    C3 2323   6.970  16.101  11.099  0.0269  0.1018  0.1639
  146loPI   PO4 2324   6.751  16.061  10.431  0.0962 -0.2105  0.0797
  146loPI   GL1 2325   7.092  16.083  10.041 -0.0002  0.0070  0.1860
  146loPI   GL2 2326   7.368  15.943  10.198 -0.0002  0.0227 -0.0215
  146loPI   C1A 2327   7.145  15.959   9.670  0.0403  0.1438  0.4618
  146loPI   C2A 2328   7.187  15.888   9.267  0.0839 -0.1738  0.1657
  146loPI   C3A 2329   7.237  16.001   8.783 -0.0059 -0.0191  0.1238
  146loPI   C4A 2330   7.235  15.879   8.319 -0.2447  0.0297 -0.1118
  146loPI   C5A 2331   7.002  16.121   8.012  0.0328 -0.1126  0.1044
  146loPI   C6A 2332   6.667  16.134   7.735 -0.0571  0.1922 -0.2058
  146loPI   C1B 2333   7.570  15.746   9.879 -0.2789 -0.1788 -0.0400
  146loPI   C2B 2334   7.625  15.715   9.430  0.4771  0.0977  0.2189
  146loPI   C3B 2335   7.686  15.741   8.985 -0.0511 -0.1893 -0.2427
  146loPI   C4B 2336   7.714  15.793   8.548 -0.0073 -0.1134  0.0120
  147loPI    C1 2337   9.848  17.956  10.818 -0.1117  0.1348  0.0501
  147loPI    C2 2338   9.846  18.317  10.990  0.0255  0.0579  0.2159
  147loPI    C3 2339   9.632  18.018  11.148 -0.1687  0.0914  0.0213
  147loPI   PO4 2340   9.792  18.008  10.588 -0.1224  0.0802 -0.2780
  147loPI   GL1 2341   9.904  18.032  10.178  0.0495  0.0528 -0.0216
  147loPI   GL2 2342   9.940  17.714  10.025  0.3484 -0.2261 -0.1182
  147loPI   C1A 2343  10.030  18.091   9.691 -0.4668 -0.0992 -0.0160
  147loPI   C2A 2344  10.069  18.122   9.279 -0.0543 -0.0525 -0.2054
  147loPI   C3A 2345  10.236  18.038   8.873 -0.0741  0.2571  0.0417
  147loPI   C4A 2346  10.443  17.923   8.500 -0.0487  0.0087  0.2263
  147loPI   C5A 2347  10.326  17.786   8.073 -0.0215 -0.0246 -0.0102
  147loPI   C6A 2348  10.263  17.353   7.819  0.2796 -0.2448  0.0644
  147loPI   C1B 2349   9.953  17.559   9.701  0.1920 -0.2095 -0.0032
  147loPI   C2B 2350  10.030  17.631   9.257 -0.0505  0.2799  0.1382
  147loPI   C3B 2351  10.074  17.570   8.772  0.0802 -0.0206 -0.2076
  147loPI   C4B 2352   9.997  17.435   8.270  0.1431 -0.3400 -0.3290
  148loPI    C1 2353   2.116  14.012  10.426 -0.0106 -0.0802  0.0073
  148loPI    C2 2354   2.400  14.150  10.672 -0.0786  0.0248  0.0278
  148loPI    C3 2355   2.105  13.920  10.815  0.0018 -0.0935  0.0046
  148loPI   PO4 2356   2.264  13.942  10.236  0.1292 -0.0953 -0.0204
  148loPI   GL1 2357   2.203  13.998   9.900  0.0229 -0.1705  0.0140
  148loPI   GL2 2358   2.578  13.924   9.870  0.4130 -0.1024 -0.3589
  148loPI   C1A 2359   2.163  14.128   9.563 -0.0082  0.1156  0.0227
  148loPI   C2A 2360   2.176  14.200   9.158  0.2756  0.1795 -0.1691
  148loPI   C3A 2361   2.176  14.129   8.745 -0.0428 -0.3402  0.0215
  148loPI   C4A 2362   2.129  14.064   8.365  0.0224  0.1167 -0.0790
  148loPI   C5A 2363   2.259  13.823   7.981  0.0165  0.0505  0.0241
  148loPI   C6A 2364   2.250  13.624   7.628 -0.0739  0.0219 -0.0966
  148loPI   C1B 2365   2.591  13.903   9.431 -0.0784  0.2949 -0.3745
  148loPI   C2B 2366   2.562  13.886   9.039 -0.0819  0.0484 -0.3833
  148loPI   C3B 2367   2.641  13.851   8.659  0.2326 -0.1767  0.0612
  148loPI   C4B 2368   2.604  13.851   8.367 -0.3422  0.0109 -0.1616
  149loPI    C1 2369   2.746  13.224  10.753  0.1932  0.0031 -0.2885
  149loPI    C2 2370   2.742  12.885  10.965  0.1845  0.2123  0.0552
  149loPI    C3 2371   2.907  13.215  11.119  0.0980  0.3940 -0.2318
  149loPI   PO4 2372   2.857  13.227  10.547 -0.2115 -0.2829 -0.4034
  149loPI   GL1 2373   2.778  13.205  10.080  0.1056 -0.0568  0.0197
  149loPI   GL2 2374   2.547  13.455   9.982  0.0906  0.2713 -0.1160
  149loPI   C1A 2375   3.048  13.162   9.723  0.0687 -0.2041 -0.0661
  149loPI   C2A 2376   3.058  13.149   9.296 -0.2181 -0.1454 -0.0960
  149loPI   C3A 2377   3.054  13.050   8.925 -0.1245 -0.1324  0.1056
  149loPI   C4A 2378   3.038  13.027   8.457 -0.0121 -0.0165  0.1089
  149loPI   C5A 2379   3.071  12.849   8.179  0.0064  0.2799  0.1467
  149loPI   C6A 2380   2.792  12.789   7.792 -0.2949  0.0212 -0.1907
  149loPI   C1B 2381   2.636  13.375   9.548 -0.0958 -0.0370 -0.3542
  149loPI   C2B 2382   2.619  13.452   9.076  0.2268  0.2887  0.0474
  149loPI   C3B 2383   2.650  13.279   8.647  0.0511  0.2208 -0.1710
  149loPI   C4B 2384   2.599  13.200   8.179  0.2345  0.1399 -0.0367
  150loPI    C1 2385   1.673  11.922  10.604 -0.0937 -0.4304  0.2616
  150loPI    C2 2386   1.958  12.184  10.703 -0.3956  0.0979 -0.2102
  150loPI    C3 2387   1.727  12.024  10.987 -0.1452  0.2668  0.0958
  150loPI   PO4 2388   1.590  12.017  10.381 -0.0766 -0.0851  0.3272
  150loPI   GL1 2389   1.330  11.815  10.042  0.1005 -0.0961  0.0921
  150loPI   GL2 2390   0.972  11.771  10.141  0.2051 -0.1908  0.0526
  150loPI   C1A 2391   1.225  12.018   9.618 -0.0688 -0.1144 -0.3925
  150loPI   C2A 2392   1.207  11.967   9.156  0.0034  0.0437  0.1534
  150loPI   C3A 2393   1.178  12.024   8.672  0.1078 -0.0526  0.2807
  150loPI   C4A 2394   1.259  12.031   8.222  0.0761 -0.2703 -0.1180
  150loPI   C5A 2395   1.522  12.111   7.968 -0.2097 -0.0966  0.0269
  150loPI   C6A 2396   1.999  12.372   8.032 -0.0149 -0.2116  0.0160
  150loPI   C1B 2397   0.827  11.734   9.810 -0.1429  0.0350  0.2834
  150loPI   C2B 2398   0.828  11.639   9.387  0.0344  0.2059 -0.2634
  150loPI   C3B 2399   0.726  11.707   8.928 -0.2323 -0.1043  0.0112
  150loPI   C4B 2400   0.704  11.913   8.550  0.2300 -0.3424  0.1952
  151loPI    C1 2401   7.363  14.716  10.863 -0.1278 -0.1442  0.1061
  151loPI    C2 2402   7.219  15.086  10.904  0.0574 -0.0361 -0.1852
  151loPI    C3 2403   7.491  14.948  11.162 -0.0225  0.0249 -0.0674
  151loPI   PO4 2404   7.276  14.732  10.518 -0.0018  0.1072 -0.3043
  151loPI   GL1 2405   7.276  14.459  10.154  0.1157 -0.1652 -0.1549
  151loPI   GL2 2406   6.982  14.286  10.052 -0.1151  0.2043 -0.0552
  151loPI   C1A 2407   7.573  14.731   9.896  0.0432  0.0233 -0.1064
  151loPI   C2A 2408   7.609  14.646   9.446 -0.0158  0.0491  0.1027
  151loPI   C3A 2409   7.653  14.593   9.036  0.1328  0.0698 -0.0234
  151loPI   C4A 2410   7.743  14.575   8.726  0.1654 -0.1333 -0.1616
  151loPI   C5A 2411   7.657  14.592   8.349 -0.0465 -0.0737 -0.0515
  151loPI   C6A 2412   7.487  14.616   7.937 -0.1897 -0.2692 -0.2217
  151loPI   C1B 2413   7.226  14.370   9.655  0.1605  0.0743  0.2714
  151loPI   C2B 2414   7.169  14.349   9.123 -0.0549 -0.0532 -0.2350
  151loPI   C3B 2415   7.116  14.373   8.580 -0.2004  0.1183  0.1666
  151loPI   C4B 2416   7.160  14.321   8.168  0.1438  0.1999  0.2808
  152loPI    C1 2417   3.974   6.861  11.047  0.2189 -0.0203 -0.0459
  152loPI    C2 2418   3.969   7.261  11.035  0.1466 -0.0263 -0.2394
  152loPI    C3 2419   3.714   7.065  11.273  0.2132  0.0437 -0.1099
  152loPI   PO4 2420   3.951   6.823  10.758  0.1366 -0.2937  0.0839
  152loPI   GL1 2421   4.002   6.973  10.396 -0.0837  0.1696 -0.0980
  152loPI   GL2 2422   3.905   6.672  10.216 -0.3537  0.1420  0.0137
  152loPI   C1A 2423   3.930   7.129   9.913  0.2184  0.0659  0.1724
  152loPI   C2A 2424   3.927   7.132   9.440 -0.1261 -0.0425 -0.2163
  152loPI   C3A 2425   3.881   7.044   9.000  0.2340 -0.0962 -0.2018
  152loPI   C4A 2426   3.922   6.988   8.538  0.1710 -0.1034  0.0508
  152loPI   C5A 2427   4.223   7.086   8.174 -0.0045 -0.2924  0.0530
  152loPI   C6A 2428   4.158   6.958   7.752 -0.0677 -0.1531 -0.1500
  152loPI   C1B 2429   3.865   6.599   9.806 -0.2667  0.1675  0.3020
  152loPI   C2B 2430   3.808   6.568   9.450 -0.1561 -0.1041 -0.1014
  152loPI   C3B 2431   3.838   6.521   9.041  0.0973  0.2442  0.0819
  152loPI   C4B 2432   3.923   6.535   8.633  0.3000  0.2162  0.2837
  153loPI    C1 2433  14.119   9.720  10.023  0.1400 -0.0452  0.2384
  153loPI    C2 2434  13.972  10.033  10.223 -0.0455 -0.0671  0.1381
  153loPI    C3 2435  14.059   9.695  10.418  0.0718  0.0162  0.2322
  153loPI   PO4 2436  14.045   9.795   9.777 -0.0360 -0.0195  0.1524
  153loPI   GL1 2437  14.212   9.955   9.442 -0.3937  0.1218  0.0393
  153loPI   GL2 2438  13.961   9.963   9.338  0.1370 -0.0444  0.2462
  153loPI   C1A 2439  14.443   9.967   9.035 -0.3662 -0.0836 -0.0641
  153loPI   C2A 2440  14.398   9.737   8.609 -0.1070 -0.0216 -0.0455
  153loPI   C3A 2441  14.259   9.648   8.213 -0.2322  0.1385 -0.2624
  153loPI   C4A 2442  13.900   9.358   8.032  0.2309  0.2601 -0.2075
  153loPI   C5A 2443  13.515   9.451   7.865 -0.0064  0.2029  0.1765
  153loPI   C6A 2444  13.409   9.721   7.596 -0.1385  0.1906  0.2410
  153loPI   C1B 2445  13.935   9.872   8.914 -0.0647 -0.1337  0.2666
  153loPI   C2B 2446  13.980  10.062   8.605  0.1907 -0.0587  0.1666
  153loPI   C3B 2447  13.861   9.990   8.159 -0.1628 -0.1525  0.1364
  153loPI   C4B 2448  13.886   9.792   7.752  0.1955 -0.1167  0.0184
  154loPI    C1 2449  13.261   8.238  10.365 -0.0630 -0.0563  0.2278
  154loPI    C2 2450  13.121   7.981  10.093  0.1878  0.1038 -0.0602
  154loPI    C3 2451  12.967   8.349  10.117  0.0699  0.0444  0.1130
  154loPI   PO4 2452  13.546   8.125  10.323 -0.1588 -0.1063 -0.0074
  154loPI   GL1 2453  13.575   7.887   9.980  0.1799 -0.0788  0.0550
  154loPI   GL2 2454  13.589   8.115   9.764  0.2399 -0.1704 -0.2169
  154loPI   C1A 2455  13.335   7.669   9.617 -0.0776 -0.1047  0.2360
  154loPI   C2A 2456  13.377   7.599   9.214  0.1109 -0.1502  0.1314
  154loPI   C3A 2457  13.330   7.551   8.846  0.0663 -0.1813 -0.1986
  154loPI   C4A 2458  13.471   7.524   8.414 -0.0523  0.0913  0.2024
  154loPI   C5A 2459  13.251   7.624   7.891 -0.4282  0.0814  0.0819
  154loPI   C6A 2460  13.228   7.826   7.489 -0.1059  0.0680 -0.0955
  154loPI   C1B 2461  13.791   8.029   9.454  0.0878  0.2651  0.4219
  154loPI   C2B 2462  13.786   7.861   9.063 -0.0236 -0.1344 -0.3077
  154loPI   C3B 2463  13.906   7.688   8.660 -0.0148 -0.1580  0.2787
  154loPI   C4B 2464  14.004   7.585   8.259  0.0468  0.0659 -0.2836
  155loPI    C1 2465   9.228   9.563  10.376 -0.0441  0.0047  0.0652
  155loPI    C2 2466   9.321   9.929  10.508 -0.0459  0.0436 -0.0407
  155loPI    C3 2467   9.231   9.639  10.769  0.0022  0.1059  0.0455
  155loPI   PO4 2468   9.085   9.692  10.161 -0.2885 -0.0040 -0.3087
  155loPI   GL1 2469   9.043   9.682   9.808 -0.0365  0.4297 -0.5644
  155loPI   GL2 2470   8.999  10.067   9.704  0.0169  0.0986 -0.0843
  155loPI   C1A 2471   9.016   9.676   9.371  0.0344  0.1150  0.0649
  155loPI   C2A 2472   9.097   9.711   8.915 -0.0026  0.0930 -0.0969
  155loPI   C3A 2473   9.035   9.623   8.521 -0.3446  0.1350  0.1322
  155loPI   C4A 2474   9.080   9.775   8.138  0.0650 -0.1175 -0.2863
  155loPI   C5A 2475   9.344   9.829   7.857  0.1532 -0.2126  0.0730
  155loPI   C6A 2476   9.784   9.908   7.885  0.1718 -0.1019  0.0427
  155loPI   C1B 2477   9.125  10.137   9.248  0.1124 -0.2657 -0.2856
  155loPI   C2B 2478   9.000  10.170   8.893  0.2717  0.1581  0.0199
  155loPI   C3B 2479   8.998  10.197   8.433 -0.1201  0.1029  0.1277
  155loPI   C4B 2480   8.954  10.262   8.059 -0.3247  0.0817 -0.1258
  156loPI    C1 2481  11.697   9.263  10.116 -0.2049 -0.0847  0.0595
  156loPI    C2 2482  11.637   9.614   9.935 -0.1993 -0.0562  0.1126
  156loPI    C3 2483  11.842   9.599  10.278 -0.2814 -0.0996  0.1602
  156loPI   PO4 2484  11.636   9.119   9.883 -0.2913  0.1518  0.0916
  156loPI   GL1 2485  11.547   9.285   9.581  0.1662  0.0028 -0.2681
  156loPI   GL2 2486  11.296   9.395   9.458 -0.0578  0.0255 -0.0391
  156loPI   C1A 2487  11.736   9.248   9.170 -0.1887 -0.2127  0.0395
  156loPI   C2A 2488  11.625   9.352   8.832  0.1501 -0.1258  0.2383
  156loPI   C3A 2489  11.588   9.410   8.362  0.0623 -0.2525 -0.1666
  156loPI   C4A 2490  11.583   9.612   7.974 -0.5734 -0.2953  0.2982
  156loPI   C5A 2491  11.400   9.690   7.553 -0.0941  0.2517 -0.0767
  156loPI   C6A 2492  11.024   9.542   7.191 -0.1808 -0.3228  0.0287
  156loPI   C1B 2493  11.134   9.398   9.123 -0.0861  0.0471  0.3109
  156loPI   C2B 2494  11.107   9.412   8.731 -0.1202 -0.2828 -0.3296
  156loPI   C3B 2495  11.012   9.360   8.317  0.0278  0.1575  0.2674
  156loPI   C4B 2496  11.062   9.674   7.969  0.1631 -0.0281  0.1154
  157loPI    C1 2497  14.653   8.953  10.586  0.0219  0.2375  0.2318
  157loPI    C2 2498  14.916   8.730  10.788  0.2954  0.3268 -0.0176
  157loPI    C3 2499  14.666   8.973  10.985  0.2998  0.1349  0.2299
  157loPI   PO4 2500  14.514   8.815  10.345  0.1948  0.0270 -0.0978
  157loPI   GL1 2501  14.673   8.849   9.974  0.1128 -0.2103  0.0823
  157loPI   GL2 2502  14.360   8.686   9.870 -0.1993 -0.1378  0.0119
  157loPI   C1A 2503  14.742   8.763   9.536 -0.0586  0.2548 -0.1191
  157loPI   C2A 2504  14.676   8.751   9.127  0.0667 -0.0539  0.2694
  157loPI   C3A 2505  14.587   8.580   8.705 -0.0422 -0.2175 -0.0351
  157loPI   C4A 2506  14.387   8.571   8.273 -0.0598  0.2114  0.0794
  157loPI   C5A 2507  14.460   8.407   7.880 -0.0982 -0.0442  0.1830
  157loPI   C6A 2508  14.875   8.085   7.927  0.1951 -0.1665 -0.3397
  157loPI   C1B 2509  14.264   8.713   9.429  0.0757  0.0454 -0.6018
  157loPI   C2B 2510  14.177   8.742   9.007  0.1440  0.0918  0.2397
  157loPI   C3B 2511  13.787   9.001   8.957  0.0286  0.1114  0.0419
  157loPI   C4B 2512  13.789   9.436   9.030  0.0309  0.0468  0.4759
  158loPI    C1 2513   0.788  16.840  10.748 -0.1268 -0.2387  0.0779
  158loPI    C2 2514   0.958  16.483  10.689  0.0727 -0.1617  0.1766
  158loPI    C3 2515   1.076  16.713  10.994 -0.0246  0.0075  0.0882
  158loPI   PO4 2516   0.719  16.919  10.509  0.0835 -0.0218  0.2131
  158loPI   GL1 2517   0.631  16.737  10.132  0.3293  0.0657  0.1098
  158loPI   GL2 2518   0.934  16.589  10.019  0.1224 -0.0003  0.0563
  158loPI   C1A 2519   0.461  16.749   9.742 -0.0713 -0.2423 -0.2146
  158loPI   C2A 2520   0.415  16.791   9.349  0.2455  0.1186 -0.0134
  158loPI   C3A 2521   0.435  16.671   8.857 -0.2991 -0.1926  0.2469
  158loPI   C4A 2522   0.533  16.695   8.360 -0.0198  0.4290  0.0615
  158loPI   C5A 2523   0.388  16.646   7.980  0.3469  0.0225  0.1184
  158loPI   C6A 2524   0.218  16.333   7.815 -0.0284 -0.0514  0.2019
  158loPI   C1B 2525   0.939  16.558   9.589 -0.0163  0.2155 -0.0711
  158loPI   C2B 2526   0.873  16.473   9.092 -0.2882  0.0851 -0.2508
  158loPI   C3B 2527   0.828  16.433   8.639  0.1955  0.1854  0.2640
  158loPI   C4B 2528   0.876  16.379   8.104  0.0758 -0.3167  0.1050
  159loPI    C1 2529   1.579   5.947  11.048 -0.1494  0.2959 -0.0289
  159loPI    C2 2530   1.920   5.857  11.237 -0.0281  0.2045 -0.2854
  159loPI    C3 2531   1.676   6.136  11.387 -0.0168  0.0191  0.0910
  159loPI   PO4 2532   1.635   5.968  10.799 -0.0975 -0.1266  0.2326
  159loPI   GL1 2533   1.775   6.095  10.368  0.3576 -0.1088  0.1719
  159loPI   GL2 2534   2.073   6.177  10.267 -0.1603  0.0860 -0.1607
  159loPI   C1A 2535   1.617   5.971   9.926 -0.3570  0.0166  0.1477
  159loPI   C2A 2536   1.568   5.953   9.416 -0.2284  0.0822 -0.0912
  159loPI   C3A 2537   1.615   5.856   8.972 -0.0142 -0.0578  0.1879
  159loPI   C4A 2538   1.504   5.698   8.554  0.0404 -0.0040 -0.0373
  159loPI   C5A 2539   1.541   5.535   8.206 -0.1925  0.0463 -0.3777
  159loPI   C6A 2540   1.527   5.181   8.143 -0.0410 -0.3280  0.0588
  159loPI   C1B 2541   2.044   6.142   9.786 -0.0274 -0.0390  0.0281
  159loPI   C2B 2542   1.978   6.142   9.287 -0.2283  0.0170  0.1225
  159loPI   C3B 2543   2.090   6.056   8.813 -0.1326  0.3075 -0.1716
  159loPI   C4B 2544   1.926   6.049   8.399 -0.0857  0.1982  0.0414
  160loPI    C1 2545   8.238   8.231  10.989  0.0171  0.1309 -0.0387
  160loPI    C2 2546   8.014   8.512  11.166  0.0813  0.1392  0.0299
  160loPI    C3 2547   8.386   8.441  11.296  0.1075  0.1038 -0.0634
  160loPI   PO4 2548   8.166   8.330  10.747  0.0602  0.1493  0.0646
  160loPI   GL1 2549   8.013   8.516  10.330 -0.0331  0.0649 -0.0331
  160loPI   GL2 2550   7.756   8.682  10.274  0.3257 -0.1080 -0.3373
  160loPI   C1A 2551   8.100   8.503   9.829  0.0186 -0.0486 -0.0950
  160loPI   C2A 2552   8.089   8.493   9.365  0.0091 -0.3097 -0.1342
  160loPI   C3A 2553   8.068   8.563   8.926 -0.1719 -0.0988  0.0891
  160loPI   C4A 2554   8.103   8.591   8.471  0.0536 -0.1341 -0.1077
  160loPI   C5A 2555   7.958   8.296   8.124  0.2166 -0.0272  0.0375
  160loPI   C6A 2556   7.899   7.867   8.103 -0.1839  0.1123  0.1201
  160loPI   C1B 2557   7.663   8.697   9.872  0.1136  0.0345 -0.0018
  160loPI   C2B 2558   7.669   8.716   9.422  0.0476  0.0476 -0.2215
  160loPI   C3B 2559   7.587   8.776   8.924  0.0775 -0.1968 -0.1665
  160loPI   C4B 2560   7.625   8.808   8.498  0.1050  0.2338 -0.0663
  161loPI    C1 2561  10.748  12.733  10.473  0.1527 -0.0108  0.0722
  161loPI    C2 2562  10.986  12.455  10.634  0.2123 -0.0478 -0.0779
  161loPI    C3 2563  10.968  12.820  10.796  0.0860 -0.1565  0.1576
  161loPI   PO4 2564  10.730  12.851  10.126  0.0649  0.2032  0.2462
  161loPI   GL1 2565  10.877  12.782   9.671  0.0732  0.0874 -0.0116
  161loPI   GL2 2566  10.717  12.533   9.656 -0.2225 -0.1511 -0.0036
  161loPI   C1A 2567  10.717  12.732   9.200 -0.0967  0.3445 -0.0817
  161loPI   C2A 2568  10.778  12.824   8.720 -0.0129  0.0186  0.0249
  161loPI   C3A 2569  10.769  12.949   8.254  0.1228  0.1042  0.0730
  161loPI   C4A 2570  10.579  13.211   7.928  0.2779 -0.0788  0.1852
  161loPI   C5A 2571  10.226  13.352   7.821  0.1355 -0.0805 -0.2288
  161loPI   C6A 2572   9.754  13.435   7.810  0.1714  0.2167 -0.2407
  161loPI   C1B 2573  10.365  12.356   9.372  0.0562 -0.3781 -0.0208
  161loPI   C2B 2574  10.473  12.459   8.889  0.2480  0.2398 -0.3423
  161loPI   C3B 2575  10.304  12.664   8.518 -0.0244 -0.2120  0.3889
  161loPI   C4B 2576  10.285  12.815   8.125 -0.4551 -0.1435  0.1183
  162loPI    C1 2577   7.867  10.332  10.586  0.0810 -0.1127  0.1284
  162loPI    C2 2578   7.589  10.385  10.869 -0.0482  0.0913 -0.0335
  162loPI    C3 2579   7.977  10.413  10.962 -0.0882  0.0838  0.1376
  162loPI   PO4 2580   7.781  10.108  10.518  0.3879 -0.1194 -0.0336
  162loPI   GL1 2581   7.815   9.981  10.191 -0.2023  0.1527  0.0490
  162loPI   GL2 2582   8.089   9.912  10.028  0.1546  0.0084  0.2421
  162loPI   C1A 2583   7.607   9.739   9.824  0.1135 -0.1614  0.0424
  162loPI   C2A 2584   7.579   9.729   9.444  0.0108 -0.0750 -0.0881
  162loPI   C3A 2585   7.654   9.742   9.098  0.2175 -0.1345  0.2889
  162loPI   C4A 2586   7.691   9.838   8.744  0.0202  0.1691  0.1934
  162loPI   C5A 2587   7.623   9.963   8.347  0.1948 -0.1882  0.1817
  162loPI   C6A 2588   7.571  10.205   8.018 -0.0093  0.1562 -0.0824
  162loPI   C1B 2589   8.043  10.009   9.545  0.1521  0.1677  0.3456
  162loPI   C2B 2590   8.208  10.090   9.098  0.0695  0.0857  0.0100
  162loPI   C3B 2591   8.128  10.094   8.634  0.1892  0.0020  0.0190
  162loPI   C4B 2592   8.014  10.280   8.267  0.1245 -0.0377 -0.0614
  163loPI    C1 2593   3.251   2.513  11.010  0.0095  0.0388 -0.0433
  163loPI    C2 2594   3.607   2.519  11.191  0.0525 -0.0559 -0.1238
  163loPI    C3 2595   3.393   2.855  11.161 -0.0031 -0.0592  0.1965
  163loPI   PO4 2596   3.314   2.332  10.812 -0.0781  0.1692  0.0139
  163loPI   GL1 2597   3.396   2.458  10.383 -0.0199  0.1965  0.1392
  163loPI   GL2 2598   3.608   2.257  10.240 -0.0450 -0.0131  0.2566
  163loPI   C1A 2599   3.169   2.244  10.007  0.2725 -0.0429 -0.1182
  163loPI   C2A 2600   2.878   2.485   9.828 -0.1282  0.0479  0.2933
  163loPI   C3A 2601   2.778   2.509   9.455 -0.1556  0.0039 -0.0160
  163loPI   C4A 2602   2.895   2.508   8.966 -0.0586 -0.1801  0.1695
  163loPI   C5A 2603   2.971   2.457   8.586  0.0839 -0.1940 -0.2102
  163loPI   C6A 2604   3.104   2.291   8.209 -0.1506  0.0108 -0.0287
  163loPI   C1B 2605   3.618   2.088   9.831 -0.1177 -0.0051 -0.1664
  163loPI   C2B 2606   3.450   2.181   9.408 -0.0360  0.0527 -0.1970
  163loPI   C3B 2607   3.428   2.133   8.982  0.0711 -0.1878 -0.1139
  163loPI   C4B 2608   3.381   2.143   8.629  0.1591  0.0331 -0.0112
  164loPI    C1 2609   8.343  15.812  10.868  0.1646  0.0809 -0.2986
  164loPI    C2 2610   8.563  15.992  11.149  0.0809  0.0333 -0.2017
  164loPI    C3 2611   8.190  16.118  11.075  0.0006 -0.1360 -0.0922
  164loPI   PO4 2612   8.467  15.810  10.653  0.2773  0.0270  0.0371
  164loPI   GL1 2613   8.474  15.516  10.330  0.4024 -0.2336  0.0736
  164loPI   GL2 2614   8.667  15.311  10.186  0.1990 -0.1691 -0.0135
  164loPI   C1A 2615   8.087  15.647   9.980 -0.1067  0.1287 -0.1874
  164loPI   C2A 2616   8.059  15.481   9.546  0.2533 -0.2466 -0.0900
  164loPI   C3A 2617   8.084  15.432   9.202 -0.0334  0.0699 -0.0144
  164loPI   C4A 2618   8.105  15.520   8.810  0.0759  0.0105 -0.1528
  164loPI   C5A 2619   8.128  15.425   8.423 -0.0695 -0.1025  0.2653
  164loPI   C6A 2620   8.317  15.158   8.176 -0.2541  0.2984  0.2180
  164loPI   C1B 2621   8.859  15.328   9.851 -0.2576 -0.0360 -0.2599
  164loPI   C2B 2622   8.896  15.247   9.355  0.0999  0.1441 -0.1862
  164loPI   C3B 2623   8.854  15.384   9.032 -0.2067 -0.1186 -0.0570
  164loPI   C4B 2624   9.064  15.555   8.744 -0.1584 -0.0881  0.0098
  165loPI    C1 2625  11.859  14.280  10.694 -0.3149 -0.0011 -0.0336
  165loPI    C2 2626  12.015  13.952  10.862 -0.1521  0.0614 -0.0610
  165loPI    C3 2627  11.630  14.043  10.921 -0.2494 -0.2402 -0.2129
  165loPI   PO4 2628  11.840  14.277  10.482  0.0355  0.4055  0.1377
  165loPI   GL1 2629  11.660  14.199  10.100 -0.1703 -0.1043  0.0558
  165loPI   GL2 2630  11.747  13.783   9.983  0.2639 -0.0796 -0.0753
  165loPI   C1A 2631  11.682  14.476   9.696  0.0628 -0.1616  0.0523
  165loPI   C2A 2632  11.665  14.524   9.365 -0.1822 -0.1277 -0.2378
  165loPI   C3A 2633  11.700  14.469   8.897 -0.1410  0.0378  0.0283
  165loPI   C4A 2634  11.785  14.550   8.528 -0.2301 -0.0313  0.1898
  165loPI   C5A 2635  11.823  14.528   8.085  0.2190 -0.0607  0.0869
  165loPI   C6A 2636  12.111  14.589   7.777  0.3355 -0.0402 -0.2615
  165loPI   C1B 2637  11.632  13.883   9.458 -0.1532  0.0594  0.1231
  165loPI   C2B 2638  11.660  13.951   8.926  0.2911 -0.1263 -0.2258
  165loPI   C3B 2639  11.754  14.076   8.513  0.1354 -0.0770 -0.0416
  165loPI   C4B 2640  11.804  14.043   8.083  0.3176 -0.0490 -0.1501
  166loPI    C1 2641  12.446   4.829  10.212 -0.1133  0.0276 -0.1817
  166loPI    C2 2642  12.503   4.662  10.571  0.0767  0.0409 -0.2050
  166loPI    C3 2643  12.369   5.038  10.545  0.0499  0.0353 -0.1482
  166loPI   PO4 2644  12.716   4.712  10.052 -0.1481 -0.2815  0.2164
  166loPI   GL1 2645  12.681   4.645   9.676 -0.0500 -0.2143 -0.0834
  166loPI   GL2 2646  12.880   4.395   9.580  0.0444  0.0715  0.1664
  166loPI   C1A 2647  12.481   4.673   9.378  0.3777 -0.3403  0.0331
  166loPI   C2A 2648  12.613   4.507   8.926  0.2960  0.0240  0.1216
  166loPI   C3A 2649  12.778   4.467   8.486  0.0043  0.0158  0.1534
  166loPI   C4A 2650  12.922   4.401   8.144  0.0094 -0.0544 -0.0744
  166loPI   C5A 2651  12.828   4.101   7.741  0.0056  0.1606  0.3751
  166loPI   C6A 2652  12.542   4.227   7.325 -0.1369  0.0571  0.0937
  166loPI   C1B 2653  12.931   4.261   9.266 -0.0993  0.3635 -0.1861
  166loPI   C2B 2654  13.001   4.133   8.842 -0.3370 -0.0286 -0.0880
  166loPI   C3B 2655  12.955   3.970   8.448  0.4776 -0.0121  0.0556
  166loPI   C4B 2656  12.708   3.781   8.123  0.2483 -0.2757  0.2290
  167loPI    C1 2657   7.838   2.581  10.056 -0.1923 -0.0646  0.0335
  167loPI    C2 2658   7.687   2.946  10.119 -0.1423 -0.0304 -0.0435
  167loPI    C3 2659   7.620   2.654  10.383 -0.0899  0.0633  0.0742
  167loPI   PO4 2660   7.880   2.666   9.714 -0.1748 -0.1301  0.1017
  167loPI   GL1 2661   8.044   2.820   9.434  0.3948  0.1531  0.4103
  167loPI   GL2 2662   8.133   3.114   9.273  0.2284 -0.1428  0.3539
  167loPI   C1A 2663   7.744   2.907   9.041  0.0029  0.0889  0.2338
  167loPI   C2A 2664   7.605   2.887   8.607  0.1919 -0.0162  0.0462
  167loPI   C3A 2665   7.642   2.780   8.219 -0.0845 -0.0323  0.0160
  167loPI   C4A 2666   7.514   2.863   7.897  0.0765  0.2539  0.0181
  167loPI   C5A 2667   7.732   2.937   7.612  0.2424  0.3154 -0.0125
  167loPI   C6A 2668   7.925   3.033   7.224 -0.0173 -0.3118 -0.1705
  167loPI   C1B 2669   8.074   3.235   8.826  0.0581 -0.0168 -0.0365
  167loPI   C2B 2670   7.997   3.182   8.360  0.0888  0.1508 -0.1617
  167loPI   C3B 2671   7.783   3.384   8.048 -0.0887  0.1449 -0.2462
  167loPI   C4B 2672   7.406   3.329   7.753  0.2587 -0.1494  0.4050
  168loPI    C1 2673   4.279   8.465  10.909  0.0536 -0.0794  0.0466
  168loPI    C2 2674   3.951   8.678  10.991  0.0828  0.0194 -0.0900
  168loPI    C3 2675   3.972   8.294  11.100  0.0694  0.1110  0.2471
  168loPI   PO4 2676   4.333   8.456  10.682 -0.1365  0.0538  0.1657
  168loPI   GL1 2677   4.175   8.467  10.322  0.1583  0.3133  0.1317
  168loPI   GL2 2678   4.315   8.417  10.147 -0.0165 -0.0894  0.2548
  168loPI   C1A 2679   4.181   8.874  10.010  0.1600 -0.0765 -0.0893
  168loPI   C2A 2680   4.323   9.086   9.572 -0.2492 -0.1141 -0.4177
  168loPI   C3A 2681   4.319   9.022   9.159  0.0309 -0.2472 -0.1033
  168loPI   C4A 2682   4.227   8.965   8.782 -0.2258  0.2503  0.1022
  168loPI   C5A 2683   4.182   8.961   8.435 -0.0813  0.0168  0.0054
  168loPI   C6A 2684   4.358   9.097   8.089  0.1929  0.3776  0.4031
  168loPI   C1B 2685   4.373   8.531   9.619  0.1490  0.3358 -0.2272
  168loPI   C2B 2686   4.329   8.476   9.134 -0.0273  0.3383 -0.0528
  168loPI   C3B 2687   4.235   8.369   8.711 -0.0380 -0.2585  0.0901
  168loPI   C4B 2688   4.492   8.295   8.304  0.1295 -0.0652 -0.1111
  169loPI    C1 2689  14.220   0.349  10.879 -0.2031  0.0025 -0.0601
  169loPI    C2 2690  14.153  -0.034  10.971  0.1153 -0.0203  0.0899
  169loPI    C3 2691  14.352   0.201  11.226 -0.1502  0.2698  0.0363
  169loPI   PO4 2692  14.130   0.318  10.615 -0.1955 -0.2064 -0.0563
  169loPI   GL1 2693  14.051   0.123  10.212 -0.3956 -0.2765  0.2778
  169loPI   GL2 2694  14.285   0.446  10.121 -0.3004 -0.2797  0.4281
  169loPI   C1A 2695  14.073   0.141   9.741 -0.1404 -0.0575 -0.0366
  169loPI   C2A 2696  14.072   0.191   9.370  0.0601  0.0256  0.0389
  169loPI   C3A 2697  14.113   0.296   8.935  0.3458  0.0079  0.4480
  169loPI   C4A 2698  13.840   0.334   8.545 -0.3099 -0.0396 -0.1828
  169loPI   C5A 2699  13.801   0.624   8.334 -0.1173  0.0588  0.1609
  169loPI   C6A 2700  13.370   0.999   8.188 -0.0042  0.0029  0.1249
  169loPI   C1B 2701  14.342   0.504   9.649 -0.0058  0.0387  0.0138
  169loPI   C2B 2702  14.504   0.451   9.233  0.1398  0.0088  0.0157
  169loPI   C3B 2703  14.702   0.489   8.881  0.1281 -0.0814 -0.1357
  169loPI   C4B 2704  14.680   0.800   8.570 -0.1642 -0.1421  0.0225
  170loPI    C1 2705   6.330   6.003  10.709 -0.0042  0.1198 -0.0485
  170loPI    C2 2706   6.485   6.007  11.078  0.1821 -0.2059 -0.1196
  170loPI    C3 2707   6.096   5.932  11.026  0.0549  0.3060  0.0382
  170loPI   PO4 2708   6.470   5.787  10.554 -0.0614  0.0652 -0.0707
  170loPI   GL1 2709   6.335   5.620  10.045  0.0479 -0.5178 -0.3454
  170loPI   GL2 2710   6.123   5.833  10.196 -0.3932  0.0427  0.0724
  170loPI   C1A 2711   6.171   5.759   9.606  0.1332  0.0867 -0.1109
  170loPI   C2A 2712   6.195   5.835   9.170 -0.0682  0.0785 -0.0423
  170loPI   C3A 2713   6.253   5.895   8.694  0.0461  0.2875 -0.0233
  170loPI   C4A 2714   6.228   6.198   8.404  0.1918 -0.0208 -0.3299
  170loPI   C5A 2715   6.124   6.568   8.192  0.0806  0.3147 -0.1118
  170loPI   C6A 2716   6.438   6.715   7.972  0.0961 -0.0635  0.1960
  170loPI   C1B 2717   6.152   6.246   9.913  0.2071 -0.0605  0.0269
  170loPI   C2B 2718   6.045   6.325   9.533  0.0608 -0.0903 -0.1374
  170loPI   C3B 2719   6.202   6.352   9.198 -0.3135 -0.2560  0.1949
  170loPI   C4B 2720   6.209   6.383   8.864  0.1487  0.0064  0.1743
  171loPI    C1 2721   3.263  16.255  10.491 -0.1692  0.0451  0.1046
  171loPI    C2 2722   3.339  16.272  10.884  0.0429  0.0232  0.0654
  171loPI    C3 2723   3.322  16.609  10.668 -0.1068  0.0378  0.0988
  171loPI   PO4 2724   3.073  16.109  10.420 -0.1331 -0.1873 -0.2626
  171loPI   GL1 2725   2.928  16.183  10.092  0.1385 -0.0953  0.2459
  171loPI   GL2 2726   3.187  16.082   9.869  0.1094  0.0273  0.0451
  171loPI   C1A 2727   2.741  16.376   9.718 -0.3466  0.1422 -0.0104
  171loPI   C2A 2728   2.732  16.434   9.343 -0.2263  0.1624 -0.0116
  171loPI   C3A 2729   2.771  16.491   8.949  0.1238  0.0113 -0.4050
  171loPI   C4A 2730   2.722  16.363   8.586 -0.1483  0.3167 -0.0779
  171loPI   C5A 2731   2.778  16.438   8.171  0.3831 -0.5969 -0.2111
  171loPI   C6A 2732   2.949  16.715   7.970 -0.1957 -0.0545 -0.1499
  171loPI   C1B 2733   3.007  15.999   9.479 -0.2706 -0.2938  0.0545
  171loPI   C2B 2734   3.039  15.971   9.026 -0.0280  0.1221 -0.0813
  171loPI   C3B 2735   3.069  15.964   8.670 -0.1354 -0.0751  0.0672
  171loPI   C4B 2736   3.044  15.637   8.414  0.2307  0.3260  0.1687
  172loPI    C1 2737  17.047   6.526  10.702 -0.5089  0.2203 -0.1566
  172loPI    C2 2738  17.370   6.667  10.890 -0.2278 -0.4110 -0.1424
  172loPI    C3 2739  17.009   6.705  11.058 -0.2204  0.5555 -0.2880
  172loPI   PO4 2740  17.226   6.486  10.467  0.2401  0.0944  0.3740
  172loPI   GL1 2741  17.470   6.613  10.219 -0.0567 -0.1052  0.0186
  172loPI   GL2 2742  17.233   6.364   9.984  0.3031  0.0167  0.5201
  172loPI   C1A 2743  17.609   6.581   9.819 -0.1858  0.0053 -0.0907
  172loPI   C2A 2744  17.833   6.537   9.385 -0.3066 -0.1737  0.1182
  172loPI   C3A 2745  17.982   6.405   9.019  0.0521  0.0756  0.0795
  172loPI   C4A 2746  17.885   6.267   8.601 -0.3718 -0.0450 -0.0471
  172loPI   C5A 2747  17.960   6.401   8.103 -0.0839  0.1765  0.0809
  172loPI   C6A 2748  18.161   6.123   7.838  0.0963 -0.2215 -0.0480
  172loPI   C1B 2749  17.346   6.328   9.514  0.0822 -0.1681 -0.2431
  172loPI   C2B 2750  17.495   6.250   9.103  0.0409 -0.0924 -0.1865
  172loPI   C3B 2751  17.478   6.058   8.777 -0.2726 -0.2388 -0.0660
  172loPI   C4B 2752  17.473   5.929   8.440  0.1193  0.1959 -0.1394
  173loPI    C1 2753  12.209   1.758  10.684  0.2452 -0.0994 -0.0666
  173loPI    C2 2754  12.407   1.974  10.956  0.1112 -0.0168 -0.0336
  173loPI    C3 2755  12.221   2.157  10.653  0.0519 -0.0904 -0.0421
  173loPI   PO4 2756  12.367   1.575  10.632 -0.0740 -0.0684 -0.1639
  173loPI   GL1 2757  12.472   1.488  10.294  0.1607 -0.0456  0.0781
  173loPI   GL2 2758  12.540   1.801  10.244 -0.0673  0.1811  0.0290
  173loPI   C1A 2759  12.176   1.406  10.001 -0.2594 -0.0597  0.1471
  173loPI   C2A 2760  12.267   1.382   9.599 -0.4157 -0.3394 -0.2042
  173loPI   C3A 2761  12.296   1.308   9.131  0.2236 -0.0636  0.2792
  173loPI   C4A 2762  12.343   1.366   8.663 -0.1737 -0.1188 -0.0583
  173loPI   C5A 2763  12.411   1.412   8.252  0.1729 -0.0097 -0.0804
  173loPI   C6A 2764  12.674   1.698   8.035  0.2651 -0.3501  0.0296
  173loPI   C1B 2765  12.695   1.557   9.885  0.1407  0.1703  0.0696
  173loPI   C2B 2766  12.749   1.568   9.411 -0.1128  0.1399 -0.0968
  173loPI   C3B 2767  12.830   1.589   9.020 -0.0056 -0.2180 -0.0834
  173loPI   C4B 2768  12.798   1.607   8.597 -0.2840 -0.1610  0.1760
  174loPI    C1 2769   0.111   9.983  10.686 -0.0650  0.1068  0.0205
  174loPI    C2 2770   0.474   9.846  10.589 -0.0812 -0.0634  0.1958
  174loPI    C3 2771   0.393   9.947  10.967 -0.1574  0.1609  0.1208
  174loPI   PO4 2772   0.024  10.088  10.450 -0.1994  0.2362  0.0291
  174loPI   GL1 2773   0.113   9.988  10.156 -0.2172 -0.0253 -0.0125
  174loPI   GL2 2774  -0.164  10.149   9.916 -0.0123  0.0978 -0.2144
  174loPI   C1A 2775   0.283   9.972   9.654 -0.2004  0.1174  0.3553
  174loPI   C2A 2776   0.281   9.949   9.249  0.1186  0.1748  0.0044
  174loPI   C3A 2777   0.170   9.907   8.929 -0.0021 -0.2158  0.2355
  174loPI   C4A 2778   0.320  10.010   8.544 -0.1123  0.1080 -0.1848
  174loPI   C5A 2779   0.744  10.028   8.297  0.1549 -0.3437 -0.0227
  174loPI   C6A 2780   0.976   9.743   8.169  0.1216 -0.0347  0.0388
  174loPI   C1B 2781  -0.150  10.216   9.398 -0.3728  0.0993  0.0908
  174loPI   C2B 2782  -0.229  10.208   8.950 -0.1296  0.1816  0.0110
  174loPI   C3B 2783  -0.250  10.083   8.472  0.1508  0.4242 -0.1666
  174loPI   C4B 2784   0.026  10.178   8.144  0.0613 -0.1538 -0.0646
  175loPI    C1 2785   9.696   6.270  10.452 -0.1299 -0.0318  0.2209
  175loPI    C2 2786   9.905   5.947  10.562 -0.1545 -0.1006  0.0677
  175loPI    C3 2787   9.515   5.914  10.479 -0.1658 -0.0239  0.0903
  175loPI   PO4 2788   9.847   6.390  10.220  0.2275 -0.3402 -0.1624
  175loPI   GL1 2789   9.616   6.475   9.809 -0.2604  0.2834 -0.1315
  175loPI   GL2 2790   9.887   6.688   9.850 -0.2942  0.1713  0.0930
  175loPI   C1A 2791   9.855   6.480   9.371  0.0279 -0.2349 -0.0666
  175loPI   C2A 2792   9.783   6.470   8.989 -0.0309  0.0799 -0.0887
  175loPI   C3A 2793   9.846   6.392   8.599  0.1112 -0.3053 -0.0051
  175loPI   C4A 2794   9.817   6.285   8.076 -0.4030 -0.2020  0.1860
  175loPI   C5A 2795   9.531   6.416   7.834 -0.0504 -0.3105  0.2361
  175loPI   C6A 2796   9.310   6.149   7.622  0.0310  0.1216 -0.0399
  175loPI   C1B 2797   9.879   7.010   9.532  0.0092 -0.0134  0.2077
  175loPI   C2B 2798   9.823   7.000   9.095  0.2054 -0.0813 -0.0091
  175loPI   C3B 2799   9.859   6.862   8.708  0.1135 -0.0176 -0.0130
  175loPI   C4B 2800   9.797   6.736   8.263  0.1465 -0.0703  0.2186
  176loPI    C1 2801  12.770  12.019  10.242  0.1084  0.0822  0.3141
  176loPI    C2 2802  13.007  12.337  10.185  0.1970 -0.0122  0.1488
  176loPI    C3 2803  12.982  12.169  10.547  0.4162 -0.0271  0.1586
  176loPI   PO4 2804  12.763  11.930   9.938 -0.0221 -0.0412  0.0097
  176loPI   GL1 2805  12.499  11.741   9.653 -0.0159  0.1258 -0.0591
  176loPI   GL2 2806  12.491  12.149   9.570  0.0149 -0.0514  0.3630
  176loPI   C1A 2807  12.653  11.707   9.261 -0.1340  0.4242  0.2820
  176loPI   C2A 2808  12.710  11.775   8.802  0.2962  0.0600 -0.2611
  176loPI   C3A 2809  12.651  11.805   8.320  0.1304 -0.1118  0.1270
  176loPI   C4A 2810  12.760  11.877   7.846 -0.2675 -0.1867  0.2957
  176loPI   C5A 2811  12.454  11.879   7.587  0.0755  0.1174 -0.1269
  176loPI   C6A 2812  12.400  11.458   7.366 -0.0903 -0.3877 -0.0190
  176loPI   C1B 2813  12.352  12.108   9.182 -0.1383  0.0909  0.1289
  176loPI   C2B 2814  12.397  12.255   8.746 -0.0148  0.0528 -0.1216
  176loPI   C3B 2815  12.432  12.322   8.385  0.0378 -0.1709 -0.0641
  176loPI   C4B 2816  12.660  12.606   8.141  0.1506 -0.1112  0.0624
  177loPI    C1 2817   3.229   6.296  10.947 -0.1248 -0.1326  0.0026
  177loPI    C2 2818   3.518   6.513  11.118 -0.0042 -0.1725 -0.1489
  177loPI    C3 2819   3.286   6.278  11.343  0.0831 -0.1433 -0.0267
  177loPI   PO4 2820   3.319   6.181  10.793 -0.0370  0.0722 -0.1600
  177loPI   GL1 2821   3.240   6.208  10.385 -0.2183  0.2024  0.1955
  177loPI   GL2 2822   3.455   6.375  10.151  0.0331 -0.0409  0.0419
  177loPI   C1A 2823   3.034   6.147  10.042 -0.0944 -0.0151  0.1159
  177loPI   C2A 2824   2.909   6.205   9.720  0.2117  0.1379 -0.2785
  177loPI   C3A 2825   2.854   6.217   9.386  0.0589  0.1403  0.0996
  177loPI   C4A 2826   2.989   6.147   8.906  0.1855  0.0202 -0.2916
  177loPI   C5A 2827   2.969   6.069   8.516 -0.0124  0.2977  0.2630
  177loPI   C6A 2828   2.808   5.883   8.126 -0.0779 -0.2217 -0.0656
  177loPI   C1B 2829   3.336   6.458   9.743 -0.1394 -0.0474  0.1194
  177loPI   C2B 2830   3.361   6.391   9.356  0.0725 -0.1605 -0.0534
  177loPI   C3B 2831   3.441   6.330   8.808  0.1042  0.1525 -0.0064
  177loPI   C4B 2832   3.483   6.313   8.430 -0.1125  0.0125 -0.0950
  178loPI    C1 2833   3.547  12.127  10.830 -0.1188  0.2935 -0.0621
  178loPI    C2 2834   3.412  11.907  11.136 -0.1156  0.0844 -0.2094
  178loPI    C3 2835   3.544  12.279  11.200  0.1689 -0.0636  0.0930
  178loPI   PO4 2836   3.334  12.076  10.645  0.1239  0.0093 -0.1417
  178loPI   GL1 2837   3.310  11.880  10.280  0.3330  0.0175  0.1232
  178loPI   GL2 2838   3.123  11.687  10.267  0.1608  0.1051  0.0922
  178loPI   C1A 2839   3.551  11.735   9.975  0.1205 -0.0334  0.2155
  178loPI   C2A 2840   3.523  11.829   9.565  0.2140 -0.4106 -0.1824
  178loPI   C3A 2841   3.516  11.791   9.072 -0.1163 -0.0380 -0.1617
  178loPI   C4A 2842   3.432  11.660   8.667 -0.0146  0.3380  0.1068
  178loPI   C5A 2843   3.497  11.608   8.142 -0.1109  0.2240  0.1190
  178loPI   C6A 2844   3.417  11.552   7.697 -0.0986 -0.2180 -0.0122
  178loPI   C1B 2845   3.056  11.596   9.923 -0.2315  0.1620  0.0930
  178loPI   C2B 2846   3.095  11.522   9.471 -0.0940 -0.3646  0.1172
  178loPI   C3B 2847   2.998  11.495   8.947  0.2080 -0.4121 -0.0697
  178loPI   C4B 2848   2.947  11.541   8.529 -0.3013  0.1534 -0.1912
  179loPI    C1 2849   5.215   9.384  10.719  0.1436  0.1033  0.3196
  179loPI    C2 2850   4.847   9.519  10.637  0.0843 -0.2798 -0.0880
  179loPI    C3 2851   4.963   9.470  11.017 -0.1956  0.0720  0.0482
  179loPI   PO4 2852   5.265   9.185  10.561  0.0396 -0.2000  0.2268
  179loPI   GL1 2853   5.273   9.207  10.189  0.1129 -0.0597  0.3743
  179loPI   GL2 2854   5.053   8.904  10.255 -0.0953  0.3768 -0.1707
  179loPI   C1A 2855   5.385   9.066   9.699  0.2171 -0.0227 -0.2060
  179loPI   C2A 2856   5.320   9.040   9.301 -0.0094 -0.1872  0.2499
  179loPI   C3A 2857   5.202   9.020   8.838 -0.1312  0.2295  0.1139
  179loPI   C4A 2858   5.173   9.056   8.430  0.0164  0.1376  0.1389
  179loPI   C5A 2859   4.982   8.942   8.014  0.0665  0.1502 -0.3065
  179loPI   C6A 2860   5.042   8.650   7.624 -0.0283 -0.0346  0.0402
  179loPI   C1B 2861   5.228   8.610   9.911  0.0692  0.0027  0.0314
  179loPI   C2B 2862   5.353   8.547   9.502 -0.3029  0.0125  0.2140
  179loPI   C3B 2863   5.278   8.562   9.084 -0.0215 -0.0193  0.0902
  179loPI   C4B 2864   5.247   8.532   8.650 -0.0435  0.0773  0.0394
  180loPI    C1 2865   4.276  15.260  10.190  0.0632  0.2129  0.0958
  180loPI    C2 2866   4.363  15.286  10.579  0.1564 -0.0236  0.0925
  180loPI    C3 2867   4.042  15.080  10.459  0.2078 -0.0712  0.0359
  180loPI   PO4 2868   4.387  15.521  10.140  0.3743 -0.0144  0.3186
  180loPI   GL1 2869   4.293  15.741   9.788 -0.1685  0.3002 -0.0989
  180loPI   GL2 2870   4.014  15.860   9.659  0.2343 -0.0564 -0.0077
  180loPI   C1A 2871   4.362  15.513   9.402  0.1200  0.2964 -0.0058
  180loPI   C2A 2872   4.433  15.499   9.071  0.0193 -0.0538  0.0260
  180loPI   C3A 2873   4.456  15.393   8.689 -0.2603  0.3979  0.0165
  180loPI   C4A 2874   4.434  15.244   8.306  0.0291 -0.2375 -0.1255
  180loPI   C5A 2875   4.358  15.102   7.889  0.2128 -0.1972  0.3327
  180loPI   C6A 2876   4.371  14.966   7.462  0.1546  0.2310 -0.2437
  180loPI   C1B 2877   3.974  15.777   9.161 -0.0259  0.3741 -0.2485
  180loPI   C2B 2878   3.994  15.675   8.785  0.2415  0.3172 -0.2424
  180loPI   C3B 2879   4.037  15.487   8.416  0.0893 -0.3406 -0.3381
  180loPI   C4B 2880   3.960  15.444   7.989  0.1240  0.4125 -0.0330
  181loPI    C1 2881  17.049   7.034  10.631 -0.1240 -0.0140 -0.0291
  181loPI    C2 2882  16.901   7.248  10.935  0.1909  0.1548  0.0087
  181loPI    C3 2883  17.254   7.345  10.774  0.2069 -0.1677 -0.1595
  181loPI   PO4 2884  16.831   6.993  10.407 -0.2472  0.1179  0.0467
  181loPI   GL1 2885  16.878   6.625  10.173  0.1359 -0.0177 -0.0820
  181loPI   GL2 2886  16.636   6.759   9.927 -0.3301 -0.2814 -0.0327
  181loPI   C1A 2887  17.117   6.851   9.912 -0.1232 -0.1811  0.1955
  181loPI   C2A 2888  17.330   6.836   9.451  0.0671 -0.0156  0.0347
  181loPI   C3A 2889  17.447   6.801   9.044 -0.2400  0.1376 -0.0877
  181loPI   C4A 2890  17.553   6.619   8.746 -0.1714  0.2153  0.1580
  181loPI   C5A 2891  17.462   6.485   8.340  0.2912 -0.0514 -0.2878
  181loPI   C6A 2892  17.519   6.206   7.893  0.0382  0.2001  0.1343
  181loPI   C1B 2893  16.839   6.617   9.504  0.1212 -0.1466 -0.0038
  181loPI   C2B 2894  17.031   6.561   9.134  0.0163  0.2397 -0.2183
  181loPI   C3B 2895  17.108   6.406   8.758 -0.1008 -0.0658 -0.0190
  181loPI   C4B 2896  17.073   6.196   8.282  0.1612  0.0635  0.0205
  182loPI    C1 2897  15.768  12.962  10.776  0.0129  0.0540  0.0162
  182loPI    C2 2898  15.517  13.153  11.021 -0.1215  0.3810 -0.3664
  182loPI    C3 2899  15.911  13.172  11.085 -0.1782 -0.0902  0.2053
  182loPI   PO4 2900  15.558  12.977  10.531 -0.4102 -0.0952  0.0771
  182loPI   GL1 2901  15.600  12.831  10.178  0.3500 -0.0082 -0.0989
  182loPI   GL2 2902  15.858  13.066  10.153 -0.1441 -0.1270 -0.0964
  182loPI   C1A 2903  15.338  13.096   9.887  0.0153  0.0681 -0.0188
  182loPI   C2A 2904  15.318  13.320   9.476 -0.0042 -0.0125 -0.1359
  182loPI   C3A 2905  15.363  13.355   8.934 -0.1341 -0.0963  0.0777
  182loPI   C4A 2906  15.416  13.417   8.504  0.2109  0.3136  0.1261
  182loPI   C5A 2907  15.373  13.488   8.138 -0.1184  0.2660 -0.0964
  182loPI   C6A 2908  15.400  13.370   7.737  0.2860  0.0094 -0.0338
  182loPI   C1B 2909  15.792  13.031   9.725  0.1949  0.4630 -0.0094
  182loPI   C2B 2910  15.820  13.012   9.257 -0.2548  0.1708  0.0730
  182loPI   C3B 2911  15.866  13.053   8.791  0.0285 -0.2231 -0.2060
  182loPI   C4B 2912  15.811  13.144   8.338  0.2960 -0.1234 -0.4452
  183loPI    C1 2913   9.705  10.228  10.418 -0.1880 -0.2633 -0.0322
  183loPI    C2 2914   9.983  10.033  10.206 -0.0615 -0.1709  0.0469
  183loPI    C3 2915  10.048  10.115  10.592 -0.1048  0.0451  0.0093
  183loPI   PO4 2916   9.528  10.234  10.170  0.0191  0.1966  0.2935
  183loPI   GL1 2917   9.515  10.282   9.734  0.2407  0.0593 -0.1443
  183loPI   GL2 2918   9.309  10.554   9.892 -0.0518 -0.1020 -0.0971
  183loPI   C1A 2919   9.552  10.442   9.370 -0.1482 -0.1763  0.0642
  183loPI   C2A 2920   9.462  10.418   9.014  0.0113 -0.2057 -0.0355
  183loPI   C3A 2921   9.578  10.328   8.639  0.2527  0.4100 -0.0172
  183loPI   C4A 2922   9.497  10.287   8.183 -0.0937 -0.1592 -0.4482
  183loPI   C5A 2923   9.363  10.325   7.698 -0.1260  0.1413 -0.2128
  183loPI   C6A 2924   8.840  10.367   7.568 -0.1122  0.0089 -0.4755
  183loPI   C1B 2925   9.098  10.558   9.559 -0.1031  0.0999  0.1927
  183loPI   C2B 2926   9.042  10.601   9.133 -0.1734 -0.1216  0.1783
  183loPI   C3B 2927   9.088  10.662   8.724  0.2390  0.3400 -0.2630
  183loPI   C4B 2928   9.011  10.813   8.373 -0.0818 -0.1671  0.2054
  184loPI    C1 2929  11.984  13.570  10.448 -0.0827  0.0180  0.2473
  184loPI    C2 2930  11.639  13.760  10.521 -0.1394 -0.0072  0.0533
  184loPI    C3 2931  11.787  13.502  10.789 -0.2090  0.0945  0.1905
  184loPI   PO4 2932  12.161  13.835  10.384  0.1278 -0.2466 -0.2364
  184loPI   GL1 2933  12.169  14.029  10.002  0.1203  0.2551  0.6109
  184loPI   GL2 2934  12.465  14.030   9.962  0.0988  0.0785 -0.2737
  184loPI   C1A 2935  12.087  14.209   9.552 -0.0886 -0.5416  0.1343
  184loPI   C2A 2936  12.164  14.268   9.142  0.2169 -0.3521 -0.1357
  184loPI   C3A 2937  12.209  14.300   8.754  0.0148 -0.1108 -0.2237
  184loPI   C4A 2938  12.243  14.331   8.337 -0.0925  0.1219 -0.2122
  184loPI   C5A 2939  12.282  14.144   7.930  0.0360 -0.2193  0.0624
  184loPI   C6A 2940  12.152  14.138   7.501 -0.0795  0.1609  0.1895
  184loPI   C1B 2941  12.538  13.972   9.517 -0.0319 -0.1204 -0.0548
  184loPI   C2B 2942  12.562  13.991   9.025  0.0123  0.1350  0.2269
  184loPI   C3B 2943  12.615  13.938   8.622 -0.1311  0.0315  0.3914
  184loPI   C4B 2944  12.690  14.053   8.205 -0.2462  0.0961 -0.3694
  185loPI    C1 2945   7.688   3.467  10.273 -0.0517  0.0856  0.0164
  185loPI    C2 2946   8.017   3.256  10.355 -0.0778 -0.0029 -0.1039
  185loPI    C3 2947   7.676   3.176  10.547  0.0506  0.3153  0.2688
  185loPI   PO4 2948   7.669   3.462   9.923 -0.1212 -0.2960  0.0434
  185loPI   GL1 2949   7.649   3.375   9.527  0.0950 -0.0563 -0.0031
  185loPI   GL2 2950   7.519   3.102   9.593 -0.1500 -0.0006  0.2967
  185loPI   C1A 2951   7.737   3.419   9.176  0.2808 -0.0524 -0.0790
  185loPI   C2A 2952   7.676   3.413   8.649  0.1974  0.3618  0.1082
  185loPI   C3A 2953   7.352   3.450   8.392 -0.2602 -0.1043  0.3660
  185loPI   C4A 2954   6.958   3.493   8.060 -0.1944  0.1286  0.5304
  185loPI   C5A 2955   6.515   3.743   7.861  0.0276 -0.1233 -0.0729
  185loPI   C6A 2956   6.387   3.981   7.450  0.0703 -0.1819  0.3278
  185loPI   C1B 2957   7.325   3.105   9.244  0.2415 -0.2241  0.0802
  185loPI   C2B 2958   7.219   3.159   8.826  0.0874  0.1043  0.2651
  185loPI   C3B 2959   6.929   3.200   8.525  0.0408 -0.0411 -0.0006
  185loPI   C4B 2960   6.592   3.174   8.217  0.2336 -0.1419  0.3803
  186loPI    C1 2961  11.207  15.800  10.784 -0.0210  0.1781 -0.0417
  186loPI    C2 2962  11.293  16.020  10.462  0.0678  0.0136 -0.1320
  186loPI    C3 2963  11.347  16.172  10.828 -0.1460  0.2438 -0.1926
  186loPI   PO4 2964  11.305  15.571  10.705 -0.1997  0.2403  0.1436
  186loPI   GL1 2965  11.504  15.502  10.316 -0.0179 -0.3366 -0.1661
  186loPI   GL2 2966  11.213  15.637  10.152  0.0641  0.1586  0.0596
  186loPI   C1A 2967  11.694  15.541   9.879 -0.0665 -0.2670 -0.0161
  186loPI   C2A 2968  11.712  15.426   9.410 -0.0314 -0.1187 -0.1856
  186loPI   C3A 2969  11.792  15.555   8.936 -0.1372 -0.3983  0.0452
  186loPI   C4A 2970  11.847  15.626   8.470 -0.2641 -0.1765  0.0128
  186loPI   C5A 2971  11.822  15.598   8.059 -0.0405 -0.1096  0.1132
  186loPI   C6A 2972  11.491  15.385   7.875  0.1159  0.0379 -0.1997
  186loPI   C1B 2973  11.235  15.718   9.745 -0.3293  0.2188 -0.1449
  186loPI   C2B 2974  11.267  15.679   9.370  0.4001  0.2832  0.2202
  186loPI   C3B 2975  11.304  15.754   9.001 -0.0899  0.0812  0.0474
  186loPI   C4B 2976  11.322  15.990   8.687 -0.0356 -0.0492 -0.1071
  187loPI    C1 2977   0.089   6.894  10.733 -0.1897 -0.1268 -0.0853
  187loPI    C2 2978   0.021   6.542  10.912  0.1278 -0.1718 -0.0487
  187loPI    C3 2979   0.161   6.851  11.124 -0.0329 -0.0585 -0.1061
  187loPI   PO4 2980   0.115   6.787  10.379  0.1401  0.1736  0.0781
  187loPI   GL1 2981   0.367   6.747  10.154 -0.0476  0.0142  0.3534
  187loPI   GL2 2982   0.630   6.571  10.063 -0.0465  0.0359  0.2180
  187loPI   C1A 2983   0.412   6.966   9.785 -0.0903 -0.0666  0.1130
  187loPI   C2A 2984   0.595   6.926   9.436 -0.0233 -0.0016  0.3111
  187loPI   C3A 2985   0.712   6.916   9.057 -0.3848 -0.3192 -0.1375
  187loPI   C4A 2986   0.700   6.775   8.678 -0.0879 -0.0180  0.0608
  187loPI   C5A 2987   0.855   6.625   8.323  0.2611  0.3713  0.1486
  187loPI   C6A 2988   1.232   6.511   8.050  0.2145 -0.0512  0.1136
  187loPI   C1B 2989   0.727   6.535   9.654  0.1455  0.1692  0.0754
  187loPI   C2B 2990   0.679   6.470   9.229  0.0233  0.1932 -0.2002
  187loPI   C3B 2991   0.691   6.314   8.875 -0.2028 -0.0529  0.2889
  187loPI   C4B 2992   0.546   6.230   8.393 -0.0940  0.0405  0.0327
  188loPI    C1 2993  10.139   2.916   9.990 -0.0267 -0.1145  0.2798
  188loPI    C2 2994  10.372   3.002  10.304  0.2239  0.0415  0.0547
  188loPI    C3 2995  10.119   3.277  10.161  0.0191 -0.0715  0.1948
  188loPI   PO4 2996  10.305   2.824   9.800 -0.2544 -0.1705 -0.0826
  188loPI   GL1 2997  10.579   2.789   9.516  0.2023 -0.0828  0.1092
  188loPI   GL2 2998  10.488   3.154   9.359  0.0485 -0.2161  0.0067
  188loPI   C1A 2999  10.624   2.688   9.058  0.0559 -0.1336 -0.1110
  188loPI   C2A 3000  10.616   2.579   8.633 -0.0091 -0.2057 -0.4899
  188loPI   C3A 3001  10.701   2.540   8.190 -0.2291  0.1666  0.4574
  188loPI   C4A 3002  11.013   2.289   7.970  0.3001 -0.0804 -0.0043
  188loPI   C5A 3003  11.215   1.958   8.002 -0.2297 -0.5077 -0.2301
  188loPI   C6A 3004  11.272   1.601   7.637  0.1366  0.3166  0.2130
  188loPI   C1B 3005  10.403   3.088   8.897  0.0361  0.1631  0.0608
  188loPI   C2B 3006  10.497   3.023   8.430 -0.2918  0.0916 -0.4199
  188loPI   C3B 3007  10.553   2.991   8.025 -0.1059  0.0049  0.3831
  188loPI   C4B 3008  10.432   3.150   7.679  0.0017 -0.0165  0.2108
  189loPI    C1 3009  12.094   8.769  10.220 -0.1006 -0.0157 -0.0895
  189loPI    C2 3010  12.443   8.936  10.321 -0.1592  0.0432  0.0185
  189loPI    C3 3011  12.357   8.563  10.438 -0.2806  0.1571  0.3012
  189loPI   PO4 3012  12.113   8.863   9.938 -0.0326  0.0261 -0.1104
  189loPI   GL1 3013  11.985   8.641   9.538 -0.0945 -0.0246 -0.1502
  189loPI   GL2 3014  11.840   8.830   9.517 -0.0300 -0.2868  0.1991
  189loPI   C1A 3015  12.005   8.338   9.263  0.0465 -0.0227 -0.0415
  189loPI   C2A 3016  11.887   8.187   8.816  0.2650 -0.0242  0.3443
  189loPI   C3A 3017  11.984   8.330   8.458 -0.0016  0.1288 -0.2027
  189loPI   C4A 3018  12.101   8.484   8.151  0.2779 -0.0904  0.1656
  189loPI   C5A 3019  12.033   8.676   7.778 -0.0148  0.3399 -0.1581
  189loPI   C6A 3020  11.903   8.852   7.420  0.2847  0.1198  0.1289
  189loPI   C1B 3021  11.836   8.731   9.015  0.0406 -0.2244  0.0606
  189loPI   C2B 3022  11.768   8.782   8.510 -0.0339  0.1300 -0.0205
  189loPI   C3B 3023  11.841   8.896   8.170 -0.0744  0.0844  0.2049
  189loPI   C4B 3024  11.593   8.992   7.779  0.0490 -0.0244  0.3175
  190loPI    C1 3025  10.691   6.343  10.251  0.1003  0.2491 -0.3192
  190loPI    C2 3026  11.069   6.345  10.121  0.1656  0.3646 -0.1326
  190loPI    C3 3027  10.987   6.452  10.497 -0.0187  0.0268 -0.0725
  190loPI   PO4 3028  10.612   6.097  10.127  0.1486 -0.3000 -0.1451
  190loPI   GL1 3029  10.535   6.022   9.740 -0.0715  0.0519 -0.0822
  190loPI   GL2 3030  10.790   6.032   9.504 -0.3922  0.2914  0.1942
  190loPI   C1A 3031  10.375   6.226   9.335  0.0318 -0.2479 -0.1643
  190loPI   C2A 3032  10.274   6.183   8.950  0.0015  0.2879  0.1125
  190loPI   C3A 3033  10.270   6.052   8.470 -0.2089 -0.1156 -0.3352
  190loPI   C4A 3034  10.176   5.964   8.036 -0.2346  0.0380 -0.0514
  190loPI   C5A 3035  10.035   6.150   7.641  0.3296 -0.2177  0.3414
  190loPI   C6A 3036  10.207   6.182   7.206 -0.1128 -0.2990  0.2448
  190loPI   C1B 3037  10.627   5.864   9.117 -0.2811  0.2307  0.0486
  190loPI   C2B 3038  10.709   5.828   8.740  0.3757  0.0880  0.0745
  190loPI   C3B 3039  10.656   5.772   8.274 -0.3447  0.1638 -0.0756
  190loPI   C4B 3040  10.773   5.922   7.852 -0.1782  0.1110  0.0887
  191loPI    C1 3041  13.641  13.543  10.487  0.0192 -0.0719  0.0740
  191loPI    C2 3042  13.833  13.200  10.413 -0.2568 -0.1833 -0.1433
  191loPI    C3 3043  13.746  13.303  10.789  0.1370 -0.1768 -0.0490
  191loPI   PO4 3044  13.783  13.692  10.314 -0.1282  0.0769 -0.0210
  191loPI   GL1 3045  13.676  13.902  10.004 -0.0162 -0.2349  0.2624
  191loPI   GL2 3046  13.847  14.111  10.089 -0.2507  0.1117  0.1059
  191loPI   C1A 3047  13.611  13.855   9.589  0.0794 -0.0628 -0.1653
  191loPI   C2A 3048  13.583  13.914   9.191 -0.3457  0.0373 -0.2174
  191loPI   C3A 3049  13.596  13.912   8.797 -0.1701 -0.0665  0.1439
  191loPI   C4A 3050  13.618  13.898   8.393  0.0828  0.3461 -0.0849
  191loPI   C5A 3051  13.720  13.688   7.957 -0.0926 -0.0586 -0.0525
  191loPI   C6A 3052  13.735  13.220   7.708 -0.1466  0.1552 -0.0500
  191loPI   C1B 3053  13.962  14.209   9.650  0.0960 -0.0274  0.0505
  191loPI   C2B 3054  13.997  14.205   9.187 -0.1889  0.0413 -0.4641
  191loPI   C3B 3055  14.121  14.120   8.820  0.3369  0.0356  0.2903
  191loPI   C4B 3056  14.058  14.105   8.364 -0.1052 -0.2910 -0.0875
  192loPI    C1 3057  17.937   2.213  11.212  0.0460  0.0040  0.0415
  192loPI    C2 3058  17.948   2.390  11.570 -0.2031 -0.0161  0.0612
  192loPI    C3 3059  17.970   2.610  11.237 -0.0940  0.0131  0.0871
  192loPI   PO4 3060  17.828   1.983  11.145 -0.1390  0.0500 -0.4308
  192loPI   GL1 3061  17.752   1.895  10.693 -0.1619  0.1894  0.0853
  192loPI   GL2 3062  17.760   2.147  10.420  0.1772  0.2039  0.0355
  192loPI   C1A 3063  17.827   1.704  10.252  0.4173  0.2922  0.1972
  192loPI   C2A 3064  17.842   1.702   9.940 -0.1089  0.0247  0.0506
  192loPI   C3A 3065  17.821   1.623   9.447  0.2022 -0.0170  0.3311
  192loPI   C4A 3066  17.841   1.501   9.030  0.1884 -0.0709 -0.1612
  192loPI   C5A 3067  17.777   1.624   8.574  0.3369  0.2771  0.1374
  192loPI   C6A 3068  17.419   1.659   8.331 -0.1620  0.0414 -0.1535
  192loPI   C1B 3069  17.872   2.196   9.989  0.0058 -0.2485 -0.1929
  192loPI   C2B 3070  17.815   2.128   9.616  0.0895  0.0064  0.0177
  192loPI   C3B 3071  17.916   2.067   9.235 -0.0182  0.0210  0.2675
  192loPI   C4B 3072  17.816   2.085   8.740  0.0021  0.4672  0.2539
  193loPI    C1 3073   6.138   2.460  10.269  0.0499 -0.1176 -0.1554
  193loPI    C2 3074   5.972   2.314  10.602  0.1277  0.0516 -0.0410
  193loPI    C3 3075   5.999   2.085  10.275  0.0616 -0.1196  0.0719
  193loPI   PO4 3076   6.032   2.693  10.272 -0.0137  0.1122 -0.0486
  193loPI   GL1 3077   5.834   2.846   9.947 -0.1952  0.2011 -0.0171
  193loPI   GL2 3078   5.910   3.126   9.821  0.0490 -0.0770 -0.0495
  193loPI   C1A 3079   5.921   2.750   9.440 -0.3124  0.1005  0.3882
  193loPI   C2A 3080   5.777   2.885   8.929  0.2806  0.0742 -0.1108
  193loPI   C3A 3081   5.827   3.055   8.496 -0.0292 -0.2459 -0.0629
  193loPI   C4A 3082   5.629   2.999   8.119 -0.0414 -0.0596  0.3105
  193loPI   C5A 3083   5.392   2.865   7.871  0.0133  0.3267  0.2182
  193loPI   C6A 3084   4.936   2.920   7.976 -0.1695  0.2038 -0.2523
  193loPI   C1B 3085   6.148   3.228   9.415  0.1401  0.2770  0.0684
  193loPI   C2B 3086   6.182   3.209   9.008  0.0047 -0.0733 -0.0101
  193loPI   C3B 3087   6.267   3.286   8.569  0.0105  0.0547  0.0805
  193loPI   C4B 3088   6.148   3.445   8.173  0.0497 -0.0367 -0.2076
  194loPI    C1 3089  13.915   5.329  10.657 -0.1383  0.0092  0.1702
  194loPI    C2 3090  13.667   5.600  10.499  0.0274  0.1138  0.0860
  194loPI    C3 3091  13.930   5.710  10.779 -0.0829 -0.0158  0.2424
  194loPI   PO4 3092  13.929   5.171  10.484  0.2659 -0.1560 -0.1480
  194loPI   GL1 3093  13.964   4.942  10.098 -0.2066  0.1444  0.0088
  194loPI   GL2 3094  13.737   5.116   9.979  0.4133 -0.0023  0.1064
  194loPI   C1A 3095  14.204   4.964   9.718 -0.0631  0.1456 -0.3915
  194loPI   C2A 3096  14.200   4.963   9.399  0.0668 -0.2858 -0.2185
  194loPI   C3A 3097  14.258   4.817   9.047  0.1591  0.0065 -0.0661
  194loPI   C4A 3098  14.345   5.003   8.587  0.1787  0.0304 -0.1897
  194loPI   C5A 3099  14.421   4.999   8.240 -0.1090 -0.2276 -0.0678
  194loPI   C6A 3100  14.736   5.153   7.885  0.3290  0.0227  0.3133
  194loPI   C1B 3101  13.795   5.221   9.600 -0.3137 -0.0557 -0.0591
  194loPI   C2B 3102  13.791   5.209   9.198 -0.0026  0.1513 -0.0582
  194loPI   C3B 3103  13.874   5.034   8.769 -0.0656 -0.1021  0.0812
  194loPI   C4B 3104  13.887   5.085   8.316 -0.0668 -0.2125 -0.2666
  195loPI    C1 3105  16.581   6.441  10.525  0.0567  0.2939  0.0729
  195loPI    C2 3106  16.277   6.467  10.784 -0.0138 -0.1923  0.0480
  195loPI    C3 3107  16.647   6.394  10.917  0.0429  0.0876  0.0512
  195loPI   PO4 3108  16.482   6.311  10.358  0.1093 -0.1080  0.0392
  195loPI   GL1 3109  16.690   6.219   9.983 -0.2015 -0.1152 -0.2369
  195loPI   GL2 3110  16.514   6.323   9.833 -0.0942  0.1022 -0.1800
  195loPI   C1A 3111  16.916   6.090   9.695 -0.1474 -0.2038  0.1681
  195loPI   C2A 3112  16.996   5.975   9.283  0.1449 -0.1116 -0.3303
  195loPI   C3A 3113  17.026   5.894   8.778 -0.0477 -0.1488  0.1007
  195loPI   C4A 3114  17.085   5.659   8.434  0.0222 -0.3729 -0.0771
  195loPI   C5A 3115  17.216   5.257   8.307 -0.0849  0.0571 -0.0644
  195loPI   C6A 3116  17.498   4.991   8.045 -0.1528 -0.0075 -0.1445
  195loPI   C1B 3117  16.518   6.321   9.304 -0.1378 -0.2739  0.0060
  195loPI   C2B 3118  16.610   6.151   8.975  0.0305  0.1047 -0.2297
  195loPI   C3B 3119  16.537   5.962   8.549  0.1507  0.0365 -0.1142
  195loPI   C4B 3120  16.608   5.870   8.109 -0.2369  0.1506 -0.4770
  196loPI    C1 3121  13.941   6.448  10.715  0.0439 -0.1379  0.1249
  196loPI    C2 3122  13.647   6.562  10.960 -0.0310 -0.0335 -0.0122
  196loPI    C3 3123  13.795   6.192  10.985 -0.3673 -0.1800 -0.1285
  196loPI   PO4 3124  13.844   6.614  10.394 -0.1920  0.0934 -0.3176
  196loPI   GL1 3125  13.818   6.545   9.937 -0.2246  0.0626 -0.0615
  196loPI   GL2 3126  14.068   6.299  10.063  0.2117 -0.0537 -0.0953
  196loPI   C1A 3127  13.695   6.189   9.773  0.2385 -0.0001  0.1477
  196loPI   C2A 3128  13.669   6.175   9.241 -0.0270 -0.0003  0.0371
  196loPI   C3A 3129  13.687   6.222   8.850 -0.2486  0.0365  0.1419
  196loPI   C4A 3130  13.738   6.090   8.456  0.0779  0.1267 -0.0476
  196loPI   C5A 3131  14.141   6.123   8.149  0.0228  0.0470 -0.0499
  196loPI   C6A 3132  14.574   6.233   7.958 -0.0198  0.0301 -0.2157
  196loPI   C1B 3133  14.092   6.502   9.546  0.2950  0.0587  0.1995
  196loPI   C2B 3134  14.217   6.525   9.124  0.0707 -0.2475  0.1540
  196loPI   C3B 3135  14.306   6.556   8.733 -0.0929  0.1919 -0.3618
  196loPI   C4B 3136  14.383   6.567   8.293 -0.4099  0.2153  0.0240
  197loPI    C1 3137  10.711  15.665  10.778 -0.0125  0.0015  0.0232
  197loPI    C2 3138  10.439  15.484  10.547 -0.2260  0.2047  0.1119
  197loPI    C3 3139  10.402  15.474  10.945 -0.1243  0.2646  0.1233
  197loPI   PO4 3140  10.666  15.907  10.670  0.0302  0.2256 -0.0930
  197loPI   GL1 3141  10.744  15.941  10.289 -0.0962  0.0160 -0.0312
  197loPI   GL2 3142  10.476  15.843  10.235  0.2122  0.0286  0.1169
  197loPI   C1A 3143  10.967  16.116  10.010  0.0115 -0.1508  0.0187
  197loPI   C2A 3144  10.964  16.089   9.515  0.1887 -0.3081 -0.2864
  197loPI   C3A 3145  10.816  15.950   9.169  0.1866  0.1994 -0.3007
  197loPI   C4A 3146  10.806  16.055   8.761  0.2749  0.1853  0.2068
  197loPI   C5A 3147  10.968  15.855   8.388 -0.2322 -0.0802 -0.0433
  197loPI   C6A 3148  11.279  15.771   8.165 -0.2367 -0.0217  0.2070
  197loPI   C1B 3149  10.329  15.709   9.820  0.0205  0.0657 -0.0422
  197loPI   C2B 3150  10.313  15.693   9.323 -0.1444 -0.2706  0.2188
  197loPI   C3B 3151  10.362  15.788   8.992  0.0818  0.2788 -0.0623
  197loPI   C4B 3152  10.435  15.744   8.530 -0.0543 -0.1029 -0.0476
  198loPI    C1 3153   3.502   1.679  10.888  0.3275  0.0303  0.1106
  198loPI    C2 3154   3.610   1.437  11.187 -0.1173 -0.1698  0.1184
  198loPI    C3 3155   3.256   1.623  11.199  0.0072  0.0902 -0.1264
  198loPI   PO4 3156   3.663   1.671  10.713 -0.3051 -0.0134  0.1100
  198loPI   GL1 3157   3.721   1.780  10.274 -0.2502  0.0977  0.0920
  198loPI   GL2 3158   3.404   1.628  10.019  0.2891 -0.0070  0.1737
  198loPI   C1A 3159   3.841   1.695   9.718  0.2568  0.0966 -0.3257
  198loPI   C2A 3160   3.728   1.713   9.248 -0.1317 -0.3343  0.0420
  198loPI   C3A 3161   3.785   1.879   8.837 -0.1298 -0.2652  0.2681
  198loPI   C4A 3162   3.834   1.860   8.412 -0.0938  0.0092 -0.0518
  198loPI   C5A 3163   3.895   1.836   7.903 -0.0183 -0.0164  0.3862
  198loPI   C6A 3164   3.661   1.825   7.486 -0.2812  0.0599  0.1326
  198loPI   C1B 3165   3.324   1.677   9.566 -0.0464 -0.1704  0.0052
  198loPI   C2B 3166   3.255   1.626   9.089  0.2500  0.0679  0.0794
  198loPI   C3B 3167   3.316   1.708   8.739  0.0999  0.1591  0.0918
  198loPI   C4B 3168   3.251   1.778   8.244  0.0002 -0.3144  0.1289
  199loPI    C1 3169   3.386   7.303  10.878  0.2060 -0.0761  0.0104
  199loPI    C2 3170   3.557   7.650  10.776 -0.1803  0.0501 -0.2311
  199loPI    C3 3171   3.486   7.567  11.161  0.1202  0.1370 -0.1546
  199loPI   PO4 3172   3.574   7.143  10.693 -0.0263  0.3569 -0.1230
  199loPI   GL1 3173   3.614   7.231  10.264 -0.0827 -0.0404  0.1562
  199loPI   GL2 3174   3.485   7.010  10.168 -0.4193  0.0411  0.0446
  199loPI   C1A 3175   3.426   7.426   9.965  0.2069  0.1134  0.0047
  199loPI   C2A 3176   3.467   7.381   9.498  0.0064  0.3612  0.0854
  199loPI   C3A 3177   3.477   7.354   9.075 -0.0224 -0.2114  0.0047
  199loPI   C4A 3178   3.472   7.401   8.637 -0.0984 -0.0264  0.0704
  199loPI   C5A 3179   3.335   7.329   8.179 -0.1091  0.2102  0.1802
  199loPI   C6A 3180   2.909   7.170   8.085  0.2134  0.3956  0.3758
  199loPI   C1B 3181   3.456   6.940   9.675 -0.1270 -0.1600  0.0501
  199loPI   C2B 3182   3.416   6.866   9.271  0.2990 -0.1182 -0.3754
  199loPI   C3B 3183   3.474   6.899   8.764 -0.3541 -0.2814 -0.1381
  199loPI   C4B 3184   3.447   6.829   8.347  0.0759 -0.1035 -0.3155
  200loPI    C1 3185   2.479   5.635  11.132 -0.2374 -0.1900 -0.1362
  200loPI    C2 3186   2.845   5.488  11.199 -0.1443 -0.0126 -0.2467
  200loPI    C3 3187   2.602   5.567  11.507  0.0564  0.2350 -0.1481
  200loPI   PO4 3188   2.563   5.725  10.891  0.2520 -0.1972  0.1121
  200loPI   GL1 3189   2.578   5.661  10.433  0.0981 -0.1876 -0.0790
  200loPI   GL2 3190   2.515   5.947  10.288  0.3850 -0.0317  0.1021
  200loPI   C1A 3191   2.531   5.395  10.102 -0.0658  0.0347  0.1881
  200loPI   C2A 3192   2.506   5.338   9.628  0.2203  0.0644  0.0530
  200loPI   C3A 3193   2.493   5.328   9.255  0.0352  0.0100  0.0873
  200loPI   C4A 3194   2.638   5.293   8.849  0.1948 -0.1713  0.4110
  200loPI   C5A 3195   2.622   5.343   8.380  0.1591 -0.1365 -0.1924
  200loPI   C6A 3196   2.494   5.489   7.987  0.0865 -0.1128 -0.1172
  200loPI   C1B 3197   2.510   5.967   9.884  0.1143  0.1444 -0.2999
  200loPI   C2B 3198   2.431   5.878   9.421 -0.4162  0.0858  0.1688
  200loPI   C3B 3199   2.571   5.946   8.991  0.0200 -0.0195 -0.0377
  200loPI   C4B 3200   2.515   5.774   8.592  0.1588  0.1136  0.0443
  201loPI    C1 3201   2.026   5.365  11.085  0.0966  0.2046 -0.0465
  201loPI    C2 3202   1.719   5.406  11.339  0.1036  0.3828 -0.0656
  201loPI    C3 3203   2.095   5.408  11.477  0.1016  0.3104 -0.0588
  201loPI   PO4 3204   1.995   5.532  10.866  0.1838  0.0277 -0.0234
  201loPI   GL1 3205   2.124   5.510  10.476  0.0346  0.2869  0.3072
  201loPI   GL2 3206   2.097   5.258  10.349  0.2013  0.0264 -0.1225
  201loPI   C1A 3207   2.091   5.697  10.136  0.0726 -0.2921  0.3582
  201loPI   C2A 3208   2.102   5.668   9.687  0.1925  0.0540  0.2993
  201loPI   C3A 3209   2.041   5.586   9.269  0.0812 -0.1250  0.1459
  201loPI   C4A 3210   2.140   5.506   8.828 -0.1510  0.0300  0.1468
  201loPI   C5A 3211   2.066   5.583   8.352 -0.1261  0.1756  0.2331
  201loPI   C6A 3212   1.973   5.710   7.984 -0.3029  0.1033  0.1293
  201loPI   C1B 3213   2.011   5.132   9.950  0.0215  0.1043  0.2690
  201loPI   C2B 3214   2.043   5.102   9.480  0.1771 -0.1058 -0.1600
  201loPI   C3B 3215   2.064   5.055   9.042 -0.2616  0.0630  0.0985
  201loPI   C4B 3216   2.290   5.047   8.557  0.2051  0.1845 -0.2259
  202loPI    C1 3217   6.872   6.000  10.716  0.1966  0.0399 -0.0912
  202loPI    C2 3218   7.188   6.245  10.736  0.0846  0.1776  0.0174
  202loPI    C3 3219   6.990   6.146  11.069  0.0404  0.0550 -0.0445
  202loPI   PO4 3220   6.925   6.025  10.434 -0.0922  0.1477 -0.0053
  202loPI   GL1 3221   6.812   5.842  10.128  0.0860  0.1859  0.0571
  202loPI   GL2 3222   7.143   5.738  10.101  0.1407 -0.0159  0.0144
  202loPI   C1A 3223   6.562   6.015   9.788 -0.1643 -0.1882  0.0498
  202loPI   C2A 3224   6.647   6.074   9.344  0.2098  0.3679 -0.0054
  202loPI   C3A 3225   6.717   6.083   8.926  0.0553  0.0747 -0.1298
  202loPI   C4A 3226   6.769   6.218   8.506 -0.0432  0.0988  0.1409
  202loPI   C5A 3227   6.601   6.161   8.051 -0.3512  0.0269 -0.1491
  202loPI   C6A 3228   6.552   6.247   7.723  0.0570 -0.1281 -0.2240
  202loPI   C1B 3229   7.095   5.684   9.713 -0.0706  0.0403  0.1395
  202loPI   C2B 3230   7.038   5.846   9.235  0.1916  0.2568  0.0055
  202loPI   C3B 3231   7.131   5.879   8.659  0.0213  0.0184 -0.1558
  202loPI   C4B 3232   7.267   6.095   8.406 -0.1122  0.0110 -0.0861
  203loPI    C1 3233   2.491  12.291  10.545  0.0430 -0.0266  0.0656
  203loPI    C2 3234   2.427  12.009  10.821  0.2687 -0.0469  0.0990
  203loPI    C3 3235   2.531  12.379  10.933 -0.2931  0.1297  0.0683
  203loPI   PO4 3236   2.257  12.337  10.339 -0.5118  0.0740 -0.0212
  203loPI   GL1 3237   2.267  12.190   9.953  0.0634 -0.0523  0.0108
  203loPI   GL2 3238   1.949  12.121  10.009  0.0197  0.0167  0.1192
  203loPI   C1A 3239   2.221  11.994   9.522 -0.1623 -0.3914  0.0679
  203loPI   C2A 3240   2.141  11.940   9.059 -0.1797 -0.0399 -0.4119
  203loPI   C3A 3241   2.113  11.985   8.607  0.2198  0.1141 -0.1549
  203loPI   C4A 3242   1.997  11.871   8.151 -0.1570 -0.2305  0.0338
  203loPI   C5A 3243   1.978  11.630   7.839 -0.1906  0.0592  0.0590
  203loPI   C6A 3244   1.823  11.621   7.498  0.0475  0.1064  0.2116
  203loPI   C1B 3245   1.770  11.764   9.769 -0.1698 -0.0084 -0.0896
  203loPI   C2B 3246   1.633  11.695   9.298  0.2503  0.1356  0.0500
  203loPI   C3B 3247   1.658  11.797   8.819 -0.3368 -0.2211  0.1329
  203loPI   C4B 3248   1.589  11.717   8.395  0.1038 -0.1956 -0.0302
  204loPI    C1 3249  17.814  15.128  10.605 -0.0184  0.0873 -0.0337
  204loPI    C2 3250  17.971  14.895  10.891  0.0108 -0.0281 -0.1427
  204loPI    C3 3251  18.112  15.265  10.834  0.0575 -0.0329 -0.0594
  204loPI   PO4 3252  17.859  14.987  10.409 -0.1085 -0.0531 -0.1272
  204loPI   GL1 3253  17.968  14.905   9.910 -0.0318 -0.0804  0.2156
  204loPI   GL2 3254  17.996  14.543   9.934 -0.2710  0.1768 -0.0027
  204loPI   C1A 3255  18.046  14.988   9.480 -0.0518 -0.0589  0.1320
  204loPI   C2A 3256  18.095  14.923   9.065 -0.0153 -0.0846 -0.0543
  204loPI   C3A 3257  18.190  14.906   8.723  0.0781 -0.1421  0.2119
  204loPI   C4A 3258  18.105  14.789   8.204 -0.0840  0.0669 -0.1989
  204loPI   C5A 3259  17.958  14.538   7.796  0.0173  0.4907  0.0808
  204loPI   C6A 3260  17.759  14.288   7.387 -0.1458 -0.1778  0.3190
  204loPI   C1B 3261  18.143  14.465   9.560 -0.0728  0.2746  0.2227
  204loPI   C2B 3262  18.150  14.417   9.054 -0.1681  0.0736 -0.3777
  204loPI   C3B 3263  18.190  14.355   8.686  0.0335 -0.1526  0.1202
  204loPI   C4B 3264  18.111  14.269   8.198  0.0675  0.0019  0.1880
  205loPI    C1 3265   9.613  14.031  11.070  0.0464  0.1433  0.2255
  205loPI    C2 3266   9.303  14.077  11.319 -0.0702  0.1744  0.0759
  205loPI    C3 3267   9.628  14.305  11.361 -0.1265  0.2429  0.1423
  205loPI   PO4 3268   9.660  14.011  10.729  0.0319  0.0831  0.0075
  205loPI   GL1 3269   9.456  14.095  10.400 -0.2662 -0.1881 -0.0183
  205loPI   GL2 3270   9.474  14.435  10.412  0.0270  0.3497  0.0080
  205loPI   C1A 3271   9.394  14.023   9.996  0.0808  0.0308 -0.1572
  205loPI   C2A 3272   9.498  13.923   9.589  0.1711  0.2738  0.1759
  205loPI   C3A 3273   9.434  13.972   9.225  0.2322  0.1398  0.0844
  205loPI   C4A 3274   9.467  14.136   8.894  0.0570 -0.4153  0.1482
  205loPI   C5A 3275   9.422  14.233   8.442 -0.1552 -0.0382 -0.1596
  205loPI   C6A 3276   9.632  14.312   8.072 -0.0884  0.2151  0.1957
  205loPI   C1B 3277   9.438  14.702  10.047 -0.2003  0.2394 -0.0442
  205loPI   C2B 3278   9.443  14.724   9.561 -0.0800 -0.0388  0.4498
  205loPI   C3B 3279   9.504  14.617   9.170  0.0062 -0.0104  0.4114
  205loPI   C4B 3280   9.380  14.702   8.781 -0.0526 -0.1630  0.2588
  206loPI    C1 3281   7.550  17.610  10.345  0.1498 -0.0525 -0.0651
  206loPI    C2 3282   7.898  17.630  10.541 -0.0012 -0.0640  0.2094
  206loPI    C3 3283   7.560  17.554  10.741 -0.1310 -0.2887 -0.0883
  206loPI   PO4 3284   7.457  17.863  10.136  0.1019 -0.0281 -0.0102
  206loPI   GL1 3285   7.464  17.851   9.762 -0.3023 -0.1994 -0.1272
  206loPI   GL2 3286   7.429  18.173   9.724 -0.1217  0.0618 -0.2345
  206loPI   C1A 3287   7.572  17.822   9.270  0.3193  0.3070  0.1480
  206loPI   C2A 3288   7.652  17.785   8.810  0.2925  0.0012  0.1312
  206loPI   C3A 3289   7.429  17.827   8.452 -0.0494  0.0421  0.2496
  206loPI   C4A 3290   7.374  17.851   8.061  0.0341 -0.3013 -0.0426
  206loPI   C5A 3291   7.665  17.782   7.766  0.0703 -0.0743 -0.1683
  206loPI   C6A 3292   7.936  18.014   7.673  0.3143 -0.0324  0.0247
  206loPI   C1B 3293   7.509  18.318   9.309  0.0679 -0.1834 -0.3778
  206loPI   C2B 3294   7.570  18.288   8.989 -0.2715 -0.1615  0.4412
  206loPI   C3B 3295   7.503  18.342   8.556 -0.1065 -0.0790 -0.1765
  206loPI   C4B 3296   7.342  18.667   8.267  0.2027  0.0156 -0.0371
  207loPI    C1 3297   5.461   1.024  10.482 -0.0182  0.1190 -0.0921
  207loPI    C2 3298   5.416   1.387  10.645 -0.4301  0.0970 -0.1474
  207loPI    C3 3299   5.318   1.060  10.854  0.0566  0.0046 -0.0515
  207loPI   PO4 3300   5.480   1.047  10.197  0.0083 -0.1844  0.1542
  207loPI   GL1 3301   5.492   1.318   9.818 -0.1236 -0.2503 -0.0265
  207loPI   GL2 3302   5.262   1.166   9.543  0.3400  0.3769 -0.0323
  207loPI   C1A 3303   5.700   1.325   9.389 -0.4585 -0.1294 -0.1023
  207loPI   C2A 3304   5.571   1.200   9.025 -0.0089 -0.2115 -0.1170
  207loPI   C3A 3305   5.542   1.121   8.553 -0.2901  0.2639  0.2757
  207loPI   C4A 3306   5.611   1.035   8.148  0.1322  0.2784  0.1429
  207loPI   C5A 3307   5.718   1.006   7.697 -0.1623  0.2038  0.1559
  207loPI   C6A 3308   5.604   0.924   7.244 -0.2369  0.0743 -0.3709
  207loPI   C1B 3309   5.272   0.827   9.256  0.1857  0.3635 -0.0816
  207loPI   C2B 3310   5.293   0.767   8.810  0.1785  0.2020 -0.1182
  207loPI   C3B 3311   5.068   0.896   8.479 -0.0931 -0.0527  0.1785
  207loPI   C4B 3312   5.080   1.036   8.125 -0.0784  0.1239 -0.1427
  208loPI    C1 3313   9.220   8.729  10.074 -0.1324 -0.0421  0.0197
  208loPI    C2 3314   9.206   8.573  10.442  0.2277  0.0256  0.0658
  208loPI    C3 3315   9.553   8.585  10.243  0.0539  0.0745 -0.2406
  208loPI   PO4 3316   8.941   8.666  10.048  0.1216 -0.0265 -0.2364
  208loPI   GL1 3317   8.818   8.405   9.735  0.2102  0.0534 -0.0681
  208loPI   GL2 3318   8.562   8.222   9.628 -0.1833 -0.0162 -0.2471
  208loPI   C1A 3319   8.965   8.518   9.342 -0.1698 -0.0958  0.0226
  208loPI   C2A 3320   8.971   8.575   8.835 -0.2505 -0.1038  0.1317
  208loPI   C3A 3321   8.921   8.629   8.450 -0.1830 -0.0248 -0.1000
  208loPI   C4A 3322   8.745   8.459   8.117 -0.0266 -0.2271 -0.0394
  208loPI   C5A 3323   8.380   8.520   7.919 -0.2083  0.0046  0.0203
  208loPI   C6A 3324   8.160   8.896   7.837 -0.0399  0.2783 -0.0312
  208loPI   C1B 3325   8.482   8.234   9.160 -0.0003  0.2580  0.1606
  208loPI   C2B 3326   8.486   8.326   8.753 -0.1633 -0.0422 -0.0682
  208loPI   C3B 3327   8.426   8.186   8.323 -0.1211  0.0000 -0.1215
  208loPI   C4B 3328   8.374   7.975   7.848  0.2150 -0.0873 -0.0241
  209loPI    C1 3329   3.905   8.074  10.662  0.1296  0.0030 -0.1705
  209loPI    C2 3330   3.772   8.441  10.575 -0.1562 -0.0152  0.1667
  209loPI    C3 3331   3.512   8.141  10.622  0.0668 -0.2339  0.0260
  209loPI   PO4 3332   4.053   7.983  10.481  0.0266 -0.0558 -0.0571
  209loPI   GL1 3333   4.262   7.904  10.089  0.1336 -0.0195 -0.0989
  209loPI   GL2 3334   3.974   7.597  10.069 -0.0422  0.0173  0.1415
  209loPI   C1A 3335   4.220   8.067   9.753  0.0917  0.0793  0.1688
  209loPI   C2A 3336   4.164   8.007   9.238 -0.0700  0.0674  0.2616
  209loPI   C3A 3337   4.387   7.815   8.864 -0.1195 -0.0539 -0.0086
  209loPI   C4A 3338   4.307   7.753   8.416 -0.3670 -0.0573  0.1245
  209loPI   C5A 3339   4.289   7.523   7.995 -0.0054  0.1037 -0.2306
  209loPI   C6A 3340   4.405   7.534   7.566  0.1045  0.0300 -0.0200
  209loPI   C1B 3341   3.939   7.601   9.522  0.0794  0.0562  0.0198
  209loPI   C2B 3342   3.839   7.615   9.117  0.1704  0.4460 -0.0766
  209loPI   C3B 3343   3.920   7.530   8.662 -0.1571 -0.2651  0.1011
  209loPI   C4B 3344   3.854   7.442   8.310 -0.3261  0.1464  0.1881
  210loPI    C1 3345   4.442   2.258  10.766  0.0876  0.0942  0.1399
  210loPI    C2 3346   4.351   2.048  11.094 -0.0927 -0.1637 -0.0711
  210loPI    C3 3347   4.588   1.889  10.814  0.0614  0.0559 -0.0674
  210loPI   PO4 3348   4.188   2.334  10.525 -0.1892  0.3388 -0.1404
  210loPI   GL1 3349   3.964   2.658  10.221  0.1736  0.3502 -0.4424
  210loPI   GL2 3350   4.273   2.649  10.069 -0.0320 -0.0306 -0.1657
  210loPI   C1A 3351   3.662   2.653   9.866 -0.2948 -0.2604 -0.2325
  210loPI   C2A 3352   3.312   2.571   9.627 -0.0427 -0.2285  0.0774
  210loPI   C3A 3353   3.272   2.677   9.287  0.2812  0.0389  0.0663
  210loPI   C4A 3354   3.398   2.793   8.889 -0.3023  0.0617  0.1880
  210loPI   C5A 3355   3.371   2.670   8.411 -0.2621 -0.1000  0.1902
  210loPI   C6A 3356   3.680   2.277   8.289 -0.2201 -0.0905  0.1294
  210loPI   C1B 3357   4.124   2.762   9.674  0.1639  0.2611 -0.0643
  210loPI   C2B 3358   3.808   2.793   9.356  0.1501  0.3532 -0.0896
  210loPI   C3B 3359   3.919   2.909   8.997 -0.1014  0.1618 -0.3071
  210loPI   C4B 3360   3.771   3.043   8.624 -0.0230  0.3806 -0.1198
  211loPI    C1 3361   6.601   9.007  10.926  0.1167 -0.2120  0.0279
  211loPI    C2 3362   6.218   8.935  11.016  0.1468 -0.2498  0.1271
  211loPI    C3 3363   6.509   8.765  11.231  0.2192 -0.1688  0.0936
  211loPI   PO4 3364   6.662   8.893  10.621  0.0024  0.0889 -0.1181
  211loPI   GL1 3365   6.487   8.698  10.213  0.0173 -0.1842  0.0013
  211loPI   GL2 3366   6.793   8.723  10.081  0.4177  0.4011 -0.0883
  211loPI   C1A 3367   6.305   8.900   9.821  0.0623  0.1425 -0.1015
  211loPI   C2A 3368   6.306   8.932   9.340 -0.1635 -0.5653 -0.1809
  211loPI   C3A 3369   6.185   9.112   8.899 -0.0841  0.0577 -0.1878
  211loPI   C4A 3370   6.235   9.136   8.544 -0.1638 -0.1941  0.2214
  211loPI   C5A 3371   6.263   9.005   8.094 -0.0341  0.1582  0.3696
  211loPI   C6A 3372   5.948   8.897   7.711  0.1269 -0.1814 -0.1044
  211loPI   C1B 3373   6.753   8.643   9.692  0.2475  0.1476 -0.3612
  211loPI   C2B 3374   6.740   8.752   9.216  0.0221  0.0788 -0.1174
  211loPI   C3B 3375   6.673   8.804   8.840 -0.2642 -0.0267 -0.1839
  211loPI   C4B 3376   6.745   8.775   8.459  0.0719  0.1607 -0.1100
  212loPI    C1 3377  15.778  12.111  10.636 -0.1308 -0.1188  0.0418
  212loPI    C2 3378  15.842  12.448  10.843  0.0333  0.0017 -0.2007
  212loPI    C3 3379  15.856  12.094  11.028 -0.2115  0.1305  0.0707
  212loPI   PO4 3380  15.772  12.176  10.349  0.2558 -0.3893  0.0421
  212loPI   GL1 3381  15.668  12.333  10.025 -0.0630  0.0217  0.0232
  212loPI   GL2 3382  15.445  12.303   9.880 -0.2211  0.1068  0.0734
  212loPI   C1A 3383  15.833  12.488   9.654  0.1315 -0.3395  0.3374
  212loPI   C2A 3384  15.800  12.514   9.112  0.0154  0.3690 -0.0569
  212loPI   C3A 3385  15.638  12.506   8.812  0.1016 -0.0582  0.0007
  212loPI   C4A 3386  15.763  12.663   8.413 -0.0115  0.2146 -0.2179
  212loPI   C5A 3387  16.069  12.580   8.125  0.0259 -0.3684 -0.0682
  212loPI   C6A 3388  16.101  12.689   7.697 -0.1412  0.1378 -0.3666
  212loPI   C1B 3389  15.311  12.212   9.565  0.0597  0.1209  0.1523
  212loPI   C2B 3390  15.371  12.172   9.107 -0.1230 -0.2117  0.1313
  212loPI   C3B 3391  15.371  12.068   8.727  0.1404 -0.2402  0.0733
  212loPI   C4B 3392  15.383  12.065   8.190 -0.2005  0.0461  0.0776
  213loPI    C1 3393   5.572  12.777  10.401  0.0815  0.2522 -0.4500
  213loPI    C2 3394   5.961  12.688  10.434 -0.0244 -0.1300 -0.1626
  213loPI    C3 3395   5.779  12.901  10.720 -0.0879 -0.1845 -0.1624
  213loPI   PO4 3396   5.575  12.826  10.100  0.0120  0.1348  0.0797
  213loPI   GL1 3397   5.458  12.658   9.746  0.0414 -0.1885 -0.0143
  213loPI   GL2 3398   5.396  12.273   9.715 -0.0450  0.1580  0.3382
  213loPI   C1A 3399   5.287  12.786   9.315 -0.1667 -0.1316  0.1140
  213loPI   C2A 3400   5.395  12.757   8.905  0.0964  0.1060  0.1769
  213loPI   C3A 3401   5.300  12.643   8.470 -0.1079  0.2300  0.1375
  213loPI   C4A 3402   5.148  12.745   8.115 -0.2337  0.2743 -0.0145
  213loPI   C5A 3403   5.529  12.536   7.850  0.3615 -0.0478 -0.0950
  213loPI   C6A 3404   5.737  12.973   7.614 -0.0353 -0.2527  0.2384
  213loPI   C1B 3405   5.380  12.225   9.302 -0.2682  0.2448 -0.0421
  213loPI   C2B 3406   5.312  12.265   8.826  0.1353  0.1050  0.1523
  213loPI   C3B 3407   5.225  12.135   8.429  0.1214 -0.0603  0.0872
  213loPI   C4B 3408   5.378  12.071   8.028 -0.0598 -0.0197 -0.0183
  214loPI    C1 3409   0.661  15.959  10.582  0.3836  0.1018  0.2018
  214loPI    C2 3410   0.777  16.114  10.932 -0.0129 -0.0104  0.3891
  214loPI    C3 3411   0.392  16.025  10.871  0.1114 -0.3495  0.0616
  214loPI   PO4 3412   0.884  16.160  10.324  0.2327 -0.3196  0.2286
  214loPI   GL1 3413   0.804  16.116   9.902  0.0886  0.0642  0.1035
  214loPI   GL2 3414   1.131  16.180   9.806 -0.2641 -0.0897 -0.0137
  214loPI   C1A 3415   0.769  15.922   9.499 -0.0362  0.0210 -0.0726
  214loPI   C2A 3416   0.840  15.998   9.031 -0.0593 -0.0084 -0.2602
  214loPI   C3A 3417   0.849  15.921   8.564 -0.1684 -0.2841 -0.1932
  214loPI   C4A 3418   0.994  15.899   8.124  0.0973  0.0102  0.2963
  214loPI   C5A 3419   0.928  15.931   7.644  0.1524  0.1655  0.0716
  214loPI   C6A 3420   0.927  15.749   7.206 -0.1333 -0.0811 -0.2403
  214loPI   C1B 3421   1.172  16.172   9.358 -0.1017 -0.1260  0.1634
  214loPI   C2B 3422   1.245  16.170   8.873 -0.1961 -0.0244  0.1668
  214loPI   C3B 3423   1.273  16.171   8.404 -0.5323 -0.0545 -0.2113
  214loPI   C4B 3424   1.397  16.173   8.041  0.0999  0.0911 -0.2650
  215loPI    C1 3425  10.619  13.786  10.672 -0.0053  0.1688 -0.4036
  215loPI    C2 3426  10.874  14.092  10.638  0.1259  0.1062 -0.0329
  215loPI    C3 3427  10.562  14.118  10.887  0.1186 -0.0488 -0.0248
  215loPI   PO4 3428  10.554  13.655  10.416 -0.1107 -0.1656  0.1770
  215loPI   GL1 3429  10.316  13.548  10.047 -0.1190  0.2902 -0.0741
  215loPI   GL2 3430  10.014  13.348  10.020 -0.0348  0.0641 -0.0414
  215loPI   C1A 3431  10.453  13.481   9.624  0.2848 -0.0311  0.4458
  215loPI   C2A 3432  10.375  13.590   9.250  0.2406 -0.1426 -0.0820
  215loPI   C3A 3433  10.335  13.596   8.885  0.0649  0.2691  0.1137
  215loPI   C4A 3434  10.352  13.713   8.451  0.0361 -0.0106  0.1531
  215loPI   C5A 3435  10.448  13.697   8.046  0.1218 -0.0021  0.2473
  215loPI   C6A 3436  10.094  13.834   7.750  0.0923  0.0546  0.0179
  215loPI   C1B 3437   9.912  13.219   9.514  0.0851 -0.0885  0.1563
  215loPI   C2B 3438   9.854  13.269   9.021  0.1771  0.3494 -0.2245
  215loPI   C3B 3439   9.843  13.421   8.647 -0.1979 -0.2374  0.1057
  215loPI   C4B 3440   9.937  13.602   8.278 -0.2000  0.2061 -0.2845
  216loPI    C1 3441   3.927  13.815  10.508  0.2275  0.2893 -0.2848
  216loPI    C2 3442   3.836  14.060  10.811  0.1724  0.2684 -0.2842
  216loPI    C3 3443   4.138  13.800  10.847  0.0001  0.0842 -0.1490
  216loPI   PO4 3444   3.714  13.756  10.430  0.2368 -0.1801  0.2554
  216loPI   GL1 3445   3.591  13.610   9.917  0.0272 -0.0664 -0.0614
  216loPI   GL2 3446   3.879  13.606  10.005  0.1925  0.0449 -0.2183
  216loPI   C1A 3447   3.544  13.357   9.531  0.1032 -0.1302  0.1801
  216loPI   C2A 3448   3.560  13.315   9.098  0.0927  0.0486  0.0875
  216loPI   C3A 3449   3.497  13.209   8.595 -0.0280  0.2869  0.6561
  216loPI   C4A 3450   3.514  13.269   8.115  0.3675 -0.1526  0.3090
  216loPI   C5A 3451   3.438  12.882   7.844  0.0366  0.1812 -0.2850
  216loPI   C6A 3452   3.244  12.377   7.963  0.0769  0.2438  0.2530
  216loPI   C1B 3453   4.023  13.584   9.547 -0.0250  0.2846  0.1103
  216loPI   C2B 3454   3.967  13.555   9.104  0.2387  0.0057 -0.1293
  216loPI   C3B 3455   3.992  13.434   8.748 -0.1957 -0.0707 -0.2852
  216loPI   C4B 3456   4.041  13.386   8.362  0.0478 -0.1556  0.1163
  217loPI    C1 3457  14.198   1.366  11.242  0.5255  0.2132  0.2572
  217loPI    C2 3458  14.117   1.744  11.346  0.2770  0.2271  0.0267
  217loPI    C3 3459  13.891   1.445  11.486  0.0935  0.2233 -0.2700
  217loPI   PO4 3460  14.152   1.346  10.938 -0.1506 -0.0409 -0.0455
  217loPI   GL1 3461  13.973   1.577  10.514 -0.2305 -0.2315  0.1906
  217loPI   GL2 3462  13.719   1.301  10.530 -0.3934  0.2795  0.2876
  217loPI   C1A 3463  13.937   1.779  10.148 -0.0908  0.3478  0.0599
  217loPI   C2A 3464  14.055   1.863   9.813 -0.0833 -0.2919 -0.2258
  217loPI   C3A 3465  14.150   1.743   9.354 -0.1189 -0.1938  0.1528
  217loPI   C4A 3466  14.142   1.762   8.934 -0.0661  0.0337  0.0093
  217loPI   C5A 3467  14.318   1.758   8.525 -0.0989 -0.0049 -0.1502
  217loPI   C6A 3468  14.543   2.098   8.375 -0.2037  0.0370  0.0774
  217loPI   C1B 3469  13.939   1.263  10.051  0.1806  0.2358 -0.0632
  217loPI   C2B 3470  14.035   1.335   9.667 -0.1867  0.0559  0.1958
  217loPI   C3B 3471  14.195   1.219   9.245 -0.0625 -0.0152 -0.0527
  217loPI   C4B 3472  14.081   1.324   8.827 -0.3935 -0.0713 -0.0525
  218loPI    C1 3473  14.634  14.426  10.465  0.0743  0.2198 -0.0517
  218loPI    C2 3474  14.841  14.620  10.747  0.0305  0.0457  0.1023
  218loPI    C3 3475  14.716  14.246  10.812 -0.0175  0.0190 -0.1326
  218loPI   PO4 3476  14.675  14.428  10.234  0.0864  0.0215 -0.0292
  218loPI   GL1 3477  14.420  14.313   9.862 -0.1034  0.0606  0.0989
  218loPI   GL2 3478  14.207  14.517  10.037  0.2282 -0.1043 -0.0532
  218loPI   C1A 3479  14.445  14.384   9.499  0.0433 -0.1042 -0.3753
  218loPI   C2A 3480  14.473  14.377   9.092 -0.4648 -0.1321  0.1191
  218loPI   C3A 3481  14.449  14.483   8.701 -0.4562  0.3046 -0.0998
  218loPI   C4A 3482  14.414  14.468   8.238  0.0947 -0.2649 -0.0264
  218loPI   C5A 3483  14.714  14.553   7.907  0.0664  0.1432  0.1885
  218loPI   C6A 3484  15.089  14.491   7.901  0.1307  0.0273  0.0487
  218loPI   C1B 3485  14.118  14.832   9.829  0.0481 -0.0408  0.2835
  218loPI   C2B 3486  14.109  14.744   9.381  0.2966  0.1163 -0.1186
  218loPI   C3B 3487  14.041  14.659   8.961 -0.1087  0.1397 -0.0237
  218loPI   C4B 3488  14.000  14.660   8.510 -0.0381  0.2522  0.0199
  219loPI    C1 3489   0.555   9.428  10.799  0.0228  0.0918  0.1300
  219loPI    C2 3490   0.503   9.523  11.184 -0.2302 -0.0001  0.1203
  219loPI    C3 3491   0.423   9.153  11.056 -0.1464  0.0298 -0.0215
  219loPI   PO4 3492   0.849   9.525  10.706 -0.0056 -0.1588 -0.4068
  219loPI   GL1 3493   1.149   9.593  10.300 -0.1383 -0.0764  0.0922
  219loPI   GL2 3494   0.997   9.845  10.351  0.4669 -0.1266  0.0018
  219loPI   C1A 3495   1.078   9.406   9.893 -0.1449  0.2100 -0.1305
  219loPI   C2A 3496   1.128   9.408   9.422  0.1485  0.2424  0.2718
  219loPI   C3A 3497   1.230   9.385   8.921  0.1534 -0.0742 -0.2817
  219loPI   C4A 3498   1.224   9.184   8.516 -0.0436  0.2327 -0.1446
  219loPI   C5A 3499   1.427   9.070   8.050  0.2398 -0.0948  0.0600
  219loPI   C6A 3500   1.590   8.956   7.636 -0.1083  0.5440  0.1610
  219loPI   C1B 3501   1.050   9.902   9.940 -0.2014  0.1721  0.1138
  219loPI   C2B 3502   1.136   9.890   9.552  0.1933 -0.3572 -0.1119
  219loPI   C3B 3503   1.240   9.917   9.140  0.1481  0.3260  0.1754
  219loPI   C4B 3504   1.125   9.905   8.711 -0.2523 -0.0114 -0.0152
  220loPI    C1 3505   3.138   6.879  10.876 -0.2401 -0.0973 -0.1059
  220loPI    C2 3506   2.865   6.991  11.146 -0.1924  0.0001 -0.0977
  220loPI    C3 3507   3.231   6.882  11.265 -0.2164 -0.0960 -0.1114
  220loPI   PO4 3508   2.943   6.730  10.717 -0.1272 -0.1687 -0.0437
  220loPI   GL1 3509   2.812   6.533  10.372  0.4562 -0.1667  0.3093
  220loPI   GL2 3510   3.020   6.789  10.200 -0.0314  0.1263  0.1270
  220loPI   C1A 3511   2.457   6.443  10.014  0.1519  0.0571 -0.1138
  220loPI   C2A 3512   2.403   6.367   9.523 -0.0265 -0.1232 -0.1866
  220loPI   C3A 3513   2.548   6.420   9.086  0.0498 -0.1827 -0.0554
  220loPI   C4A 3514   2.535   6.437   8.636  0.3260 -0.2879  0.1518
  220loPI   C5A 3515   2.383   6.254   8.198  0.0514 -0.0839 -0.1599
  220loPI   C6A 3516   2.053   6.185   7.890  0.1415  0.2055 -0.1677
  220loPI   C1B 3517   2.878   6.748   9.730 -0.2164 -0.0629 -0.0793
  220loPI   C2B 3518   2.951   6.713   9.310  0.1014 -0.2482 -0.1884
  220loPI   C3B 3519   3.032   6.621   8.938  0.1824  0.0024 -0.0921
  220loPI   C4B 3520   3.009   6.618   8.448  0.0117 -0.3452 -0.1590
  221loPI    C1 3521  14.208  17.282  10.655  0.3119  0.1236  0.0104
  221loPI    C2 3522  14.379  17.184  11.004  0.1360  0.3639  0.1671
  221loPI    C3 3523  14.165  16.913  10.803  0.1431  0.2567  0.3030
  221loPI   PO4 3524  14.443  17.434  10.519  0.0960  0.0915  0.0468
  221loPI   GL1 3525  14.435  17.721  10.119 -0.0050 -0.1255 -0.2136
  221loPI   GL2 3526  14.612  17.432  10.047  0.0620  0.2378 -0.0197
  221loPI   C1A 3527  14.456  17.645   9.652 -0.1606  0.3666  0.2397
  221loPI   C2A 3528  14.435  17.680   9.203  0.0102 -0.0339 -0.1038
  221loPI   C3A 3529  14.561  17.603   8.797  0.2314  0.1755  0.2913
  221loPI   C4A 3530  14.501  17.485   8.382  0.0810  0.1397  0.1517
  221loPI   C5A 3531  14.317  17.350   7.978 -0.1084 -0.0624  0.0756
  221loPI   C6A 3532  14.128  17.393   7.498  0.0309  0.3542 -0.1733
  221loPI   C1B 3533  14.488  17.116   9.724 -0.0423  0.0122  0.0009
  221loPI   C2B 3534  14.429  17.055   9.332 -0.1271  0.2322 -0.0857
  221loPI   C3B 3535  14.543  17.012   8.900  0.1673  0.2482  0.1811
  221loPI   C4B 3536  14.603  17.000   8.466  0.0325  0.0077 -0.1157
  222loPI    C1 3537   0.958  15.209  10.682  0.0644 -0.1560 -0.2259
  222loPI    C2 3538   0.695  14.908  10.697 -0.1311  0.0225  0.0200
  222loPI    C3 3539   0.774  15.120  11.027 -0.0367  0.2760 -0.1623
  222loPI   PO4 3540   1.058  15.146  10.438  0.0089 -0.0166 -0.0469
  222loPI   GL1 3541   1.134  15.184   9.895 -0.1119 -0.0979  0.1686
  222loPI   GL2 3542   1.151  15.640   9.836  0.2180 -0.0321  0.1314
  222loPI   C1A 3543   1.186  15.142   9.457  0.0551 -0.1424 -0.0523
  222loPI   C2A 3544   1.222  15.128   9.054 -0.0205 -0.2374 -0.0826
  222loPI   C3A 3545   1.237  15.099   8.590 -0.1560 -0.1023 -0.2126
  222loPI   C4A 3546   1.325  15.149   8.181  0.2676 -0.1272  0.3771
  222loPI   C5A 3547   1.534  15.074   7.848  0.0889 -0.1022 -0.0177
  222loPI   C6A 3548   1.535  15.105   7.384  0.1779  0.2491 -0.0911
  222loPI   C1B 3549   1.203  15.655   9.362 -0.1097  0.0029  0.0684
  222loPI   C2B 3550   1.197  15.650   8.906  0.1980 -0.1945  0.3145
  222loPI   C3B 3551   1.289  15.667   8.462 -0.1450 -0.1302 -0.1282
  222loPI   C4B 3552   1.381  15.645   8.014  0.4566 -0.0722 -0.0565
  223loPI    C1 3553   5.756  11.302  10.195  0.1484  0.1415 -0.1695
  223loPI    C2 3554   5.520  11.187  10.497  0.3758  0.3398  0.0878
  223loPI    C3 3555   5.699  10.913  10.268 -0.0070  0.1876 -0.0368
  223loPI   PO4 3556   5.574  11.490  10.128  0.1102 -0.1598 -0.1789
  223loPI   GL1 3557   5.212  11.521   9.913 -0.1933  0.0326  0.1103
  223loPI   GL2 3558   5.283  11.736   9.674  0.0484  0.0186 -0.0500
  223loPI   C1A 3559   4.880  11.440   9.726 -0.1775 -0.2292  0.2742
  223loPI   C2A 3560   4.812  11.386   9.293 -0.1391 -0.1083 -0.0338
  223loPI   C3A 3561   4.830  11.386   8.822  0.1357  0.2002  0.2503
  223loPI   C4A 3562   4.818  11.412   8.470  0.3984 -0.0961 -0.3880
  223loPI   C5A 3563   4.918  11.216   8.122  0.0004  0.0443 -0.4498
  223loPI   C6A 3564   5.174  10.994   7.994  0.3883  0.2567  0.0331
  223loPI   C1B 3565   5.046  11.880   9.409  0.1114  0.0102 -0.0272
  223loPI   C2B 3566   5.076  11.866   8.954  0.3197 -0.0467 -0.1197
  223loPI   C3B 3567   4.841  11.941   8.603  0.1525 -0.1098 -0.1158
  223loPI   C4B 3568   4.947  11.844   8.163 -0.0181 -0.2341  0.3009
  224loPI    C1 3569  16.929   3.719  11.154 -0.2630 -0.1102  0.2035
  224loPI    C2 3570  17.253   3.935  11.246 -0.0653 -0.2731 -0.0912
  224loPI    C3 3571  16.903   4.117  11.178  0.0084 -0.0798  0.0391
  224loPI   PO4 3572  17.027   3.583  11.014  0.3448  0.3964 -0.0831
  224loPI   GL1 3573  16.830   3.462  10.550  0.4356  0.1075  0.0830
  224loPI   GL2 3574  16.991   3.753  10.416  0.1319 -0.1935  0.4102
  224loPI   C1A 3575  16.918   3.260  10.214  0.2393 -0.0671  0.2594
  224loPI   C2A 3576  16.975   3.395   9.768 -0.1737 -0.0266 -0.0529
  224loPI   C3A 3577  17.026   3.228   9.432  0.1654  0.0874  0.0418
  224loPI   C4A 3578  17.008   3.227   8.970 -0.1700  0.0968  0.3979
  224loPI   C5A 3579  16.965   3.351   8.520 -0.0091 -0.0716  0.1098
  224loPI   C6A 3580  16.856   3.121   8.142  0.2458 -0.0203 -0.1989
  224loPI   C1B 3581  17.093   3.784  10.078  0.0886  0.2260  0.1001
  224loPI   C2B 3582  17.092   3.847   9.531 -0.1700 -0.2490 -0.1288
  224loPI   C3B 3583  16.918   3.810   9.088  0.0479 -0.1692 -0.3576
  224loPI   C4B 3584  16.963   3.864   8.580 -0.0475 -0.0385 -0.3213
  225loPI    C1 3585  17.437   4.383  11.057  0.0123  0.0358  0.1578
  225loPI    C2 3586  17.591   4.292  11.415  0.0285 -0.1664  0.1010
  225loPI    C3 3587  17.238   4.479  11.391 -0.0237 -0.2474  0.2212
  225loPI   PO4 3588  17.588   4.357  10.954 -0.2422 -0.1768  0.1585
  225loPI   GL1 3589  17.754   4.329  10.596 -0.2914 -0.1297 -0.0349
  225loPI   GL2 3590  18.111   4.122  10.509  0.1029 -0.3982 -0.1288
  225loPI   C1A 3591  17.520   4.056  10.349  0.0814  0.1437  0.2893
  225loPI   C2A 3592  17.548   4.025   9.881 -0.1234 -0.4807 -0.1969
  225loPI   C3A 3593  17.543   3.950   9.446  0.3665  0.0426 -0.1231
  225loPI   C4A 3594  17.510   4.002   9.062  0.1098  0.0519  0.0970
  225loPI   C5A 3595  17.464   4.029   8.602 -0.1149  0.1545 -0.1749
  225loPI   C6A 3596  17.303   4.325   8.344 -0.2524 -0.2636  0.0705
  225loPI   C1B 3597  18.319   4.056  10.152 -0.0208  0.1892  0.3238
  225loPI   C2B 3598  18.336   4.015   9.721 -0.2752  0.2052 -0.0249
  225loPI   C3B 3599  18.413   3.910   9.295 -0.1430 -0.2556  0.2285
  225loPI   C4B 3600  18.348   3.838   8.893  0.3483 -0.1360 -0.0441
  226loPI    C1 3601   5.064  16.745  10.400 -0.0599 -0.1907  0.1345
  226loPI    C2 3602   5.035  17.047  10.661 -0.0485 -0.2282  0.1792
  226loPI    C3 3603   5.395  16.905  10.559 -0.0380 -0.0332 -0.0647
  226loPI   PO4 3604   4.998  16.838  10.184  0.0737 -0.4234  0.3506
  226loPI   GL1 3605   5.037  17.006   9.860  0.0068  0.0986 -0.1835
  226loPI   GL2 3606   5.362  16.945   9.846  0.0466  0.2475  0.0088
  226loPI   C1A 3607   4.984  16.799   9.532 -0.1274 -0.3193 -0.0966
  226loPI   C2A 3608   4.894  16.748   9.044  0.0984  0.0868  0.1538
  226loPI   C3A 3609   4.855  16.628   8.670  0.0271  0.0493 -0.0522
  226loPI   C4A 3610   4.950  16.545   8.245  0.2402  0.1162 -0.3504
  226loPI   C5A 3611   4.958  16.483   7.825 -0.0082 -0.2031 -0.1406
  226loPI   C6A 3612   4.879  16.734   7.395  0.3354  0.1222 -0.1060
  226loPI   C1B 3613   5.501  17.086   9.419 -0.1513  0.1490 -0.0313
  226loPI   C2B 3614   5.691  17.000   9.039 -0.0248  0.0733 -0.1949
  226loPI   C3B 3615   5.742  17.179   8.615 -0.0713 -0.2015 -0.2320
  226loPI   C4B 3616   5.550  17.267   8.323  0.1364 -0.3517  0.2690
  227loPI    C1 3617  14.308   8.346  10.241  0.0420  0.3681  0.0599
  227loPI    C2 3618  13.944   8.331  10.075  0.1234 -0.3372 -0.0846
  227loPI    C3 3619  13.982   8.374  10.471 -0.1059 -0.0294 -0.0929
  227loPI   PO4 3620  14.410   8.126  10.115  0.2607 -0.2232 -0.0424
  227loPI   GL1 3621  14.145   7.923   9.744  0.1356 -0.1605 -0.2335
  227loPI   GL2 3622  14.247   8.252   9.669 -0.0502 -0.1558 -0.0358
  227loPI   C1A 3623  14.200   7.751   9.354  0.0923  0.1225 -0.3427
  227loPI   C2A 3624  14.279   7.715   8.978 -0.2482  0.0604  0.0038
  227loPI   C3A 3625  14.432   7.629   8.518 -0.1690  0.0422 -0.2782
  227loPI   C4A 3626  14.525   7.669   7.974 -0.0117  0.3000  0.1776
  227loPI   C5A 3627  14.746   7.724   7.575  0.1714 -0.3653 -0.1690
  227loPI   C6A 3628  14.858   8.117   7.330  0.0901 -0.1812  0.2883
  227loPI   C1B 3629  14.208   8.237   9.264  0.1882 -0.5078  0.3218
  227loPI   C2B 3630  14.286   8.190   8.829  0.2403 -0.2670 -0.0634
  227loPI   C3B 3631  14.235   8.046   8.323 -0.1349  0.0875 -0.2050
  227loPI   C4B 3632  14.101   7.945   7.911  0.0960  0.1143  0.0923
  228loPI    C1 3633   8.131  15.359  10.940 -0.1108  0.0757  0.0808
  228loPI    C2 3634   7.905  15.207  11.233  0.0360 -0.0816  0.1137
  228loPI    C3 3635   8.276  15.069  11.174  0.0051 -0.0569 -0.1521
  228loPI   PO4 3636   8.032  15.379  10.707  0.0613 -0.0527 -0.0594
  228loPI   GL1 3637   8.058  15.234  10.323 -0.0983  0.0179  0.1506
  228loPI   GL2 3638   8.024  14.854  10.219  0.1804  0.2298 -0.1932
  228loPI   C1A 3639   8.307  15.222   9.924 -0.1182 -0.1290  0.1021
  228loPI   C2A 3640   8.440  15.111   9.612 -0.1701 -0.2447 -0.0397
  228loPI   C3A 3641   8.490  15.081   9.140  0.1168  0.0839 -0.1887
  228loPI   C4A 3642   8.494  15.164   8.644  0.0556  0.0341 -0.2968
  228loPI   C5A 3643   8.684  15.391   8.397  0.1404 -0.2631  0.2007
  228loPI   C6A 3644   8.515  15.698   8.144  0.2009 -0.0983  0.0009
  228loPI   C1B 3645   8.054  14.858   9.809  0.0215 -0.2608  0.1912
  228loPI   C2B 3646   8.045  14.983   9.399  0.1129  0.2104  0.0435
  228loPI   C3B 3647   8.107  14.858   8.999  0.0180  0.3584 -0.0007
  228loPI   C4B 3648   8.036  14.919   8.537  0.2200 -0.0102 -0.0688
  229loPI    C1 3649  10.717  11.416  10.288  0.0271  0.2938  0.0585
  229loPI    C2 3650  10.931  11.327  10.613 -0.0465  0.2172  0.0863
  229loPI    C3 3651  10.630  11.589  10.638 -0.1342  0.1152  0.1087
  229loPI   PO4 3652  10.890  11.533  10.153  0.0569  0.0339 -0.1429
  229loPI   GL1 3653  10.867  11.507   9.699  0.2517  0.1556  0.2517
  229loPI   GL2 3654  10.596  11.316   9.758 -0.3776 -0.0029  0.1612
  229loPI   C1A 3655  10.996  11.596   9.383 -0.0163 -0.1439 -0.0310
  229loPI   C2A 3656  11.056  11.791   8.994  0.5013 -0.2335 -0.1974
  229loPI   C3A 3657  11.020  11.876   8.485  0.0574  0.2246  0.0815
  229loPI   C4A 3658  10.677  11.815   8.147  0.1733  0.1997  0.2562
  229loPI   C5A 3659  10.322  12.008   7.939  0.1044 -0.0078  0.2685
  229loPI   C6A 3660  10.342  12.391   7.868 -0.0620  0.0808  0.2924
  229loPI   C1B 3661  10.644  11.199   9.295  0.1939  0.0755  0.1989
  229loPI   C2B 3662  10.603  11.238   8.866 -0.3494  0.1329  0.1402
  229loPI   C3B 3663  10.546  11.436   8.500 -0.1716  0.3031 -0.3008
  229loPI   C4B 3664  10.320  11.365   8.110 -0.0153 -0.2138 -0.0632
  230loPI    C1 3665   2.253   3.390  10.927  0.1450 -0.3635 -0.0537
  230loPI    C2 3666   2.251   3.359  11.326  0.0689  0.1928 -0.0024
  230loPI    C3 3667   2.590   3.450  11.134  0.0235  0.3129 -0.0270
  230loPI   PO4 3668   2.043   3.269  10.819 -0.0060  0.0704  0.3413
  230loPI   GL1 3669   1.917   3.121  10.426  0.2045 -0.0721 -0.1833
  230loPI   GL2 3670   2.250   3.122  10.316  0.2252 -0.1343 -0.1850
  230loPI   C1A 3671   1.580   3.265  10.075  0.1169  0.0482 -0.1518
  230loPI   C2A 3672   1.423   3.270   9.729 -0.1361 -0.0604 -0.1451
  230loPI   C3A 3673   1.361   3.169   9.258  0.0929 -0.2509 -0.1892
  230loPI   C4A 3674   1.412   3.150   8.828  0.1109 -0.0580 -0.1769
  230loPI   C5A 3675   1.430   3.164   8.379 -0.0458  0.0156  0.1877
  230loPI   C6A 3676   1.371   3.419   8.044  0.0295 -0.2243 -0.1804
  230loPI   C1B 3677   1.988   2.965   9.958  0.0273  0.0145  0.0263
  230loPI   C2B 3678   1.867   2.987   9.576  0.0382  0.0208 -0.2070
  230loPI   C3B 3679   1.963   3.009   9.121 -0.2361 -0.0898 -0.0491
  230loPI   C4B 3680   1.885   3.017   8.646  0.1537 -0.5189  0.1134
  231loPI    C1 3681   1.359   1.896  11.053 -0.0008  0.1872 -0.2044
  231loPI    C2 3682   1.618   2.186  11.148 -0.1803  0.3471 -0.1961
  231loPI    C3 3683   1.225   2.257  11.162 -0.2296  0.0647 -0.0733
  231loPI   PO4 3684   1.411   1.817  10.852  0.0096  0.1031 -0.2611
  231loPI   GL1 3685   1.649   1.884  10.459 -0.0623  0.1250  0.0661
  231loPI   GL2 3686   1.848   2.158  10.482 -0.2003 -0.1068 -0.1531
  231loPI   C1A 3687   1.534   1.846  10.089 -0.0743  0.0606 -0.0773
  231loPI   C2A 3688   1.410   2.158   9.732 -0.0417  0.0002 -0.1105
  231loPI   C3A 3689   1.488   2.137   9.267 -0.2524 -0.1432  0.2980
  231loPI   C4A 3690   1.360   2.235   8.864  0.0549 -0.1673 -0.0259
  231loPI   C5A 3691   1.072   2.211   8.439  0.1439 -0.0493 -0.1788
  231loPI   C6A 3692   0.769   2.478   8.375  0.1727  0.2555  0.1949
  231loPI   C1B 3693   1.442   2.322  10.207 -0.5004  0.0654 -0.0637
  231loPI   C2B 3694   1.061   2.444  10.048  0.3030 -0.4439 -0.1719
  231loPI   C3B 3695   0.918   2.367   9.675  0.2069  0.0771 -0.1661
  231loPI   C4B 3696   1.076   2.373   9.241 -0.0043  0.0913 -0.1881
  232loPI    C1 3697  16.354   9.603  10.625  0.2602 -0.1885 -0.1778
  232loPI    C2 3698  16.107   9.764  10.896  0.2308 -0.1294 -0.2394
  232loPI    C3 3699  16.405   9.525  11.014  0.3370  0.0513 -0.1383
  232loPI   PO4 3700  16.273   9.709  10.467  0.3556 -0.2140  0.1098
  232loPI   GL1 3701  16.010   9.829  10.079 -0.1312 -0.0320  0.1118
  232loPI   GL2 3702  16.178   9.552   9.988 -0.2595  0.0871 -0.1451
  232loPI   C1A 3703  16.053   9.992   9.696 -0.0515 -0.1490 -0.0826
  232loPI   C2A 3704  16.158   9.868   9.289  0.0119  0.3448  0.1763
  232loPI   C3A 3705  16.147   9.774   8.914 -0.0133 -0.1740  0.0084
  232loPI   C4A 3706  16.127   9.802   8.537  0.1973  0.3755  0.1588
  232loPI   C5A 3707  16.130   9.840   8.050 -0.0274 -0.3320 -0.2410
  232loPI   C6A 3708  16.063   9.583   7.654  0.2290 -0.1794  0.0874
  232loPI   C1B 3709  16.100   9.401   9.600 -0.1522 -0.2901  0.3285
  232loPI   C2B 3710  15.997   9.339   9.127  0.0995  0.0908  0.0399
  232loPI   C3B 3711  16.110   9.231   8.658  0.0614  0.0161 -0.0648
  232loPI   C4B 3712  16.162   9.188   8.177  0.1733  0.0750 -0.1438
  233loPI    C1 3713   0.042   0.660  10.972 -0.2773 -0.1159 -0.2341
  233loPI    C2 3714  -0.243   0.484  11.190  0.1497 -0.3815  0.1297
  233loPI    C3 3715  -0.105   0.844  11.296 -0.0324 -0.2609 -0.0359
  233loPI   PO4 3716   0.023   0.558  10.729  0.1768 -0.0518  0.0674
  233loPI   GL1 3717  -0.175   0.517  10.299  0.1068  0.1451  0.0399
  233loPI   GL2 3718  -0.466   0.639  10.178  0.1816  0.1344 -0.1780
  233loPI   C1A 3719  -0.028   0.338   9.940  0.0768  0.2508 -0.2070
  233loPI   C2A 3720   0.099   0.394   9.575  0.0904 -0.2225 -0.0318
  233loPI   C3A 3721   0.006   0.262   9.095 -0.0192  0.0760 -0.1273
  233loPI   C4A 3722  -0.054   0.234   8.687 -0.0092  0.0326  0.1415
  233loPI   C5A 3723  -0.116   0.247   8.255  0.0102 -0.1702 -0.1490
  233loPI   C6A 3724  -0.188   0.611   8.008 -0.2244 -0.0678 -0.1419
  233loPI   C1B 3725  -0.425   0.602   9.780 -0.0577  0.2969 -0.1494
  233loPI   C2B 3726  -0.301   0.593   9.362  0.0154  0.0490  0.3827
  233loPI   C3B 3727  -0.444   0.489   8.996  0.0879 -0.2216  0.1574
  233loPI   C4B 3728  -0.519   0.424   8.571 -0.2724  0.0485 -0.1894
  234loPI    C1 3729  14.718   5.585  11.292  0.0210 -0.0418  0.0702
  234loPI    C2 3730  14.826   5.882  11.536 -0.1330  0.0922 -0.0227
  234loPI    C3 3731  14.795   5.509  11.677  0.4755  0.0405  0.0011
  234loPI   PO4 3732  14.838   5.717  11.000 -0.0257 -0.1749  0.0425
  234loPI   GL1 3733  14.959   5.702  10.520 -0.1198  0.0121  0.0440
  234loPI   GL2 3734  14.755   5.717  10.471  0.0036 -0.1416 -0.2891
  234loPI   C1A 3735  15.133   5.636  10.160  0.0079  0.1348 -0.0510
  234loPI   C2A 3736  15.168   5.426   9.794 -0.0342  0.0045  0.1469
  234loPI   C3A 3737  15.188   5.423   9.243 -0.4412  0.0058 -0.3355
  234loPI   C4A 3738  15.128   5.427   8.822  0.1115  0.1083  0.1323
  234loPI   C5A 3739  15.275   5.139   8.565 -0.2258  0.0119  0.0382
  234loPI   C6A 3740  15.382   4.866   8.235  0.0200 -0.0152  0.0166
  234loPI   C1B 3741  14.646   5.618  10.078 -0.2631  0.1392 -0.1997
  234loPI   C2B 3742  14.697   5.672   9.728  0.0942 -0.0298 -0.1680
  234loPI   C3B 3743  14.519   5.788   9.300  0.0034  0.1930  0.0723
  234loPI   C4B 3744  14.686   5.712   8.926 -0.0371 -0.2279  0.3341
  235loPI    C1 3745   1.107   1.073  11.115  0.3494  0.2501 -0.1003
  235loPI    C2 3746   1.358   1.035  11.424  0.0602 -0.0044  0.1101
  235loPI    C3 3747   1.107   1.346  11.408  0.1821  0.0918  0.0502
  235loPI   PO4 3748   1.219   1.140  10.862  0.1847 -0.0547 -0.0955
  235loPI   GL1 3749   1.312   1.078  10.350 -0.1540  0.0203 -0.0763
  235loPI   GL2 3750   1.087   0.981  10.206  0.1361 -0.0387 -0.2921
  235loPI   C1A 3751   1.203   1.446  10.071  0.1827 -0.0904 -0.2045
  235loPI   C2A 3752   1.336   1.579   9.729  0.2593 -0.1590  0.2254
  235loPI   C3A 3753   1.429   1.626   9.366  0.2035  0.1762  0.1273
  235loPI   C4A 3754   1.442   1.644   8.915 -0.1243 -0.0061  0.0563
  235loPI   C5A 3755   1.500   1.850   8.442 -0.0404 -0.1726 -0.0057
  235loPI   C6A 3756   1.588   2.254   8.321 -0.2743 -0.1264 -0.1743
  235loPI   C1B 3757   1.010   1.005   9.730 -0.1711 -0.1699  0.0077
  235loPI   C2B 3758   0.961   0.882   9.351 -0.1243  0.0781  0.1991
  235loPI   C3B 3759   0.939   0.755   8.925  0.1217  0.1356  0.1088
  235loPI   C4B 3760   0.830   0.897   8.589  0.1188  0.2449  0.1116
  236loPI    C1 3761  16.426   5.966  10.887 -0.0103 -0.0125  0.0119
  236loPI    C2 3762  16.062   6.081  11.006  0.0043 -0.0073  0.0515
  236loPI    C3 3763  16.373   6.118  11.254  0.0329 -0.0060  0.0156
  236loPI   PO4 3764  16.542   5.879  10.644 -0.2741 -0.2061  0.0660
  236loPI   GL1 3765  16.459   5.819  10.190 -0.0277  0.2003  0.2486
  236loPI   GL2 3766  16.247   5.920  10.017 -0.0612 -0.2838 -0.0857
  236loPI   C1A 3767  16.640   5.729   9.707  0.3088 -0.2474  0.0951
  236loPI   C2A 3768  16.545   5.700   9.317 -0.0745  0.1110 -0.5444
  236loPI   C3A 3769  16.657   5.627   8.913  0.0579 -0.3009 -0.0946
  236loPI   C4A 3770  16.697   5.403   8.512 -0.2080 -0.0916 -0.0238
  236loPI   C5A 3771  16.590   5.357   8.101 -0.0101 -0.0229  0.0333
  236loPI   C6A 3772  16.395   5.322   7.790 -0.1764  0.2194 -0.1952
  236loPI   C1B 3773  16.164   5.969   9.651 -0.1681 -0.0521  0.2097
  236loPI   C2B 3774  16.101   6.029   9.220  0.1730  0.2913 -0.0818
  236loPI   C3B 3775  16.085   5.895   8.749 -0.2641  0.0269 -0.2817
  236loPI   C4B 3776  16.216   5.691   8.374  0.0971 -0.0260 -0.1543
  237loPI    C1 3777  12.664  13.882  10.776  0.0982 -0.0960  0.1602
  237loPI    C2 3778  12.766  13.495  10.780  0.1839 -0.0741  0.1281
  237loPI    C3 3779  12.938  13.750  11.035 -0.0628 -0.1039  0.3289
  237loPI   PO4 3780  12.713  13.868  10.385  0.0836 -0.1595 -0.4115
  237loPI   GL1 3781  12.843  13.607  10.067 -0.1967 -0.1112  0.0986
  237loPI   GL2 3782  13.196  13.848   9.999  0.1365 -0.0503 -0.4113
  237loPI   C1A 3783  12.782  13.543   9.670 -0.1727 -0.1180 -0.0066
  237loPI   C2A 3784  12.925  13.561   9.200 -0.0567 -0.1782  0.1267
  237loPI   C3A 3785  13.162  13.643   8.799  0.0291  0.0904 -0.0624
  237loPI   C4A 3786  13.165  13.698   8.273  0.0060  0.1079  0.0290
  237loPI   C5A 3787  13.102  13.931   7.880  0.0549 -0.0762 -0.0200
  237loPI   C6A 3788  12.655  13.967   7.591 -0.2758 -0.1268  0.1815
  237loPI   C1B 3789  13.004  14.137   9.763  0.1264  0.2151 -0.0391
  237loPI   C2B 3790  13.034  14.107   9.249 -0.0331  0.3882  0.5421
  237loPI   C3B 3791  13.042  14.117   8.809  0.2444  0.1722  0.2479
  237loPI   C4B 3792  13.117  14.188   8.399 -0.1876 -0.3760 -0.3388
  238loPI    C1 3793   0.617   5.554  10.956  0.3185 -0.1418 -0.0540
  238loPI    C2 3794   0.392   5.312  11.183  0.2107  0.0322  0.0264
  238loPI    C3 3795   0.395   5.706  11.252 -0.0064  0.1191 -0.4212
  238loPI   PO4 3796   0.543   5.527  10.731  0.2349 -0.1857 -0.0235
  238loPI   GL1 3797   0.763   5.542  10.438 -0.0192 -0.0849  0.4116
  238loPI   GL2 3798   0.837   5.225  10.334  0.1852 -0.0236 -0.3603
  238loPI   C1A 3799   0.586   5.577   9.974  0.1802  0.0775  0.1844
  238loPI   C2A 3800   0.549   5.414   9.561  0.2843  0.1263 -0.3800
  238loPI   C3A 3801   0.571   5.278   9.135 -0.6135  0.0941 -0.3468
  238loPI   C4A 3802   0.658   5.307   8.736 -0.0215  0.0045 -0.1029
  238loPI   C5A 3803   0.845   5.210   8.378  0.0297 -0.0692  0.2114
  238loPI   C6A 3804   0.986   4.777   8.188 -0.0523 -0.1747 -0.2359
  238loPI   C1B 3805   0.961   5.174   9.921 -0.3759  0.0955  0.1530
  238loPI   C2B 3806   1.099   5.001   9.611  0.0524  0.1529  0.0367
  238loPI   C3B 3807   1.074   5.013   9.154 -0.0193 -0.1905 -0.1567
  238loPI   C4B 3808   1.234   5.171   8.753  0.3794  0.1604  0.2464
  239loPI    C1 3809   3.430  10.896  10.847 -0.0652 -0.1765  0.0093
  239loPI    C2 3810   3.551  11.012  11.210  0.0366  0.1361 -0.1219
  239loPI    C3 3811   3.161  10.963  11.136  0.0211 -0.0105  0.0522
  239loPI   PO4 3812   3.580  10.999  10.708 -0.2022  0.3188  0.1810
  239loPI   GL1 3813   3.612  11.135  10.318 -0.1249 -0.2345  0.3701
  239loPI   GL2 3814   3.396  11.307  10.149 -0.0522 -0.3543 -0.0115
  239loPI   C1A 3815   3.829  11.052   9.971 -0.0835  0.0686 -0.3505
  239loPI   C2A 3816   3.889  11.039   9.506  0.1327 -0.0338 -0.1129
  239loPI   C3A 3817   3.966  10.916   9.127  0.0329 -0.0242  0.1396
  239loPI   C4A 3818   3.847  10.875   8.701  0.0290 -0.2274  0.2869
  239loPI   C5A 3819   3.822  10.876   8.243  0.0546 -0.1073 -0.3894
  239loPI   C6A 3820   3.758  11.177   7.944 -0.0315  0.0707 -0.2504
  239loPI   C1B 3821   3.450  11.307   9.710 -0.2268 -0.0071  0.0633
  239loPI   C2B 3822   3.484  11.260   9.292 -0.0260 -0.1906 -0.0192
  239loPI   C3B 3823   3.436  11.121   8.899  0.1056  0.4201  0.1196
  239loPI   C4B 3824   3.379  11.165   8.499  0.0132 -0.3498  0.1257
  240loPI    C1 3825   9.646  16.785  10.555 -0.1383  0.2209  0.2269
  240loPI    C2 3826  10.032  16.689  10.595 -0.1341  0.0973 -0.0851
  240loPI    C3 3827   9.781  16.638  10.902  0.0760  0.0836  0.0874
  240loPI   PO4 3828   9.666  16.976  10.370 -0.1053 -0.2597 -0.1798
  240loPI   GL1 3829   9.727  17.090  10.021  0.0253 -0.0649  0.0689
  240loPI   GL2 3830  10.020  17.064   9.789 -0.0328 -0.0900  0.3002
  240loPI   C1A 3831   9.610  16.933   9.621  0.0968 -0.3195  0.0010
  240loPI   C2A 3832   9.587  16.765   9.256 -0.1055 -0.1292 -0.1910
  240loPI   C3A 3833   9.518  16.855   8.845  0.1688 -0.0631 -0.2999
  240loPI   C4A 3834   9.463  16.878   8.422 -0.0480  0.0615  0.0498
  240loPI   C5A 3835   9.240  16.865   7.973 -0.0977  0.2208 -0.0455
  240loPI   C6A 3836   8.954  16.886   7.672 -0.0443 -0.1461  0.2481
  240loPI   C1B 3837   9.999  17.130   9.349  0.0597  0.0704 -0.0348
  240loPI   C2B 3838   9.991  17.073   8.910 -0.0910 -0.0823  0.0278
  240loPI   C3B 3839  10.111  16.983   8.497  0.1126 -0.2974  0.0211
  240loPI   C4B 3840  10.436  17.094   8.188 -0.0574  0.2081  0.3183
  241loPI    C1 3841  15.543  14.738  10.575  0.1395 -0.1578  0.0112
  241loPI    C2 3842  15.684  14.958  10.876  0.1498 -0.3644  0.1597
  241loPI    C3 3843  15.504  14.610  10.951 -0.1154 -0.2764 -0.0533
  241loPI   PO4 3844  15.462  14.987  10.348  0.0618  0.2037  0.1307
  241loPI   GL1 3845  15.514  15.294   9.974 -0.0186  0.1358  0.1181
  241loPI   GL2 3846  15.811  15.372  10.057 -0.0541  0.0946  0.3322
  241loPI   C1A 3847  15.345  15.524   9.718  0.3296 -0.4907  0.0919
  241loPI   C2A 3848  15.281  15.428   9.232 -0.0764 -0.2093  0.1068
  241loPI   C3A 3849  15.245  15.479   8.756 -0.0215 -0.2737 -0.1494
  241loPI   C4A 3850  15.320  15.402   8.360 -0.2134 -0.1800  0.1493
  241loPI   C5A 3851  15.578  15.307   8.092 -0.2001 -0.1135 -0.0799
  241loPI   C6A 3852  15.926  14.943   8.157 -0.4614 -0.0070 -0.2116
  241loPI   C1B 3853  15.883  15.629   9.713  0.2376  0.4724 -0.0666
  241loPI   C2B 3854  15.844  15.709   9.293  0.2621 -0.1302 -0.0731
  241loPI   C3B 3855  15.888  15.684   8.861 -0.1262  0.0545  0.2995
  241loPI   C4B 3856  15.759  15.676   8.436 -0.1686  0.1729  0.0729
  242loPI    C1 3857  17.700  13.560  10.771 -0.0206  0.0802 -0.1042
  242loPI    C2 3858  18.003  13.649  10.525  0.0144  0.0726 -0.0641
  242loPI    C3 3859  17.861  13.926  10.776  0.2301 -0.0291  0.1749
  242loPI   PO4 3860  17.581  13.421  10.575 -0.0805  0.2705  0.2452
  242loPI   GL1 3861  17.531  13.462  10.188  0.1597 -0.2384 -0.0635
  242loPI   GL2 3862  17.719  13.639  10.077 -0.2444 -0.3420  0.0098
  242loPI   C1A 3863  17.415  13.252   9.815 -0.4351 -0.0410 -0.0528
  242loPI   C2A 3864  17.324  13.304   9.344 -0.2399  0.2115 -0.0567
  242loPI   C3A 3865  17.176  13.285   8.899 -0.0165  0.2988 -0.1323
  242loPI   C4A 3866  17.108  13.267   8.434 -0.1473  0.0141  0.0450
  242loPI   C5A 3867  16.973  13.428   8.031 -0.2356 -0.1241  0.0205
  242loPI   C6A 3868  16.982  13.580   7.628  0.0022  0.0514 -0.0254
  242loPI   C1B 3869  17.682  13.647   9.583  0.1514  0.1065  0.0892
  242loPI   C2B 3870  17.686  13.509   9.099 -0.0944 -0.2668 -0.0417
  242loPI   C3B 3871  17.527  13.604   8.718  0.0806  0.1019  0.1203
  242loPI   C4B 3872  17.223  13.734   8.439  0.1407 -0.0774 -0.3521
  243loPI    C1 3873  11.247  13.666  10.874  0.1394  0.0872  0.0705
  243loPI    C2 3874  10.938  13.816  11.078  0.0672 -0.0885  0.0925
  243loPI    C3 3875  11.303  13.814  11.242 -0.0090 -0.3251  0.2657
  243loPI   PO4 3876  11.084  13.692  10.529 -0.0069  0.1899 -0.0354
  243loPI   GL1 3877  10.979  13.865  10.175  0.0551 -0.1557  0.0490
  243loPI   GL2 3878  11.189  13.961  10.052  0.1389  0.2034 -0.0859
  243loPI   C1A 3879  10.738  13.849   9.787  0.0556 -0.1113 -0.1990
  243loPI   C2A 3880  10.820  13.824   9.308  0.2239 -0.2333 -0.0266
  243loPI   C3A 3881  10.756  13.820   8.855  0.0366 -0.2294  0.1761
  243loPI   C4A 3882  10.800  13.970   8.532 -0.0684 -0.2355 -0.1928
  243loPI   C5A 3883  10.899  13.872   8.110 -0.0064 -0.2001  0.1867
  243loPI   C6A 3884  11.078  13.490   7.959  0.2029  0.2929  0.2184
  243loPI   C1B 3885  11.336  14.159   9.743 -0.2403  0.3083  0.2581
  243loPI   C2B 3886  11.189  14.141   9.339 -0.1749  0.1109 -0.2521
  243loPI   C3B 3887  11.176  14.088   8.850  0.1736  0.0351 -0.0372
  243loPI   C4B 3888  11.270  14.387   8.553 -0.0943 -0.1931 -0.0563
  244loPI    C1 3889   3.443   5.178  10.617 -0.0387 -0.5368  0.2726
  244loPI    C2 3890   3.283   5.301  10.963 -0.1324 -0.0114  0.0515
  244loPI    C3 3891   3.053   5.262  10.638  0.0740  0.1625 -0.1191
  244loPI   PO4 3892   3.796   5.345  10.534  0.0736 -0.0210 -0.1808
  244loPI   GL1 3893   3.959   5.840  10.458  0.0473  0.1358  0.2977
  244loPI   GL2 3894   3.846   6.071  10.264 -0.1622 -0.0351  0.2090
  244loPI   C1A 3895   4.229   5.836  10.082  0.2236  0.2249  0.1238
  244loPI   C2A 3896   4.354   5.772   9.652  0.1079  0.0054  0.2984
  244loPI   C3A 3897   4.401   5.667   9.239  0.2286 -0.2824  0.2217
  244loPI   C4A 3898   4.440   5.768   8.866  0.0118 -0.1118 -0.0931
  244loPI   C5A 3899   4.586   5.821   8.417  0.1392  0.0997  0.1308
  244loPI   C6A 3900   4.844   5.843   8.059 -0.2679  0.0252  0.0519
  244loPI   C1B 3901   3.737   6.144   9.799  0.1285 -0.0519 -0.0895
  244loPI   C2B 3902   3.786   6.096   9.370  0.1016  0.0144  0.0610
  244loPI   C3B 3903   3.854   6.048   8.952  0.1397 -0.0327  0.1142
  244loPI   C4B 3904   3.863   5.964   8.500  0.0780 -0.1587 -0.3783
  245loPI    C1 3905   2.821  15.695  10.381 -0.1868 -0.0406  0.1462
  245loPI    C2 3906   3.084  15.405  10.463 -0.0613  0.0288 -0.0056
  245loPI    C3 3907   2.807  15.505  10.733  0.2007  0.0993  0.2432
  245loPI   PO4 3908   2.724  15.696  10.125  0.0769 -0.1891 -0.0166
  245loPI   GL1 3909   2.996  15.658   9.828  0.0567 -0.0701  0.2932
  245loPI   GL2 3910   3.125  15.379   9.959  0.2192 -0.1481 -0.1831
  245loPI   C1A 3911   2.776  15.576   9.352  0.0193 -0.0102 -0.0968
  245loPI   C2A 3912   2.827  15.548   8.916 -0.0406  0.1912  0.1871
  245loPI   C3A 3913   2.627  15.373   8.557 -0.2244 -0.0466  0.0022
  245loPI   C4A 3914   2.708  15.324   8.213  0.0231 -0.1074  0.0011
  245loPI   C5A 3915   2.995  15.278   7.954 -0.3145 -0.0708 -0.2043
  245loPI   C6A 3916   3.358  15.071   8.006  0.1015  0.0298 -0.1982
  245loPI   C1B 3917   3.059  15.245   9.598  0.1356  0.1714 -0.0343
  245loPI   C2B 3918   3.042  15.143   9.260 -0.2817 -0.2546 -0.1383
  245loPI   C3B 3919   3.037  15.095   8.809 -0.0976 -0.3222  0.0059
  245loPI   C4B 3920   3.168  15.067   8.505 -0.2520  0.0731  0.1349
  246loPI    C1 3921   9.217   4.680  10.348  0.0492  0.2886  0.0558
  246loPI    C2 3922   9.319   4.303  10.435  0.0130  0.2471 -0.0798
  246loPI    C3 3923   9.592   4.594  10.459 -0.0075  0.2450  0.2173
  246loPI   PO4 3924   9.046   4.735  10.176  0.0476 -0.2348  0.0368
  246loPI   GL1 3925   8.865   4.695   9.821 -0.0280 -0.2488  0.2017
  246loPI   GL2 3926   9.247   4.840   9.737 -0.1224  0.4127  0.0285
  246loPI   C1A 3927   8.897   4.844   9.327  0.2024  0.2452 -0.0340
  246loPI   C2A 3928   8.980   4.821   8.912 -0.4764 -0.0542  0.2138
  246loPI   C3A 3929   8.818   4.795   8.563 -0.1813  0.1896  0.0767
  246loPI   C4A 3930   8.613   4.795   8.174  0.1466  0.2096  0.0375
  246loPI   C5A 3931   8.640   4.671   7.818 -0.0742  0.0731  0.0041
  246loPI   C6A 3932   9.021   4.538   7.515 -0.0045  0.3984 -0.0980
  246loPI   C1B 3933   9.308   4.534   9.376 -0.0261  0.1876  0.2255
  246loPI   C2B 3934   9.498   4.441   9.055 -0.1112  0.0418  0.3059
  246loPI   C3B 3935   9.424   4.538   8.645  0.1565 -0.2658  0.3744
  246loPI   C4B 3936   9.071   4.484   8.285  0.0665 -0.3249 -0.1613
  247loPI    C1 3937  16.304   9.127  10.506 -0.1500 -0.0273 -0.4029
  247loPI    C2 3938  16.527   9.326  10.241  0.1058  0.0876 -0.1070
  247loPI    C3 3939  16.690   9.196  10.582 -0.2885  0.2050  0.1325
  247loPI   PO4 3940  16.109   9.040  10.347 -0.0552 -0.0830 -0.0994
  247loPI   GL1 3941  15.807   9.035   9.936  0.2620  0.2033 -0.1438
  247loPI   GL2 3942  15.773   9.312   9.949 -0.0430 -0.2991  0.1514
  247loPI   C1A 3943  15.869   8.659   9.676  0.0343 -0.1753  0.2897
  247loPI   C2A 3944  15.850   8.526   9.227 -0.1241 -0.0860  0.1057
  247loPI   C3A 3945  15.911   8.430   8.786 -0.2559  0.4113 -0.0107
  247loPI   C4A 3946  15.791   8.248   8.341 -0.1565 -0.3459 -0.1491
  247loPI   C5A 3947  15.689   8.104   7.898  0.1506 -0.0827 -0.2304
  247loPI   C6A 3948  15.737   7.662   7.909  0.2233 -0.0365 -0.2651
  247loPI   C1B 3949  15.689   9.131   9.486  0.0094  0.1221 -0.1934
  247loPI   C2B 3950  15.652   8.966   9.085  0.1745 -0.0988 -0.3531
  247loPI   C3B 3951  15.507   8.922   8.622  0.3021  0.0879  0.1915
  247loPI   C4B 3952  15.764   8.872   8.314  0.0691 -0.1868  0.0191
  248loPI    C1 3953  16.586  12.853  10.852 -0.0513  0.2896  0.0692
  248loPI    C2 3954  16.212  12.754  10.953 -0.0203  0.0680 -0.0262
  248loPI    C3 3955  16.434  12.977  11.201 -0.1946  0.1514  0.0570
  248loPI   PO4 3956  16.563  12.828  10.621  0.1863 -0.2532 -0.0977
  248loPI   GL1 3957  16.530  12.858  10.282  0.0586  0.2703  0.2442
  248loPI   GL2 3958  16.472  13.118  10.204  0.2471  0.2787 -0.1104
  248loPI   C1A 3959  16.625  12.638   9.884 -0.0929 -0.1478  0.0520
  248loPI   C2A 3960  16.669  12.502   9.560  0.0243  0.0444  0.0336
  248loPI   C3A 3961  16.732  12.555   9.136  0.0123 -0.1631 -0.2285
  248loPI   C4A 3962  16.581  12.507   8.726 -0.0803 -0.0282  0.0740
  248loPI   C5A 3963  16.510  12.435   8.329 -0.0456  0.0804  0.0757
  248loPI   C6A 3964  16.594  12.213   7.953 -0.0098  0.0550 -0.0240
  248loPI   C1B 3965  16.200  12.846   9.867 -0.0519  0.0819 -0.1488
  248loPI   C2B 3966  16.201  12.705   9.434 -0.1945 -0.1078 -0.4861
  248loPI   C3B 3967  16.261  12.746   9.011  0.0261  0.0220 -0.0950
  248loPI   C4B 3968  16.298  12.901   8.539  0.0989 -0.0638 -0.2116
  249loPI    C1 3969  17.659  17.551  10.952 -0.1422 -0.1496 -0.1738
  249loPI    C2 3970  17.753  17.334  11.274 -0.1350 -0.0648 -0.1186
  249loPI    C3 3971  17.371  17.366  11.159 -0.1102 -0.3188 -0.2787
  249loPI   PO4 3972  17.738  17.454  10.740 -0.0357  0.1127 -0.0355
  249loPI   GL1 3973  17.634  17.307  10.308 -0.2547  0.0952 -0.2003
  249loPI   GL2 3974  17.379  17.050  10.236  0.0743 -0.1938 -0.0822
  249loPI   C1A 3975  17.785  17.234   9.898  0.0560  0.0674  0.0654
  249loPI   C2A 3976  17.693  17.243   9.420  0.1550 -0.0943 -0.3398
  249loPI   C3A 3977  17.699  17.225   9.033  0.3198 -0.1132 -0.0472
  249loPI   C4A 3978  17.725  17.160   8.569  0.0055  0.2241 -0.2796
  249loPI   C5A 3979  17.678  17.432   8.155  0.1154  0.0430 -0.0364
  249loPI   C6A 3980  17.851  17.870   8.219 -0.2234 -0.2869 -0.2520
  249loPI   C1B 3981  17.296  17.142   9.795 -0.3019 -0.3493 -0.1687
  249loPI   C2B 3982  17.240  17.038   9.322  0.1007  0.2784 -0.4673
  249loPI   C3B 3983  17.283  16.991   8.877 -0.0305 -0.0423  0.2867
  249loPI   C4B 3984  17.277  16.913   8.440 -0.0598 -0.2336  0.0233
  250loPI    C1 3985  10.041  14.319  10.991 -0.0218  0.1455 -0.0351
  250loPI    C2 3986  10.344  14.517  11.163 -0.1186  0.2307  0.0387
  250loPI    C3 3987  10.135  14.249  11.374  0.1062 -0.0612 -0.1032
  250loPI   PO4 3988  10.122  14.359  10.725 -0.1025  0.0615  0.0134
  250loPI   GL1 3989  10.425  14.314  10.445  0.0818 -0.0147 -0.3052
  250loPI   GL2 3990  10.462  14.100  10.243 -0.0905  0.0147 -0.0306
  250loPI   C1A 3991  10.280  14.588  10.135 -0.4057 -0.0389  0.1418
  250loPI   C2A 3992  10.302  14.683   9.698  0.1769 -0.0347 -0.1045
  250loPI   C3A 3993  10.307  14.576   9.202  0.0955  0.1461  0.1606
  250loPI   C4A 3994  10.324  14.699   8.816 -0.2555  0.4563  0.0106
  250loPI   C5A 3995  10.497  14.789   8.446  0.0434 -0.2118 -0.2390
  250loPI   C6A 3996  10.779  14.558   8.244 -0.0138  0.0884  0.3010
  250loPI   C1B 3997  10.311  14.199   9.831 -0.0536  0.1705  0.0120
  250loPI   C2B 3998  10.224  14.049   9.498 -0.2396 -0.2639  0.0246
  250loPI   C3B 3999  10.344  14.034   9.099 -0.0979 -0.1088 -0.2437
  250loPI   C4B 4000  10.397  14.168   8.675  0.0878  0.1741  0.2197
  251loPI    C1 4001  17.573  15.733  10.531  0.0005  0.1621  0.0593
  251loPI    C2 4002  17.399  15.459  10.765  0.0702  0.1092  0.0496
  251loPI    C3 4003  17.216  15.582  10.431  0.0097  0.1218  0.0872
  251loPI   PO4 4004  17.833  15.617  10.476  0.1383 -0.2295 -0.0758
  251loPI   GL1 4005  17.838  15.403  10.037  0.2395 -0.0201  0.0649
  251loPI   GL2 4006  18.145  15.418   9.824  0.0450  0.1220 -0.1690
  251loPI   C1A 4007  17.661  15.246   9.695  0.3933  0.3119  0.1213
  251loPI   C2A 4008  17.703  15.214   9.215 -0.0646 -0.1452  0.0036
  251loPI   C3A 4009  17.715  15.098   8.752  0.0982 -0.0394  0.0523
  251loPI   C4A 4010  17.709  15.044   8.359 -0.1358  0.0337  0.1716
  251loPI   C5A 4011  17.723  15.022   7.961  0.2763 -0.1610  0.1978
  251loPI   C6A 4012  17.707  15.282   7.643 -0.0246 -0.0386 -0.0042
  251loPI   C1B 4013  18.106  15.460   9.397 -0.2414  0.1962  0.2240
  251loPI   C2B 4014  18.109  15.403   9.006 -0.3377  0.1579  0.4554
  251loPI   C3B 4015  18.157  15.360   8.592 -0.0379 -0.2325 -0.1635
  251loPI   C4B 4016  18.028  15.445   8.200  0.0104 -0.2885 -0.1060
  252loPI    C1 4017  10.863   9.614  10.519  0.0458 -0.0773 -0.1828
  252loPI    C2 4018  10.641   9.305  10.642 -0.0907  0.0896 -0.0044
  252loPI    C3 4019  10.989   9.386  10.823 -0.1143  0.1141  0.0301
  252loPI   PO4 4020  10.846   9.579  10.208  0.2897 -0.0079  0.0982
  252loPI   GL1 4021  10.778   9.476   9.733 -0.2027 -0.1731 -0.3456
  252loPI   GL2 4022  10.893   9.670   9.507 -0.2784 -0.0111  0.0239
  252loPI   C1A 4023  10.888   9.120   9.522  0.0334  0.0201  0.1131
  252loPI   C2A 4024  10.914   8.879   9.112  0.0656  0.1658  0.2334
  252loPI   C3A 4025  10.873   8.794   8.699  0.0212 -0.0967 -0.1719
  252loPI   C4A 4026  10.822   8.793   8.311  0.2763  0.0547 -0.1452
  252loPI   C5A 4027  10.983   8.697   7.963  0.4003 -0.1810 -0.1045
  252loPI   C6A 4028  10.972   8.647   7.591  0.2324 -0.2047 -0.2439
  252loPI   C1B 4029  10.766   9.745   9.081  0.0050  0.0607 -0.0763
  252loPI   C2B 4030  10.813   9.769   8.694 -0.0230 -0.2251  0.2079
  252loPI   C3B 4031  10.919   9.976   8.393 -0.0277 -0.0405  0.0503
  252loPI   C4B 4032  10.720  10.007   8.036 -0.1553 -0.2382  0.1077
  253loPI    C1 4033   2.758   4.263  10.875 -0.0663 -0.0256 -0.2360
  253loPI    C2 4034   2.810   3.937  11.101 -0.0886 -0.0273 -0.2333
  253loPI    C3 4035   2.597   4.245  11.241 -0.0200  0.0112 -0.2136
  253loPI   PO4 4036   2.729   4.179  10.645 -0.1584  0.0257 -0.2181
  253loPI   GL1 4037   2.448   4.099  10.425  0.1006 -0.0043  0.1995
  253loPI   GL2 4038   2.356   4.353  10.316  0.1735 -0.1744  0.0077
  253loPI   C1A 4039   2.406   3.837  10.133  0.1207  0.1105 -0.0079
  253loPI   C2A 4040   2.447   3.710   9.681  0.0189 -0.2114  0.2129
  253loPI   C3A 4041   2.480   3.826   9.249  0.1619  0.4986 -0.0766
  253loPI   C4A 4042   2.465   3.811   8.941  0.0398 -0.0396  0.0601
  253loPI   C5A 4043   2.488   3.913   8.555 -0.0376 -0.0471  0.1751
  253loPI   C6A 4044   2.483   3.679   8.270  0.2128  0.3325 -0.0539
  253loPI   C1B 4045   2.490   4.309   9.924  0.0485 -0.0437  0.1431
  253loPI   C2B 4046   2.492   4.286   9.513  0.1898 -0.0562 -0.3385
  253loPI   C3B 4047   2.473   4.354   9.067  0.2685 -0.1637  0.1629
  253loPI   C4B 4048   2.681   4.404   8.563 -0.0817  0.2915  0.0818
  254loPI    C1 4049   2.919   4.782  10.715 -0.1195 -0.2588 -0.1107
  254loPI    C2 4050   2.552   4.707  10.577 -0.2364  0.2646 -0.1042
  254loPI    C3 4051   2.612   4.756  10.970 -0.1376  0.0679 -0.0941
  254loPI   PO4 4052   3.049   4.648  10.637 -0.1468 -0.2672 -0.1575
  254loPI   GL1 4053   3.110   4.472  10.340 -0.0754  0.0358 -0.0267
  254loPI   GL2 4054   2.870   4.483  10.205 -0.0065  0.1028  0.1524
  254loPI   C1A 4055   3.309   4.287  10.061  0.0763  0.0814  0.1280
  254loPI   C2A 4056   3.330   4.178   9.656  0.1388  0.1751  0.0340
  254loPI   C3A 4057   3.399   4.221   9.183 -0.3320  0.2797 -0.2354
  254loPI   C4A 4058   3.402   4.125   8.753  0.0618 -0.3583 -0.0401
  254loPI   C5A 4059   3.510   4.431   8.311  0.0281 -0.2585  0.0543
  254loPI   C6A 4060   3.546   4.729   8.028  0.1561 -0.1831 -0.3266
  254loPI   C1B 4061   2.935   4.512   9.798  0.3492  0.0693 -0.0416
  254loPI   C2B 4062   2.897   4.493   9.382 -0.0802  0.1809 -0.1290
  254loPI   C3B 4063   2.986   4.517   8.942 -0.1185  0.1652  0.0470
  254loPI   C4B 4064   3.132   4.581   8.599  0.1898  0.1691  0.0416
  255loPI    C1 4065   7.393   4.146  10.552  0.0624  0.0119  0.0969
  255loPI    C2 4066   7.299   4.408  10.839 -0.1105 -0.1523  0.1924
  255loPI    C3 4067   7.599   4.149  10.895 -0.0753 -0.1139  0.1819
  255loPI   PO4 4068   7.283   4.319  10.325  0.1105 -0.0376 -0.1072
  255loPI   GL1 4069   7.303   4.762  10.078  0.1593 -0.0785 -0.1190
  255loPI   GL2 4070   7.077   4.745   9.894 -0.1726  0.0558 -0.0365
  255loPI   C1A 4071   7.508   4.936   9.696  0.2801  0.2480 -0.1868
  255loPI   C2A 4072   7.598   4.979   9.313 -0.2978  0.0157  0.1561
  255loPI   C3A 4073   7.523   5.060   8.849  0.0808  0.2710  0.1985
  255loPI   C4A 4074   7.505   5.139   8.378 -0.1068  0.0153  0.1368
  255loPI   C5A 4075   7.511   5.403   8.017  0.1656 -0.1094 -0.0372
  255loPI   C6A 4076   7.544   5.834   8.018  0.4661 -0.0489  0.3400
  255loPI   C1B 4077   7.082   4.732   9.480 -0.0279 -0.0746  0.0222
  255loPI   C2B 4078   7.021   4.778   9.028 -0.0749 -0.1735  0.1229
  255loPI   C3B 4079   7.126   4.856   8.592  0.0123  0.1402 -0.1984
  255loPI   C4B 4080   7.081   4.997   8.093  0.0402 -0.1760  0.0405
  256loPI    C1 4081  16.747  17.616  10.684  0.3805  0.1066  0.1759
  256loPI    C2 4082  16.856  17.446  11.030  0.2885 -0.0016  0.1525
  256loPI    C3 4083  16.570  17.726  11.025  0.2811 -0.0090  0.1622
  256loPI   PO4 4084  16.714  17.391  10.514  0.2308 -0.2364 -0.0288
  256loPI   GL1 4085  16.916  17.167  10.215  0.0189 -0.0253  0.2047
  256loPI   GL2 4086  16.937  16.831   9.964  0.1163 -0.1570 -0.1370
  256loPI   C1A 4087  16.800  17.253   9.725 -0.0330  0.0942 -0.2803
  256loPI   C2A 4088  16.754  17.271   9.286  0.1076 -0.0091 -0.0512
  256loPI   C3A 4089  16.822  17.245   8.873  0.1319  0.0598 -0.0558
  256loPI   C4A 4090  16.821  17.157   8.401  0.0551 -0.1904  0.0479
  256loPI   C5A 4091  17.115  17.143   7.932  0.1331 -0.2354  0.1731
  256loPI   C6A 4092  16.910  17.111   7.485 -0.0504  0.0256 -0.0027
  256loPI   C1B 4093  16.790  16.815   9.542 -0.0226 -0.2914  0.2324
  256loPI   C2B 4094  16.770  16.798   9.106  0.0137 -0.3542  0.1453
  256loPI   C3B 4095  16.886  16.769   8.726 -0.2993 -0.1135 -0.1458
  256loPI   C4B 4096  16.816  16.710   8.146  0.0129 -0.0251 -0.0449
  257loPI    C1 4097   6.888   2.619  10.115 -0.0479 -0.0556 -0.1000
  257loPI    C2 4098   6.774   3.000  10.155 -0.0664 -0.0725  0.0116
  257loPI    C3 4099   7.114   2.874  10.324 -0.1791 -0.1606  0.1749
  257loPI   PO4 4100   6.856   2.615   9.802  0.1098  0.0861  0.1038
  257loPI   GL1 4101   7.081   2.665   9.429  0.0311  0.2097 -0.0086
  257loPI   GL2 4102   7.443   2.628   9.386  0.0255  0.3652  0.2263
  257loPI   C1A 4103   6.823   2.803   9.084 -0.1816 -0.1989 -0.1693
  257loPI   C2A 4104   6.714   2.815   8.727  0.1699 -0.2859  0.1630
  257loPI   C3A 4105   6.689   2.569   8.300 -0.1789 -0.0518  0.0797
  257loPI   C4A 4106   6.913   2.356   7.963  0.1325  0.1191  0.2525
  257loPI   C5A 4107   7.216   2.355   7.677 -0.0729 -0.0574  0.0838
  257loPI   C6A 4108   7.462   1.995   7.463 -0.1940 -0.3226 -0.2507
  257loPI   C1B 4109   7.297   2.669   8.962  0.2657  0.2323 -0.1017
  257loPI   C2B 4110   7.141   2.700   8.479 -0.1248  0.2200 -0.0721
  257loPI   C3B 4111   7.089   2.904   8.189  0.1562  0.1526  0.4275
  257loPI   C4B 4112   7.040   2.876   7.712  0.1355 -0.3884 -0.1794
  258loPI    C1 4113  16.140   0.014  11.135 -0.0776  0.1674 -0.3340
  258loPI    C2 4114  15.871   0.308  11.102  0.0442  0.2822 -0.3098
  258loPI    C3 4115  15.951   0.150  11.460 -0.0126  0.2273 -0.3211
  258loPI   PO4 4116  16.320   0.051  10.988 -0.3786  0.0915 -0.1998
  258loPI   GL1 4117  16.314   0.225  10.598 -0.1645  0.0511 -0.1194
  258loPI   GL2 4118  16.095  -0.030  10.383 -0.2047 -0.1648 -0.1176
  258loPI   C1A 4119  16.397   0.329  10.181 -0.1020 -0.1145 -0.0877
  258loPI   C2A 4120  16.486   0.345   9.668  0.1851 -0.1355 -0.1936
  258loPI   C3A 4121  16.466   0.252   9.191 -0.2295 -0.1683 -0.1567
  258loPI   C4A 4122  16.353   0.234   8.716 -0.4312 -0.3308 -0.0605
  258loPI   C5A 4123  16.063   0.495   8.473  0.0574 -0.0638 -0.0919
  258loPI   C6A 4124  15.688   0.585   8.430  0.0187 -0.5816 -0.0624
  258loPI   C1B 4125  16.299  -0.080   9.968  0.2032 -0.0634  0.0251
  258loPI   C2B 4126  16.248  -0.086   9.547 -0.0061  0.1556  0.3039
  258loPI   C3B 4127  16.259  -0.136   9.073  0.0211  0.3020  0.0764
  258loPI   C4B 4128  16.318  -0.301   8.658  0.1030 -0.0182 -0.3027
  259loPI    C1 4129   0.277  17.957  11.142 -0.3486  0.1756 -0.0970
  259loPI    C2 4130  -0.044  17.738  11.237 -0.1241 -0.0048  0.2682
  259loPI    C3 4131   0.276  17.738  11.476  0.2762 -0.0797 -0.2494
  259loPI   PO4 4132   0.320  17.893  10.852 -0.2185  0.0091  0.0862
  259loPI   GL1 4133   0.275  17.881  10.433 -0.0641  0.1769 -0.2995
  259loPI   GL2 4134   0.437  17.721  10.204 -0.0463 -0.2653 -0.1528
  259loPI   C1A 4135   0.138  18.146  10.141  0.0398 -0.0744 -0.2142
  259loPI   C2A 4136   0.119  18.058   9.752 -0.1921 -0.0262 -0.1244
  259loPI   C3A 4137   0.140  18.033   9.380 -0.0596 -0.1702  0.4359
  259loPI   C4A 4138  -0.064  17.995   9.008 -0.0967 -0.1919 -0.0694
  259loPI   C5A 4139   0.000  17.879   8.520 -0.0269  0.1280 -0.4695
  259loPI   C6A 4140   0.105  18.031   8.154 -0.1440  0.1217  0.0691
  259loPI   C1B 4141   0.441  17.695   9.702 -0.0724 -0.0383 -0.1001
  259loPI   C2B 4142   0.428  17.682   9.236 -0.0435  0.1204  0.0681
  259loPI   C3B 4143   0.405  17.734   8.866 -0.0244  0.2393  0.1626
  259loPI   C4B 4144   0.451  17.642   8.477 -0.3740 -0.2676 -0.3363
  260loPI    C1 4145  14.753   8.289  10.775  0.0042  0.0466  0.0265
  260loPI    C2 4146  14.412   8.494  10.736  0.0841  0.1871  0.0564
  260loPI    C3 4147  14.590   8.469  11.093 -0.0564 -0.1481  0.1066
  260loPI   PO4 4148  14.823   8.096  10.618 -0.1235  0.0020 -0.0894
  260loPI   GL1 4149  14.938   7.937  10.156 -0.2328  0.2357  0.1179
  260loPI   GL2 4150  15.225   8.130  10.138  0.1072  0.0399 -0.0262
  260loPI   C1A 4151  14.713   7.738   9.699  0.1810 -0.1660  0.1051
  260loPI   C2A 4152  14.699   7.625   9.323 -0.3347 -0.1064  0.2094
  260loPI   C3A 4153  14.789   7.611   8.955 -0.3478  0.1105 -0.1605
  260loPI   C4A 4154  14.887   7.286   8.574  0.2123 -0.2966 -0.0565
  260loPI   C5A 4155  14.801   7.002   8.188  0.2078 -0.4342 -0.0944
  260loPI   C6A 4156  14.560   6.695   7.839 -0.0281  0.4344  0.0140
  260loPI   C1B 4157  15.191   7.778   9.749 -0.0179 -0.0586 -0.0404
  260loPI   C2B 4158  15.182   7.583   9.378 -0.3158  0.0313  0.1012
  260loPI   C3B 4159  15.285   7.579   8.874 -0.1228  0.2544  0.0971
  260loPI   C4B 4160  15.401   7.532   8.341  0.4267  0.2270 -0.0882
  261loPI    C1 4161   4.805   0.519  10.340  0.0338  0.0948  0.0016
  261loPI    C2 4162   5.173   0.509  10.497 -0.0246 -0.0735  0.1313
  261loPI    C3 4163   4.929   0.816  10.577 -0.0300 -0.1252  0.3165
  261loPI   PO4 4164   4.684   0.559  10.054  0.0833  0.0980 -0.2526
  261loPI   GL1 4165   4.411   0.522   9.597  0.0032 -0.0142 -0.1833
  261loPI   GL2 4166   4.595   0.792   9.684  0.1098  0.1041 -0.2867
  261loPI   C1A 4167   4.321   0.564   9.202 -0.2152 -0.1087 -0.0933
  261loPI   C2A 4168   4.212   0.506   8.710 -0.0946  0.0934  0.1146
  261loPI   C3A 4169   4.089   0.540   8.295  0.1553 -0.0720  0.0261
  261loPI   C4A 4170   3.781   0.663   7.923 -0.2212  0.0886 -0.1751
  261loPI   C5A 4171   3.614   1.046   7.815  0.0280 -0.0894  0.0361
  261loPI   C6A 4172   3.447   1.412   7.720  0.1677  0.2753 -0.2980
  261loPI   C1B 4173   4.822   0.676   9.373  0.4221 -0.1778  0.0428
  261loPI   C2B 4174   4.698   0.731   8.932  0.3499  0.0099  0.0535
  261loPI   C3B 4175   4.628   0.686   8.532  0.1032 -0.1338 -0.2568
  261loPI   C4B 4176   4.766   0.646   8.085  0.2297  0.3009  0.0841
  262loPI    C1 4177   9.384  13.185  10.694 -0.0242  0.3571  0.4197
  262loPI    C2 4178   9.518  12.819  10.783 -0.1541  0.2415  0.1494
  262loPI    C3 4179   9.552  13.114  11.050  0.1832  0.0952  0.2733
  262loPI   PO4 4180   9.189  13.120  10.499  0.1374  0.0499  0.2522
  262loPI   GL1 4181   9.123  12.909  10.119 -0.1595  0.0656 -0.1166
  262loPI   GL2 4182   9.010  12.555  10.045 -0.0642 -0.2399 -0.1030
  262loPI   C1A 4183   9.008  13.148   9.854  0.0956 -0.1001  0.1020
  262loPI   C2A 4184   9.038  13.178   9.415  0.0211 -0.1942  0.1332
  262loPI   C3A 4185   8.962  13.320   9.004  0.0983 -0.4757 -0.3536
  262loPI   C4A 4186   8.979  13.432   8.632  0.0988 -0.2321 -0.1020
  262loPI   C5A 4187   9.001  13.750   8.266 -0.3202 -0.0128  0.1104
  262loPI   C6A 4188   8.623  13.772   7.922 -0.0905 -0.0912 -0.1467
  262loPI   C1B 4189   9.094  12.697   9.617  0.2808 -0.0953 -0.0013
  262loPI   C2B 4190   8.968  12.733   9.142  0.0103  0.0977  0.1429
  262loPI   C3B 4191   8.953  12.860   8.713  0.1668 -0.1267 -0.0735
  262loPI   C4B 4192   8.923  12.922   8.329  0.0595 -0.0086 -0.2499
  263loPI    C1 4193  16.869   9.692  10.520 -0.0591  0.0111  0.0650
  263loPI    C2 4194  17.141   9.852  10.766  0.1360  0.1840 -0.2561
  263loPI    C3 4195  16.906   9.554  10.893  0.4520  0.0537  0.0371
  263loPI   PO4 4196  16.948   9.624  10.298  0.1871  0.1877 -0.0951
  263loPI   GL1 4197  17.000   9.738   9.973 -0.0226 -0.1733 -0.1597
  263loPI   GL2 4198  17.068   9.471   9.819 -0.2021  0.1607 -0.1317
  263loPI   C1A 4199  16.993   9.909   9.675  0.0917 -0.2001  0.1683
  263loPI   C2A 4200  16.985   9.799   9.207  0.3358 -0.2502 -0.0060
  263loPI   C3A 4201  17.095   9.669   8.798  0.0098  0.0368 -0.0813
  263loPI   C4A 4202  16.963   9.656   8.436 -0.3211 -0.2044  0.3725
  263loPI   C5A 4203  17.039   9.846   8.138 -0.1895  0.1416  0.1570
  263loPI   C6A 4204  17.377   9.773   7.845  0.1115  0.1999  0.5339
  263loPI   C1B 4205  17.050   9.304   9.336  0.1405  0.2270 -0.0029
  263loPI   C2B 4206  17.067   9.142   8.926 -0.0112 -0.0802 -0.1843
  263loPI   C3B 4207  17.235   9.208   8.462  0.0326 -0.0011  0.1169
  263loPI   C4B 4208  17.212   9.354   8.000 -0.2741 -0.3575  0.0957
  264loPI    C1 4209  14.328  11.476  10.188 -0.2052 -0.1335  0.1005
  264loPI    C2 4210  14.497  11.609  10.525  0.3110  0.1024 -0.2392
  264loPI    C3 4211  14.188  11.806  10.366  0.2320  0.1382 -0.0444
  264loPI   PO4 4212  14.598  11.399  10.056  0.1201  0.1229 -0.0500
  264loPI   GL1 4213  14.510  11.379   9.650  0.2733 -0.1149 -0.1744
  264loPI   GL2 4214  14.307  11.153   9.359  0.0015 -0.0868  0.1979
  264loPI   C1A 4215  14.746  11.410   9.357 -0.1768  0.0329 -0.0046
  264loPI   C2A 4216  14.706  11.272   8.930  0.1388  0.0394 -0.0688
  264loPI   C3A 4217  14.803  11.291   8.592 -0.3019 -0.2531 -0.1417
  264loPI   C4A 4218  14.840  11.594   8.310 -0.0600  0.0237 -0.1497
  264loPI   C5A 4219  15.047  11.619   7.891 -0.0609  0.3287 -0.2875
  264loPI   C6A 4220  15.246  11.920   7.711 -0.1142 -0.1527 -0.0114
  264loPI   C1B 4221  14.323  10.938   9.038  0.3695 -0.2002 -0.0001
  264loPI   C2B 4222  14.371  10.934   8.658  0.0454 -0.3198  0.0857
  264loPI   C3B 4223  14.438  10.790   8.259 -0.1795  0.1268 -0.0860
  264loPI   C4B 4224  14.364  10.985   7.872 -0.2311 -0.1959  0.1064
  265loPI    C1 4225  11.735   2.141  10.838 -0.2430 -0.1123  0.0379
  265loPI    C2 4226  11.656   2.533  10.835  0.0610 -0.0446  0.3248
  265loPI    C3 4227  11.564   2.312  11.156 -0.2281 -0.2378  0.1142
  265loPI   PO4 4228  11.646   2.092  10.632 -0.3741 -0.0509  0.1391
  265loPI   GL1 4229  11.820   1.898  10.295  0.0054 -0.1682 -0.1626
  265loPI   GL2 4230  12.091   1.946  10.064  0.0192  0.0170  0.2407
  265loPI   C1A 4231  11.747   1.649   9.887 -0.1062  0.1479 -0.1694
  265loPI   C2A 4232  11.855   1.574   9.502 -0.2666  0.0839 -0.1396
  265loPI   C3A 4233  11.899   1.604   9.081  0.1123 -0.1885 -0.0415
  265loPI   C4A 4234  11.857   1.614   8.647  0.1093 -0.0865 -0.3456
  265loPI   C5A 4235  12.013   1.694   8.241 -0.4250  0.0985 -0.0961
  265loPI   C6A 4236  11.819   1.932   8.005  0.1714 -0.3463 -0.0076
  265loPI   C1B 4237  12.262   1.874   9.731 -0.0189 -0.0668  0.1289
  265loPI   C2B 4238  12.323   1.787   9.299  0.1910 -0.2100 -0.1638
  265loPI   C3B 4239  12.259   1.858   8.840 -0.0226  0.1773  0.0141
  265loPI   C4B 4240  12.418   1.956   8.434 -0.2587 -0.1988  0.0023
  266loPI    C1 4241   8.043   7.221  10.804 -0.0450 -0.0171  0.1363
  266loPI    C2 4242   8.443   7.221  10.785 -0.0441 -0.0632  0.1552
  266loPI    C3 4243   8.259   7.165  11.136 -0.0666  0.0533  0.1624
  266loPI   PO4 4244   7.958   7.485  10.620  0.0896  0.0687  0.0658
  266loPI   GL1 4245   7.967   7.519  10.169  0.1127  0.1098 -0.1382
  266loPI   GL2 4246   7.672   7.369  10.215 -0.1515  0.0470 -0.1621
  266loPI   C1A 4247   8.155   7.492   9.708 -0.0738 -0.2202 -0.0302
  266loPI   C2A 4248   8.091   7.540   9.322  0.1703 -0.1779  0.0896
  266loPI   C3A 4249   8.017   7.518   8.875  0.0752  0.1052  0.2185
  266loPI   C4A 4250   7.895   7.415   8.457 -0.2559 -0.1028 -0.3917
  266loPI   C5A 4251   7.914   7.384   8.133 -0.1527  0.2111  0.1573
  266loPI   C6A 4252   8.188   7.514   7.807  0.2346 -0.2215 -0.0492
  266loPI   C1B 4253   7.530   7.243   9.814  0.1792  0.0404 -0.2247
  266loPI   C2B 4254   7.548   7.340   9.327 -0.5675 -0.1094  0.0411
  266loPI   C3B 4255   7.640   7.239   8.873 -0.0478 -0.2413 -0.0479
  266loPI   C4B 4256   7.574   7.067   8.411 -0.1310  0.1811 -0.2362
  267loPI    C1 4257  11.388   0.364  10.644  0.2434  0.0519  0.0306
  267loPI    C2 4258  11.457   0.450  11.029 -0.0892  0.0249  0.0994
  267loPI    C3 4259  11.298   0.097  10.927  0.0943 -0.0102 -0.0743
  267loPI   PO4 4260  11.248   0.544  10.520  0.0448 -0.0675  0.0188
  267loPI   GL1 4261  11.430   0.776  10.212 -0.0747  0.1780 -0.0657
  267loPI   GL2 4262  11.734   0.686   9.948  0.0907  0.1837 -0.0315
  267loPI   C1A 4263  11.284   0.685   9.793 -0.0991 -0.1544 -0.2008
  267loPI   C2A 4264  11.325   0.864   9.362  0.0427  0.0096 -0.1727
  267loPI   C3A 4265  11.425   0.782   8.927  0.1337 -0.1701  0.1668
  267loPI   C4A 4266  11.437   0.629   8.494 -0.2303 -0.2093  0.0724
  267loPI   C5A 4267  11.413   0.981   8.204  0.0551  0.2069 -0.0848
  267loPI   C6A 4268  11.348   1.140   7.799 -0.1200  0.1401 -0.0632
  267loPI   C1B 4269  11.787   0.639   9.478 -0.0851 -0.2710  0.0563
  267loPI   C2B 4270  11.895   0.655   9.057 -0.1701  0.0155 -0.1174
  267loPI   C3B 4271  11.803   0.512   8.762  0.0113 -0.1050 -0.2602
  267loPI   C4B 4272  11.931   0.561   8.378  0.0979 -0.1114 -0.1001
  268loPI    C1 4273  10.488   0.368  10.278 -0.0548 -0.0815  0.0347
  268loPI    C2 4274  10.411   0.524  10.639  0.3361  0.0361  0.0726
  268loPI    C3 4275  10.381   0.752  10.312 -0.0175 -0.0703  0.0261
  268loPI   PO4 4276  10.714   0.305  10.286  0.3162 -0.0153  0.1870
  268loPI   GL1 4277  11.023   0.248   9.968 -0.0365 -0.0119 -0.0691
  268loPI   GL2 4278  11.320   0.298  10.133  0.2135  0.0481  0.3721
  268loPI   C1A 4279  11.103   0.303   9.543  0.0529  0.0575 -0.0017
  268loPI   C2A 4280  11.445   0.357   9.184  0.0292  0.1754  0.2279
  268loPI   C3A 4281  11.402   0.175   8.753  0.0854 -0.1388 -0.1952
  268loPI   C4A 4282  11.431   0.146   8.328  0.0015  0.1695  0.1026
  268loPI   C5A 4283  11.752   0.226   8.052 -0.3821  0.1526 -0.0829
  268loPI   C6A 4284  12.172   0.482   7.982 -0.2117  0.2240 -0.0658
  268loPI   C1B 4285  11.546   0.247   9.790 -0.3057  0.1606 -0.0560
  268loPI   C2B 4286  11.840   0.163   9.470  0.0072  0.1419  0.1283
  268loPI   C3B 4287  11.894   0.024   8.960 -0.1185 -0.2484  0.2840
  268loPI   C4B 4288  11.943  -0.008   8.546  0.2137  0.0077  0.0524
  269loPI    C1 4289   0.397  15.526  10.715 -0.1252  0.2487 -0.0431
  269loPI    C2 4290   0.716  15.609  10.940  0.1272 -0.1489 -0.2430
  269loPI    C3 4291   0.357  15.569  11.110  0.2019  0.1727  0.0010
  269loPI   PO4 4292   0.532  15.357  10.548 -0.1157 -0.2333 -0.4081
  269loPI   GL1 4293   0.633  15.251  10.125 -0.0857  0.2570  0.2393
  269loPI   GL2 4294   0.690  14.977  10.125 -0.2209 -0.0262 -0.0991
  269loPI   C1A 4295   0.701  15.467   9.795 -0.0300  0.0025  0.2296
  269loPI   C2A 4296   0.750  15.361   9.316 -0.1510  0.0707 -0.0929
  269loPI   C3A 4297   0.803  15.395   8.878  0.1385  0.3483 -0.1746
  269loPI   C4A 4298   0.825  15.419   8.561  0.1580  0.1200 -0.3079
  269loPI   C5A 4299   0.844  15.414   8.072  0.1505  0.2270 -0.0030
  269loPI   C6A 4300   0.794  15.469   7.651 -0.0282 -0.2359 -0.1923
  269loPI   C1B 4301   0.782  14.942   9.690 -0.0392  0.0120 -0.1072
  269loPI   C2B 4302   0.762  14.864   9.212 -0.1021  0.1985 -0.1508
  269loPI   C3B 4303   0.800  14.882   8.749  0.0288 -0.0824 -0.3380
  269loPI   C4B 4304   0.887  14.948   8.271 -0.1388  0.1045 -0.1681
  270loPI    C1 4305   2.110   1.244  10.874 -0.0105 -0.0996  0.0584
  270loPI    C2 4306   2.409   1.091  11.093 -0.0917 -0.0706  0.1908
  270loPI    C3 4307   2.273   1.460  11.169 -0.0643 -0.0278  0.0357
  270loPI   PO4 4308   2.108   1.045  10.720 -0.1650 -0.1560 -0.0426
  270loPI   GL1 4309   1.834   1.008  10.329 -0.2687 -0.1351  0.3188
  270loPI   GL2 4310   1.839   0.727  10.199  0.0649 -0.0413 -0.0060
  270loPI   C1A 4311   1.548   1.122   9.945  0.0842  0.0946  0.0898
  270loPI   C2A 4312   1.433   1.057   9.487  0.1899 -0.0645  0.0523
  270loPI   C3A 4313   1.407   1.095   9.124  0.0728 -0.0344  0.0585
  270loPI   C4A 4314   1.307   1.092   8.643 -0.0934 -0.0988  0.0585
  270loPI   C5A 4315   1.311   1.357   8.243 -0.4118  0.0733  0.1087
  270loPI   C6A 4316   1.383   1.643   7.913 -0.0482 -0.0786  0.1596
  270loPI   C1B 4317   1.837   0.818   9.688  0.3303  0.1898 -0.1014
  270loPI   C2B 4318   1.858   0.892   9.195 -0.0473 -0.1144  0.1556
  270loPI   C3B 4319   1.764   0.919   8.787  0.1143  0.0572 -0.1868
  270loPI   C4B 4320   1.610   0.866   8.299  0.2498 -0.1617 -0.2310
  271loPI    C1 4321   3.684   5.768  10.901 -0.1693  0.0814  0.1918
  271loPI    C2 4322   3.425   5.840  11.197 -0.0637  0.2677  0.2405
  271loPI    C3 4323   3.772   6.038  11.183 -0.0636  0.2527 -0.0028
  271loPI   PO4 4324   3.575   5.715  10.713  0.2256 -0.2264  0.0321
  271loPI   GL1 4325   3.379   5.728  10.385 -0.0753 -0.0546  0.4161
  271loPI   GL2 4326   3.053   5.553  10.254  0.2655 -0.2280  0.0160
  271loPI   C1A 4327   3.409   5.775   9.974 -0.1910  0.1484 -0.0863
  271loPI   C2A 4328   3.294   5.943   9.597 -0.0235  0.0309  0.1033
  271loPI   C3A 4329   3.363   5.901   9.194 -0.0430  0.0802 -0.0444
  271loPI   C4A 4330   3.413   5.811   8.811 -0.2500 -0.0044 -0.0339
  271loPI   C5A 4331   3.416   5.807   8.370  0.1449  0.1715 -0.0445
  271loPI   C6A 4332   3.289   5.872   7.981 -0.1029 -0.0953 -0.0141
  271loPI   C1B 4333   2.874   5.684   9.839 -0.0865 -0.1002 -0.2741
  271loPI   C2B 4334   2.881   5.704   9.484  0.2649  0.1731  0.0931
  271loPI   C3B 4335   2.916   5.586   9.088  0.1597 -0.0568  0.0083
  271loPI   C4B 4336   3.016   5.592   8.668  0.2020 -0.0466  0.1704
  272loPI    C1 4337  11.530  14.692  10.822 -0.0210  0.0882  0.0009
  272loPI    C2 4338  11.674  14.577  11.178  0.0614  0.0280 -0.0514
  272loPI    C3 4339  11.305  14.729  11.151 -0.0787 -0.2913  0.0091
  272loPI   PO4 4340  11.703  14.807  10.716  0.1360  0.0182  0.1925
  272loPI   GL1 4341  11.854  14.763  10.329  0.2262 -0.0126  0.0901
  272loPI   GL2 4342  12.140  14.683  10.195  0.0420  0.3049  0.2292
  272loPI   C1A 4343  11.693  14.979   9.930  0.1777  0.1538 -0.1919
  272loPI   C2A 4344  11.613  14.963   9.546  0.2382 -0.1869 -0.0881
  272loPI   C3A 4345  11.648  14.978   9.103 -0.0187 -0.1151  0.2091
  272loPI   C4A 4346  11.830  15.080   8.766  0.1962  0.0584 -0.1926
  272loPI   C5A 4347  11.820  15.165   8.350 -0.0800 -0.1127 -0.0632
  272loPI   C6A 4348  11.565  14.939   8.159  0.0447 -0.0168 -0.1193
  272loPI   C1B 4349  12.125  14.724   9.764  0.1978  0.0864  0.1330
  272loPI   C2B 4350  12.139  14.743   9.252  0.0755 -0.0692 -0.3620
  272loPI   C3B 4351  12.265  14.789   8.799  0.2045  0.2772  0.0385
  272loPI   C4B 4352  12.188  14.879   8.328  0.0566  0.0085  0.2485
  273loPI    C1 4353   9.276  17.915  10.425 -0.0284  0.0084  0.1286
  273loPI    C2 4354   9.163  17.575  10.603  0.1270 -0.0920  0.0378
  273loPI    C3 4355   9.278  17.887  10.825 -0.0496 -0.0859  0.1225
  273loPI   PO4 4356   9.325  17.792  10.194 -0.0872  0.1061 -0.1805
  273loPI   GL1 4357   9.140  17.722   9.788 -0.1940  0.5719 -0.1804
  273loPI   GL2 4358   9.470  17.483   9.808  0.1398 -0.3247 -0.3493
  273loPI   C1A 4359   9.087  17.576   9.396  0.0610 -0.1884 -0.2600
  273loPI   C2A 4360   8.998  17.604   9.067 -0.0772 -0.1377 -0.1676
  273loPI   C3A 4361   8.983  17.658   8.642 -0.0573 -0.0274  0.1786
  273loPI   C4A 4362   8.861  17.756   8.223  0.3626 -0.1690 -0.4569
  273loPI   C5A 4363   9.129  17.619   7.819 -0.0084  0.2229  0.0392
  273loPI   C6A 4364   9.165  17.281   7.522  0.0948 -0.0202  0.2934
  273loPI   C1B 4365   9.581  17.453   9.348 -0.1357 -0.1645 -0.2794
  273loPI   C2B 4366   9.582  17.336   9.020  0.3528 -0.2599 -0.1086
  273loPI   C3B 4367   9.438  17.439   8.560 -0.3084  0.0418  0.2157
  273loPI   C4B 4368   9.472  17.328   8.134 -0.0360 -0.1495 -0.2197
  274loPI    C1 4369  11.459   5.929  10.254  0.1081 -0.2576 -0.1895
  274loPI    C2 4370  11.662   5.586  10.228  0.1735 -0.2267 -0.0918
  274loPI    C3 4371  11.285   5.586  10.362  0.2511 -0.2332  0.1318
  274loPI   PO4 4372  11.473   6.031  10.082 -0.0235  0.1339  0.0533
  274loPI   GL1 4373  11.791   5.811   9.761 -0.0774 -0.2129  0.2484
  274loPI   GL2 4374  11.942   5.467   9.757  0.0396 -0.1283 -0.0376
  274loPI   C1A 4375  11.569   5.663   9.429 -0.2360  0.1628 -0.2579
  274loPI   C2A 4376  11.679   5.662   9.104 -0.1025 -0.1236 -0.1460
  274loPI   C3A 4377  11.915   5.757   8.683  0.1128 -0.3317  0.0480
  274loPI   C4A 4378  12.038   5.620   8.299  0.1539 -0.0248 -0.0508
  274loPI   C5A 4379  11.921   5.442   7.851  0.1886  0.2064  0.3360
  274loPI   C6A 4380  11.724   5.348   7.456  0.0557  0.1488  0.2458
  274loPI   C1B 4381  11.890   5.293   9.364  0.1413 -0.1684  0.1890
  274loPI   C2B 4382  12.013   5.259   8.937 -0.0120 -0.3348  0.3793
  274loPI   C3B 4383  12.084   5.178   8.503 -0.1566 -0.0144  0.2121
  274loPI   C4B 4384  12.090   4.877   8.145  0.2178  0.1943 -0.1821
  275loPI    C1 4385  16.728  13.340  10.668 -0.3253 -0.1021 -0.1634
  275loPI    C2 4386  16.844  13.613  10.936 -0.3191 -0.1859 -0.0802
  275loPI    C3 4387  17.116  13.384  10.752 -0.3050  0.0126 -0.3121
  275loPI   PO4 4388  16.547  13.489  10.532  0.1087 -0.1487  0.0272
  275loPI   GL1 4389  16.537  13.642  10.142 -0.0671  0.0699  0.0576
  275loPI   GL2 4390  16.175  13.635  10.248 -0.1416 -0.1393  0.1213
  275loPI   C1A 4391  16.585  13.566   9.704  0.0132  0.1000  0.2652
  275loPI   C2A 4392  16.698  13.587   9.354 -0.0036 -0.0030 -0.0740
  275loPI   C3A 4393  16.670  13.615   8.948  0.1557  0.1331  0.1456
  275loPI   C4A 4394  16.738  13.685   8.520 -0.2220  0.1029  0.1099
  275loPI   C5A 4395  16.702  13.885   8.152 -0.0049 -0.0315  0.0565
  275loPI   C6A 4396  16.692  14.144   7.945 -0.0317 -0.0268 -0.0099
  275loPI   C1B 4397  16.180  13.397   9.900  0.3257 -0.2520 -0.1649
  275loPI   C2B 4398  16.216  13.298   9.465  0.1705 -0.0748 -0.0690
  275loPI   C3B 4399  16.256  13.301   9.084 -0.2111  0.3651 -0.2312
  275loPI   C4B 4400  16.271  13.323   8.674  0.0276 -0.2160  0.0845
  276loPI    C1 4401   4.710   1.140  10.215  0.1249 -0.0351  0.1577
  276loPI    C2 4402   5.046   1.212  10.010  0.1637 -0.2102  0.1576
  276loPI    C3 4403   5.016   1.327  10.392  0.1737 -0.0783  0.1193
  276loPI   PO4 4404   4.508   1.219  10.081  0.0982 -0.1487 -0.0179
  276loPI   GL1 4405   4.297   1.206   9.710  0.2398  0.0438  0.0297
  276loPI   GL2 4406   4.039   1.184   9.855  0.1046 -0.1521 -0.0611
  276loPI   C1A 4407   4.303   1.053   9.382 -0.2127 -0.0313  0.0161
  276loPI   C2A 4408   4.271   1.022   8.837  0.0688 -0.3578 -0.4386
  276loPI   C3A 4409   4.146   1.214   8.430 -0.3350  0.1508  0.0285
  276loPI   C4A 4410   4.151   1.025   7.992  0.0084  0.0286 -0.0868
  276loPI   C5A 4411   4.286   0.606   7.838  0.2200  0.0899  0.0298
  276loPI   C6A 4412   4.598   0.569   7.428  0.1222  0.1324  0.1582
  276loPI   C1B 4413   3.826   1.255   9.465 -0.0429  0.2412  0.0202
  276loPI   C2B 4414   3.952   1.278   9.082 -0.1289 -0.3417 -0.0733
  276loPI   C3B 4415   3.769   1.402   8.657 -0.0016  0.2769  0.1692
  276loPI   C4B 4416   3.771   1.372   8.140  0.0913 -0.0821  0.1122
  277loPI    C1 4417   3.166  17.932  10.398  0.0626  0.1764  0.2316
  277loPI    C2 4418   2.797  17.957  10.246  0.1842  0.2719 -0.0560
  277loPI    C3 4419   2.849  17.879  10.635 -0.1311 -0.2449 -0.1082
  277loPI   PO4 4420   3.309  17.797  10.221 -0.1408 -0.3132  0.0217
  277loPI   GL1 4421   3.289  17.752   9.823 -0.1151 -0.1857  0.2966
  277loPI   GL2 4422   3.387  17.465   9.749 -0.1064  0.2960  0.0380
  277loPI   C1A 4423   3.358  18.037   9.545 -0.1112 -0.7359 -0.1764
  277loPI   C2A 4424   3.296  17.961   9.051 -0.2077  0.2485 -0.0211
  277loPI   C3A 4425   3.322  17.939   8.661  0.2988  0.0926  0.0898
  277loPI   C4A 4426   3.526  18.063   8.304  0.1662 -0.0820 -0.0533
  277loPI   C5A 4427   3.747  18.141   7.899 -0.0422  0.0586  0.0381
  277loPI   C6A 4428   4.190  18.314   7.827  0.0560  0.2167 -0.0610
  277loPI   C1B 4429   3.218  17.406   9.312 -0.1953  0.0655 -0.0853
  277loPI   C2B 4430   3.114  17.499   8.936 -0.1569 -0.1502  0.4069
  277loPI   C3B 4431   3.199  17.417   8.539 -0.0655 -0.0576 -0.1597
  277loPI   C4B 4432   2.995  17.723   8.406  0.2906  0.1697  0.0876
  278loPI    C1 4433   7.792  18.108  10.406  0.0130  0.0610  0.1699
  278loPI    C2 4434   7.665  18.455  10.559  0.0974  0.0910  0.1723
  278loPI    C3 4435   7.893  18.211  10.779  0.2187  0.1339  0.0956
  278loPI   PO4 4436   7.797  18.224  10.082 -0.2720  0.2868  0.1346
  278loPI   GL1 4437   7.934  18.103   9.674 -0.0128  0.3004  0.0451
  278loPI   GL2 4438   8.048  17.743   9.553 -0.0463  0.0674 -0.2429
  278loPI   C1A 4439   8.004  18.141   9.208  0.0148  0.1410  0.2243
  278loPI   C2A 4440   8.064  18.103   8.814 -0.0581 -0.1010  0.0564
  278loPI   C3A 4441   7.959  18.182   8.450  0.2395  0.2327 -0.3128
  278loPI   C4A 4442   7.801  18.095   8.162 -0.1840  0.1871 -0.1652
  278loPI   C5A 4443   7.518  18.312   7.912  0.1473  0.1896 -0.2714
  278loPI   C6A 4444   7.442  18.628   7.651 -0.2886  0.0813 -0.1425
  278loPI   C1B 4445   8.001  17.589   9.155  0.1079  0.1284  0.2480
  278loPI   C2B 4446   8.156  17.609   8.810 -0.0083  0.0829  0.0252
  278loPI   C3B 4447   8.019  17.613   8.403  0.0125 -0.0280 -0.1789
  278loPI   C4B 4448   8.120  17.666   7.982  0.0144  0.1855 -0.2154
  279loPI    C1 4449  15.508   2.259  11.054  0.0888  0.1318  0.1010
  279loPI    C2 4450  15.846   2.472  11.043  0.1878 -0.0303 -0.0357
  279loPI    C3 4451  15.811   2.165  11.297  0.1212  0.0214  0.0182
  279loPI   PO4 4452  15.395   2.199  10.855  0.1265 -0.2560  0.0496
  279loPI   GL1 4453  15.308   2.024  10.406 -0.0365 -0.1246 -0.0002
  279loPI   GL2 4454  15.227   2.295  10.280 -0.0913  0.3312 -0.0817
  279loPI   C1A 4455  15.539   1.897   9.969 -0.4187 -0.2932  0.1009
  279loPI   C2A 4456  15.544   1.970   9.574  0.0889 -0.0618 -0.1043
  279loPI   C3A 4457  15.492   1.944   9.147 -0.1684 -0.0069  0.1611
  279loPI   C4A 4458  15.501   2.007   8.716  0.0098 -0.0875  0.0488
  279loPI   C5A 4459  15.436   2.186   8.336  0.1950  0.0717  0.0397
  279loPI   C6A 4460  15.122   2.034   8.003  0.0648  0.0148  0.0610
  279loPI   C1B 4461  15.550   2.448  10.018  0.0981 -0.0101  0.1102
  279loPI   C2B 4462  15.534   2.459   9.557  0.0402  0.0225  0.2910
  279loPI   C3B 4463  15.633   2.559   9.083  0.0791 -0.0601 -0.0388
  279loPI   C4B 4464  15.593   2.488   8.683 -0.3509  0.3864  0.0803
  280loPI    C1 4465   2.103  12.996  10.377  0.1386 -0.0395 -0.1629
  280loPI    C2 4466   2.126  12.700  10.645  0.1384  0.0595 -0.0528
  280loPI    C3 4467   2.283  13.059  10.728  0.1130  0.0993 -0.1738
  280loPI   PO4 4468   1.790  12.983  10.340  0.1264 -0.0754 -0.0188
  280loPI   GL1 4469   1.539  12.993  10.026 -0.2409 -0.0381  0.4610
  280loPI   GL2 4470   1.495  13.303  10.003 -0.2747 -0.2194 -0.0539
  280loPI   C1A 4471   1.710  12.840   9.540  0.1848  0.1240  0.1592
  280loPI   C2A 4472   1.692  12.872   9.084 -0.0672  0.0347  0.0272
  280loPI   C3A 4473   1.658  12.781   8.638  0.0459  0.1929 -0.1806
  280loPI   C4A 4474   1.470  12.609   8.225 -0.4209 -0.0659 -0.4109
  280loPI   C5A 4475   1.043  12.609   7.992 -0.3932  0.1013 -0.0900
  280loPI   C6A 4476   0.843  12.911   7.633  0.3059  0.2316 -0.0900
  280loPI   C1B 4477   1.613  13.352   9.588  0.0230  0.2330  0.1082
  280loPI   C2B 4478   1.708  13.377   9.218 -0.2012 -0.0204  0.2326
  280loPI   C3B 4479   1.770  13.329   8.785 -0.0486  0.2280  0.0301
  280loPI   C4B 4480   1.610  13.201   8.358  0.0877 -0.0147  0.0156
  281loPI    C1 4481  13.856  15.801  10.957  0.0025  0.0455  0.1826
  281loPI    C2 4482  13.909  16.027  11.282  0.2655  0.0403  0.1457
  281loPI    C3 4483  14.006  15.639  11.290 -0.0509 -0.0410  0.1647
  281loPI   PO4 4484  14.012  15.834  10.700  0.0002 -0.0451 -0.0811
  281loPI   GL1 4485  13.843  15.876  10.379  0.1451 -0.2020  0.0749
  281loPI   GL2 4486  13.877  15.496  10.278  0.1025  0.2258  0.2171
  281loPI   C1A 4487  13.953  15.769   9.852  0.1599 -0.0755 -0.3788
  281loPI   C2A 4488  14.041  15.762   9.473 -0.0764  0.5274  0.0005
  281loPI   C3A 4489  14.011  15.654   9.048  0.1042 -0.1049  0.0612
  281loPI   C4A 4490  14.026  15.862   8.613 -0.0205 -0.3644 -0.2757
  281loPI   C5A 4491  13.869  15.827   8.252 -0.0117  0.2390  0.2218
  281loPI   C6A 4492  14.031  15.977   7.806 -0.2576  0.0975  0.1597
  281loPI   C1B 4493  13.913  15.244   9.856  0.2554 -0.2535 -0.0188
  281loPI   C2B 4494  13.826  15.214   9.390  0.0553 -0.1152  0.1115
  281loPI   C3B 4495  13.924  15.153   9.018  0.0997 -0.3827  0.2549
  281loPI   C4B 4496  13.913  15.230   8.530 -0.4862 -0.0505 -0.1244
  282loPI    C1 4497  16.204   3.110  10.905  0.1335 -0.1170 -0.2851
  282loPI    C2 4498  16.422   3.052  11.235 -0.1006  0.0104 -0.1061
  282loPI    C3 4499  16.544   3.314  10.959  0.0035  0.0375 -0.0352
  282loPI   PO4 4500  16.169   2.850  10.820 -0.0152 -0.1486 -0.1638
  282loPI   GL1 4501  15.889   2.644  10.558 -0.0516 -0.0420 -0.3773
  282loPI   GL2 4502  15.659   2.394  10.512 -0.0496 -0.2767 -0.2100
  282loPI   C1A 4503  16.018   2.654  10.117  0.0868 -0.2698  0.1795
  282loPI   C2A 4504  16.009   2.679   9.628  0.2849 -0.1391  0.1985
  282loPI   C3A 4505  16.096   2.753   9.245  0.0328 -0.0197  0.0974
  282loPI   C4A 4506  16.040   2.776   8.772 -0.2204  0.1553  0.3270
  282loPI   C5A 4507  16.228   2.592   8.412  0.1360  0.2900  0.4088
  282loPI   C6A 4508  16.497   2.304   8.233  0.0929  0.0324  0.1625
  282loPI   C1B 4509  15.921   2.168  10.228  0.2136  0.3969  0.3251
  282loPI   C2B 4510  16.000   2.094   9.759  0.0443 -0.2257 -0.1252
  282loPI   C3B 4511  15.942   2.242   9.329 -0.2262  0.0107 -0.0804
  282loPI   C4B 4512  16.089   2.291   8.913 -0.2012  0.0428  0.2031
  283loPI    C1 4513   5.481  14.338  10.214 -0.1751 -0.2774 -0.2101
  283loPI    C2 4514   5.533  14.432  10.599 -0.2644  0.0168 -0.2671
  283loPI    C3 4515   5.614  14.062  10.471 -0.1304 -0.0534  0.0117
  283loPI   PO4 4516   5.563  14.633  10.091  0.1863 -0.4651 -0.2025
  283loPI   GL1 4517   5.702  14.794   9.775  0.2465  0.1200  0.1363
  283loPI   GL2 4518   6.064  14.818   9.895  0.1306 -0.0311 -0.0242
  283loPI   C1A 4519   5.849  14.522   9.418 -0.3588  0.1377 -0.1161
  283loPI   C2A 4520   5.886  14.543   9.055  0.1808  0.3996 -0.1514
  283loPI   C3A 4521   5.801  14.585   8.618  0.1029  0.0752 -0.1199
  283loPI   C4A 4522   5.804  14.647   8.270 -0.1675  0.0880  0.1168
  283loPI   C5A 4523   5.561  14.906   7.976  0.2082  0.1953  0.1964
  283loPI   C6A 4524   5.350  14.928   7.603  0.1600 -0.0419 -0.1150
  283loPI   C1B 4525   6.255  14.842   9.445 -0.2736  0.0061  0.2128
  283loPI   C2B 4526   6.326  14.845   9.029  0.0511  0.0779 -0.1036
  283loPI   C3B 4527   6.250  14.815   8.560 -0.3647  0.0744  0.0116
  283loPI   C4B 4528   6.287  14.786   8.133  0.2828 -0.2793 -0.1887
  284loPI    C1 4529  14.834  10.948  10.522 -0.3763  0.1389  0.2611
  284loPI    C2 4530  14.931  11.277  10.727  0.0572  0.1815  0.0002
  284loPI    C3 4531  15.109  10.930  10.812  0.2267  0.1957 -0.2851
  284loPI   PO4 4532  14.816  11.016  10.260  0.1962 -0.0439 -0.0436
  284loPI   GL1 4533  14.871  11.053   9.775 -0.0034 -0.0596 -0.1697
  284loPI   GL2 4534  15.105  11.314   9.727  0.0898 -0.0858  0.2179
  284loPI   C1A 4535  15.065  10.673   9.636  0.0696  0.0492 -0.1483
  284loPI   C2A 4536  15.272  10.487   9.359 -0.1680 -0.4060 -0.0240
  284loPI   C3A 4537  15.251  10.448   8.929  0.0567  0.0341  0.0757
  284loPI   C4A 4538  15.255  10.317   8.589 -0.0067  0.2701  0.2125
  284loPI   C5A 4539  15.389  10.337   8.134 -0.1890  0.0475  0.0425
  284loPI   C6A 4540  15.199  10.068   7.846  0.1544  0.2850  0.3991
  284loPI   C1B 4541  15.209  11.101   9.352 -0.0253  0.1659 -0.1075
  284loPI   C2B 4542  15.165  11.056   8.871 -0.1592 -0.1245 -0.0644
  284loPI   C3B 4543  15.281  10.854   8.553  0.0836 -0.0425  0.0591
  284loPI   C4B 4544  15.205  10.799   8.205 -0.1485 -0.2645  0.2612
  285loPI    C1 4545   6.647  17.704  10.269 -0.1632 -0.1462  0.0545
  285loPI    C2 4546   6.595  17.627  10.658  0.0063  0.3859  0.1917
  285loPI    C3 4547   6.333  17.859  10.464 -0.1009  0.0874 -0.0273
  285loPI   PO4 4548   6.700  17.491  10.106  0.2333 -0.0277  0.1473
  285loPI   GL1 4549   6.906  17.304   9.811  0.1235 -0.1087  0.3238
  285loPI   GL2 4550   7.026  17.633   9.742 -0.1751 -0.0822 -0.1602
  285loPI   C1A 4551   7.017  17.005   9.512  0.1193  0.2710  0.0545
  285loPI   C2A 4552   7.156  17.004   9.113 -0.3611 -0.1071 -0.0499
  285loPI   C3A 4553   7.152  17.086   8.614 -0.0587 -0.2836 -0.0454
  285loPI   C4A 4554   7.241  17.020   8.164 -0.0037  0.1599 -0.0471
  285loPI   C5A 4555   7.154  17.367   7.823 -0.2197  0.4141  0.0512
  285loPI   C6A 4556   6.863  17.742   7.829 -0.1548  0.0339  0.0269
  285loPI   C1B 4557   7.169  17.495   9.373 -0.1294 -0.0847 -0.1525
  285loPI   C2B 4558   7.234  17.514   8.917  0.0385  0.0122  0.1398
  285loPI   C3B 4559   6.931  17.724   8.651  0.0868 -0.0504  0.1757
  285loPI   C4B 4560   6.995  17.567   8.284  0.0162 -0.1471 -0.1298
  286loPI    C1 4561   5.001   5.887  10.519 -0.0586 -0.2969 -0.0083
  286loPI    C2 4562   5.240   5.733  10.800  0.1203  0.1331  0.0831
  286loPI    C3 4563   4.847   5.764  10.867  0.0733 -0.3113  0.0455
  286loPI   PO4 4564   5.203   6.085  10.473  0.0506  0.1384 -0.0952
  286loPI   GL1 4565   5.392   6.268  10.130  0.2824  0.1692  0.0996
  286loPI   GL2 4566   5.722   6.234  10.224  0.2793 -0.1739 -0.0687
  286loPI   C1A 4567   5.158   6.315   9.843 -0.1086 -0.1334 -0.0226
  286loPI   C2A 4568   5.274   6.457   9.424  0.0029 -0.3665 -0.1779
  286loPI   C3A 4569   5.287   6.308   9.107  0.2388  0.2390 -0.0578
  286loPI   C4A 4570   5.343   6.382   8.767 -0.0555 -0.0011  0.1668
  286loPI   C5A 4571   5.154   6.085   8.368 -0.2182 -0.0342 -0.1232
  286loPI   C6A 4572   5.309   5.848   8.113 -0.2071 -0.0090 -0.2574
  286loPI   C1B 4573   5.665   5.983   9.741 -0.0372  0.0564 -0.0813
  286loPI   C2B 4574   5.653   6.057   9.286 -0.2811 -0.1333  0.1913
  286loPI   C3B 4575   5.820   6.073   8.818  0.0222  0.1359 -0.4098
  286loPI   C4B 4576   5.747   6.091   8.405  0.0835  0.4729 -0.1469
  287loPI    C1 4577   3.861   3.529  10.989  0.2449  0.2227 -0.0575
  287loPI    C2 4578   3.613   3.837  10.924 -0.1580 -0.1099 -0.1425
  287loPI    C3 4579   3.741   3.758  11.295  0.0461  0.2263 -0.1366
  287loPI   PO4 4580   4.058   3.586  10.747  0.2494 -0.1119 -0.1174
  287loPI   GL1 4581   4.150   3.692  10.266  0.3040  0.1234 -0.1546
  287loPI   GL2 4582   4.513   3.614  10.199 -0.0001 -0.1410  0.0309
  287loPI   C1A 4583   3.972   3.744   9.893  0.0149 -0.1914 -0.0459
  287loPI   C2A 4584   3.937   3.736   9.512 -0.0940  0.2749  0.0616
  287loPI   C3A 4585   3.950   3.927   9.043  0.0310  0.0777 -0.0461
  287loPI   C4A 4586   3.906   4.104   8.549  0.0029  0.5149 -0.0640
  287loPI   C5A 4587   3.758   3.911   8.222  0.1508 -0.0720  0.1268
  287loPI   C6A 4588   3.817   3.885   7.689 -0.0026  0.1639  0.0714
  287loPI   C1B 4589   4.397   3.527   9.740 -0.3237  0.2884 -0.0926
  287loPI   C2B 4590   4.397   3.605   9.301 -0.1729  0.0281 -0.1254
  287loPI   C3B 4591   4.370   3.758   8.808  0.1067  0.0756  0.1746
  287loPI   C4B 4592   4.332   3.923   8.363  0.1279  0.2988 -0.3106
  288loPI    C1 4593  13.890  14.745  10.727  0.2123 -0.1406  0.3144
  288loPI    C2 4594  13.833  14.500  10.416  0.2226  0.0870  0.1301
  288loPI    C3 4595  14.203  14.611  10.518  0.2191  0.0146  0.2230
  288loPI   PO4 4596  13.629  14.883  10.724  0.0428  0.0043 -0.1138
  288loPI   GL1 4597  13.522  15.089  10.311  0.0178 -0.0145 -0.0423
  288loPI   GL2 4598  13.630  14.847  10.088 -0.1179 -0.0121  0.1391
  288loPI   C1A 4599  13.458  15.496  10.018 -0.1374  0.0285 -0.0565
  288loPI   C2A 4600  13.571  15.560   9.653  0.1434  0.2791  0.1806
  288loPI   C3A 4601  13.563  15.600   9.230 -0.0512 -0.2269 -0.4298
  288loPI   C4A 4602  13.632  15.531   8.792  0.1612 -0.1505 -0.0387
  288loPI   C5A 4603  13.466  15.431   8.369 -0.3917 -0.2281  0.2038
  288loPI   C6A 4604  13.158  15.243   8.108  0.1721  0.0686 -0.2323
  288loPI   C1B 4605  13.598  14.761   9.622 -0.2221 -0.0492 -0.0026
  288loPI   C2B 4606  13.540  14.820   9.228  0.0081  0.1118 -0.3234
  288loPI   C3B 4607  13.610  14.801   8.742  0.1692 -0.0458  0.1134
  288loPI   C4B 4608  13.559  14.959   8.311 -0.2900 -0.1768  0.0138
  289loPI    C1 4609  12.169  13.043  10.311  0.2846  0.0227 -0.0905
  289loPI    C2 4610  12.119  13.159  10.691  0.1368  0.0031 -0.1035
  289loPI    C3 4611  12.444  12.950  10.586 -0.0604 -0.4275  0.1158
  289loPI   PO4 4612  12.050  13.216  10.146  0.3204  0.0352  0.0715
  289loPI   GL1 4613  11.896  13.143   9.693  0.1433  0.0550 -0.0647
  289loPI   GL2 4614  11.687  13.306   9.802  0.4649  0.1542 -0.2774
  289loPI   C1A 4615  12.025  13.060   9.289  0.0140  0.1892  0.1399
  289loPI   C2A 4616  11.994  13.117   8.969 -0.0727 -0.0588  0.0171
  289loPI   C3A 4617  12.237  13.197   8.543 -0.0650  0.1897  0.0994
  289loPI   C4A 4618  12.248  13.113   8.079 -0.2325  0.3786 -0.0130
  289loPI   C5A 4619  12.327  12.779   7.765  0.0410  0.1514 -0.1241
  289loPI   C6A 4620  12.377  12.576   7.387 -0.0952  0.2503 -0.1139
  289loPI   C1B 4621  11.734  13.445   9.334 -0.0076  0.0473  0.0466
  289loPI   C2B 4622  11.735  13.481   8.826 -0.2160  0.4424 -0.0233
  289loPI   C3B 4623  11.719  13.522   8.400  0.2641  0.0619 -0.2312
  289loPI   C4B 4624  11.706  13.350   8.030 -0.0559  0.0561  0.0872
  290loPI    C1 4625   9.803   5.506  10.239 -0.0739  0.1088  0.0643
  290loPI    C2 4626  10.132   5.448  10.459 -0.0541  0.1222  0.0386
  290loPI    C3 4627   9.772   5.448  10.633 -0.0549 -0.0751  0.0400
  290loPI   PO4 4628   9.848   5.399  10.012 -0.0262 -0.0406 -0.1043
  290loPI   GL1 4629  10.149   5.421   9.638 -0.1108  0.1268  0.1162
  290loPI   GL2 4630   9.870   5.570   9.564  0.1679  0.3107  0.0720
  290loPI   C1A 4631  10.257   5.577   9.250  0.4026 -0.0663 -0.2014
  290loPI   C2A 4632  10.211   5.544   8.811  0.2675  0.4775 -0.0063
  290loPI   C3A 4633  10.199   5.524   8.330  0.2314  0.1013  0.0651
  290loPI   C4A 4634  10.218   5.497   7.852 -0.0272 -0.0034 -0.1827
  290loPI   C5A 4635  10.373   5.213   7.451  0.3974  0.2291 -0.3104
  290loPI   C6A 4636  10.496   4.840   7.247 -0.2235 -0.3140 -0.2352
  290loPI   C1B 4637   9.793   5.357   9.293  0.1792  0.1754 -0.1071
  290loPI   C2B 4638   9.762   5.348   8.816 -0.3400 -0.4467  0.1406
  290loPI   C3B 4639   9.749   5.287   8.397  0.1567  0.0818  0.0793
  290loPI   C4B 4640   9.802   5.254   8.004 -0.2181 -0.3358 -0.1914
  291loPI    C1 4641   4.675  14.381  10.397 -0.1355 -0.1955  0.0391
  291loPI    C2 4642   4.990  14.519  10.602 -0.0566  0.3131 -0.4037
  291loPI    C3 4643   4.674  14.371  10.797  0.4133 -0.1323  0.0499
  291loPI   PO4 4644   4.804  14.169  10.286 -0.0406  0.2925  0.3668
  291loPI   GL1 4645   5.017  14.091   9.874 -0.0945 -0.3043  0.2879
  291loPI   GL2 4646   5.368  14.298   9.716  0.0286  0.1552 -0.3294
  291loPI   C1A 4647   4.883  14.050   9.518 -0.2375 -0.1834 -0.1340
  291loPI   C2A 4648   4.866  14.028   9.145 -0.3708  0.0070  0.1815
  291loPI   C3A 4649   4.889  13.984   8.694 -0.0375 -0.2049  0.1217
  291loPI   C4A 4650   4.832  13.894   8.284 -0.0199 -0.1899  0.2235
  291loPI   C5A 4651   4.994  13.610   7.909  0.1950  0.1481 -0.0391
  291loPI   C6A 4652   4.906  13.139   7.842 -0.2141  0.6424  0.1339
  291loPI   C1B 4653   5.363  14.257   9.336 -0.0637 -0.0395 -0.0122
  291loPI   C2B 4654   5.410  14.292   8.822 -0.0200 -0.4297 -0.0039
  291loPI   C3B 4655   5.276  14.258   8.343  0.1186 -0.0674 -0.1968
  291loPI   C4B 4656   5.280  14.014   7.960  0.0119 -0.1427  0.0747
  292loPI    C1 4657  15.705   7.775  10.701 -0.2178  0.1219  0.2372
  292loPI    C2 4658  16.032   7.868  10.913 -0.2641  0.3040  0.2304
  292loPI    C3 4659  15.679   7.828  11.097 -0.2198 -0.0044  0.2545
  292loPI   PO4 4660  15.635   7.986  10.445 -0.4695 -0.1622 -0.0747
  292loPI   GL1 4661  15.778   8.172  10.027 -0.2489 -0.0042 -0.2665
  292loPI   GL2 4662  15.561   8.254   9.804 -0.1078 -0.3138  0.0220
  292loPI   C1A 4663  16.013   8.164   9.626  0.0859  0.0436  0.0306
  292loPI   C2A 4664  16.003   8.077   9.199 -0.0304  0.0465 -0.1623
  292loPI   C3A 4665  16.188   8.066   8.811 -0.1671  0.0170  0.0841
  292loPI   C4A 4666  16.298   8.243   8.453  0.0165  0.2275 -0.0532
  292loPI   C5A 4667  16.208   8.088   8.030  0.0203 -0.0777  0.2354
  292loPI   C6A 4668  16.180   7.938   7.763  0.1127  0.2138 -0.0413
  292loPI   C1B 4669  15.501   8.057   9.380 -0.1569 -0.0163  0.1535
  292loPI   C2B 4670  15.681   7.891   8.905  0.1448 -0.0637  0.2823
  292loPI   C3B 4671  15.829   7.769   8.486 -0.0800  0.1190  0.0053
  292loPI   C4B 4672  16.128   7.788   8.371 -0.0816 -0.3595 -0.1056
  293loPI    C1 4673  14.188  16.440  11.031 -0.5447  0.3226  0.2398
  293loPI    C2 4674  14.432  16.687  11.231 -0.0021 -0.1357  0.1690
  293loPI    C3 4675  14.313  16.344  11.399 -0.2585 -0.1138  0.0373
  293loPI   PO4 4676  14.272  16.445  10.747  0.0638  0.2481  0.2152
  293loPI   GL1 4677  14.095  16.308  10.438  0.2910 -0.0295  0.1128
  293loPI   GL2 4678  14.331  16.071  10.453  0.0243  0.4208 -0.0331
  293loPI   C1A 4679  14.020  16.289  10.051  0.1124  0.1447 -0.0009
  293loPI   C2A 4680  14.017  16.282   9.682  0.3058  0.0317  0.1451
  293loPI   C3A 4681  13.987  16.183   9.253  0.1814  0.1671 -0.0791
  293loPI   C4A 4682  14.051  16.277   8.844  0.1138 -0.0900  0.0849
  293loPI   C5A 4683  14.232  16.293   8.377  0.2721 -0.0443  0.0517
  293loPI   C6A 4684  14.572  16.105   8.366 -0.2901  0.1730 -0.0342
  293loPI   C1B 4685  14.374  15.939  10.069 -0.0694  0.0860 -0.2285
  293loPI   C2B 4686  14.474  15.946   9.688 -0.0046  0.0771 -0.2673
  293loPI   C3B 4687  14.479  15.925   9.271  0.0963 -0.0298 -0.2813
  293loPI   C4B 4688  14.483  15.981   8.913  0.1733 -0.0505  0.0638
  294loPI    C1 4689   0.297  12.767  10.648  0.1753 -0.0564 -0.2539
  294loPI    C2 4690   0.390  13.115  10.822 -0.2688 -0.0080 -0.1015
  294loPI    C3 4691   0.642  12.806  10.847  0.0406  0.2417 -0.0712
  294loPI   PO4 4692   0.215  12.795  10.443  0.1333  0.1349  0.0237
  294loPI   GL1 4693  -0.208  12.699  10.300  0.0801  0.0730  0.3467
  294loPI   GL2 4694  -0.594  12.435  10.079 -0.0793 -0.0023  0.1011
  294loPI   C1A 4695  -0.195  12.734   9.906 -0.0020  0.6288 -0.3330
  294loPI   C2A 4696  -0.036  12.764   9.503 -0.2992 -0.3001 -0.0743
  294loPI   C3A 4697  -0.098  12.749   9.111  0.0240 -0.1951 -0.0560
  294loPI   C4A 4698  -0.208  12.848   8.670  0.2085  0.0822 -0.0359
  294loPI   C5A 4699  -0.290  12.887   8.290 -0.1573 -0.0944 -0.2314
  294loPI   C6A 4700  -0.369  12.980   7.856  0.1442  0.2104 -0.0528
  294loPI   C1B 4701  -0.567  12.534   9.612 -0.1278 -0.2011 -0.0354
  294loPI   C2B 4702  -0.559  12.551   9.176  0.0625 -0.2816 -0.1033
  294loPI   C3B 4703  -0.647  12.565   8.784  0.0670 -0.1554  0.0506
  294loPI   C4B 4704  -0.730  12.607   8.283 -0.1351 -0.2487  0.0966
  295loPI    C1 4705  12.832   0.830  11.039  0.1198  0.0369  0.0226
  295loPI    C2 4706  12.832   0.441  10.947  0.2357  0.0261  0.0674
  295loPI    C3 4707  12.489   0.646  10.946  0.1668 -0.0880  0.0943
  295loPI   PO4 4708  13.007   0.894  10.862  0.3601 -0.1642 -0.2135
  295loPI   GL1 4709  13.164   1.058  10.474  0.2430  0.0470  0.3506
  295loPI   GL2 4710  13.105   1.339  10.286  0.1692  0.2386  0.2283
  295loPI   C1A 4711  13.437   0.946  10.141 -0.0537 -0.2889  0.1994
  295loPI   C2A 4712  13.547   1.045   9.822 -0.2881 -0.0405 -0.3628
  295loPI   C3A 4713  13.697   1.076   9.329  0.1380  0.0765  0.1895
  295loPI   C4A 4714  13.621   1.087   8.851 -0.0875 -0.2079 -0.0909
  295loPI   C5A 4715  13.790   1.108   8.490 -0.0346  0.0770  0.3247
  295loPI   C6A 4716  14.193   1.184   8.367  0.1226 -0.1085  0.0369
  295loPI   C1B 4717  13.134   1.287   9.874  0.0700  0.3159 -0.0029
  295loPI   C2B 4718  13.211   1.304   9.476  0.0182  0.3722  0.1216
  295loPI   C3B 4719  13.286   1.376   9.146  0.0736  0.0644 -0.3455
  295loPI   C4B 4720  13.185   1.290   8.648  0.1153 -0.1494 -0.0075
  296loPI    C1 4721  11.522  13.339  10.332 -0.0992 -0.0486 -0.0948
  296loPI    C2 4722  11.324  13.254  10.669  0.1417 -0.0717  0.0431
  296loPI    C3 4723  11.649  13.043  10.569  0.1099 -0.0213 -0.1707
  296loPI   PO4 4724  11.314  13.389  10.186  0.1144  0.0458 -0.2107
  296loPI   GL1 4725  11.055  13.444   9.898  0.4767 -0.2327  0.1555
  296loPI   GL2 4726  10.828  13.276   9.881 -0.1032  0.0001  0.0234
  296loPI   C1A 4727  11.250  13.561   9.559  0.0105  0.2938  0.4314
  296loPI   C2A 4728  11.285  13.707   9.140  0.3161  0.2053 -0.1724
  296loPI   C3A 4729  11.229  13.623   8.740  0.0265 -0.3292  0.2228
  296loPI   C4A 4730  11.296  13.846   8.358 -0.1080 -0.1333 -0.3231
  296loPI   C5A 4731  11.414  13.830   7.859 -0.2854  0.1396 -0.0271
  296loPI   C6A 4732  11.527  13.850   7.428  0.0908 -0.2558  0.1544
  296loPI   C1B 4733  10.864  13.252   9.465 -0.1082  0.3733  0.1166
  296loPI   C2B 4734  10.843  13.279   9.071  0.0397  0.3555 -0.1248
  296loPI   C3B 4735  10.750  13.328   8.746  0.2840  0.1406  0.1441
  296loPI   C4B 4736  10.782  13.497   8.394 -0.0179  0.0642 -0.2701
  297loPI    C1 4737   3.827   1.046  10.439 -0.0221 -0.0404 -0.0287
  297loPI    C2 4738   4.071   1.341  10.322 -0.0353 -0.0369 -0.0475
  297loPI    C3 4739   3.998   1.284  10.711  0.0067 -0.0469 -0.0409
  297loPI   PO4 4740   3.664   1.070  10.185  0.1569 -0.1100 -0.4149
  297loPI   GL1 4741   3.286   1.030  10.081  0.1111  0.2718 -0.0896
  297loPI   GL2 4742   3.342   0.696  10.078  0.0953  0.3530 -0.2860
  297loPI   C1A 4743   3.232   1.252   9.737  0.1476  0.0467  0.1123
  297loPI   C2A 4744   3.316   1.155   9.316 -0.0413 -0.1654  0.1053
  297loPI   C3A 4745   3.354   1.209   8.881  0.1831 -0.1494  0.2068
  297loPI   C4A 4746   3.264   1.194   8.523  0.0352 -0.0258  0.1008
  297loPI   C5A 4747   3.208   1.216   8.116 -0.0103 -0.2370  0.0266
  297loPI   C6A 4748   2.952   1.465   7.828 -0.0645  0.1347  0.0911
  297loPI   C1B 4749   3.434   0.794   9.616  0.1504  0.2720 -0.0757
  297loPI   C2B 4750   3.322   0.697   9.141 -0.0864 -0.0390  0.1309
  297loPI   C3B 4751   3.253   0.710   8.712  0.1602  0.0272 -0.1027
  297loPI   C4B 4752   3.020   0.735   8.312  0.0408  0.1635  0.2883
  298loPI    C1 4753  10.071   2.053  10.446 -0.3183 -0.2193  0.0969
  298loPI    C2 4754   9.679   2.136  10.444 -0.2203  0.2720 -0.0858
  298loPI    C3 4755   9.896   2.201  10.774 -0.2380  0.2797 -0.0757
  298loPI   PO4 4756  10.100   2.051  10.199 -0.2087 -0.5043 -0.1802
  298loPI   GL1 4757  10.454   2.108   9.946 -0.4744 -0.0013  0.0328
  298loPI   GL2 4758  10.191   2.326   9.824 -0.4999 -0.0114  0.3693
  298loPI   C1A 4759  10.505   1.918   9.518 -0.3100 -0.0606 -0.4186
  298loPI   C2A 4760  10.426   1.835   9.141 -0.3708  0.2582  0.3820
  298loPI   C3A 4761  10.450   1.627   8.717 -0.2664  0.2541 -0.1598
  298loPI   C4A 4762  10.371   1.648   8.290  0.0638  0.1373 -0.0509
  298loPI   C5A 4763  10.067   1.335   8.083 -0.2510  0.4304 -0.2445
  298loPI   C6A 4764   9.785   1.117   8.277 -0.1032  0.1190 -0.0935
  298loPI   C1B 4765  10.236   2.303   9.374 -0.0213 -0.1033 -0.2002
  298loPI   C2B 4766  10.256   2.190   8.879 -0.0124  0.0084  0.3060
  298loPI   C3B 4767  10.180   2.087   8.416  0.0483 -0.0215  0.1611
  298loPI   C4B 4768  10.374   2.158   8.032  0.0010  0.1420  0.3135
  299loPI    C1 4769   5.925  16.550  10.586  0.1193 -0.0302  0.0516
  299loPI    C2 4770   5.804  16.184  10.481 -0.4338  0.1507  0.0304
  299loPI    C3 4771   5.903  16.260  10.861  0.2447 -0.1569 -0.0705
  299loPI   PO4 4772   6.088  16.622  10.297 -0.1341 -0.0365 -0.0404
  299loPI   GL1 4773   6.311  16.410   9.970 -0.1381  0.0951  0.1017
  299loPI   GL2 4774   6.624  16.291   9.938  0.0300 -0.2139  0.3512
  299loPI   C1A 4775   6.430  16.500   9.523  0.4266 -0.2305 -0.0675
  299loPI   C2A 4776   6.424  16.467   9.125 -0.4990 -0.0423  0.4043
  299loPI   C3A 4777   6.287  16.444   8.715  0.1485  0.1129 -0.0915
  299loPI   C4A 4778   6.307  16.568   8.312  0.1984 -0.1137  0.2037
  299loPI   C5A 4779   6.448  16.585   7.929  0.2043 -0.1757  0.2813
  299loPI   C6A 4780   6.233  16.472   7.536 -0.1278 -0.1068 -0.2221
  299loPI   C1B 4781   6.734  16.135   9.497  0.0361 -0.2014 -0.0383
  299loPI   C2B 4782   6.715  16.105   9.032 -0.1174 -0.2022  0.3867
  299loPI   C3B 4783   6.804  16.105   8.597  0.1819 -0.1481 -0.2482
  299loPI   C4B 4784   6.576  16.165   8.298 -0.1263 -0.2738  0.1390
  300loPI    C1 4785   3.639   8.957  10.663 -0.0213 -0.2539  0.0711
  300loPI    C2 4786   3.900   9.242  10.766 -0.1737 -0.0024 -0.2208
  300loPI    C3 4787   4.021   8.931  10.546 -0.0300 -0.1125  0.0094
  300loPI   PO4 4788   3.461   9.122  10.489 -0.6112 -0.1568 -0.3891
  300loPI   GL1 4789   3.458   9.184  10.122 -0.0608 -0.0454  0.0106
  300loPI   GL2 4790   3.805   9.273  10.038  0.1571 -0.4488  0.0167
  300loPI   C1A 4791   3.352   9.017   9.679  0.0078 -0.1035 -0.0595
  300loPI   C2A 4792   3.028   8.749   9.362  0.1663 -0.1841 -0.1310
  300loPI   C3A 4793   2.970   8.749   8.898  0.1611  0.0637  0.0167
  300loPI   C4A 4794   3.009   8.652   8.518 -0.1521 -0.1016  0.0275
  300loPI   C5A 4795   3.333   8.592   8.177  0.2283  0.0736 -0.2017
  300loPI   C6A 4796   3.595   8.574   7.899  0.1264 -0.1993 -0.0586
  300loPI   C1B 4797   3.833   9.123   9.706 -0.2133  0.0437 -0.2501
  300loPI   C2B 4798   3.800   8.898   9.441  0.2286 -0.2078  0.0389
  300loPI   C3B 4799   3.868   8.818   9.072 -0.1629  0.4138 -0.3704
  300loPI   C4B 4800   3.770   8.631   8.650 -0.0381 -0.3363 -0.0470
  301loPI    C1 4801   6.751  11.494  10.722  0.1785 -0.0134  0.0201
  301loPI    C2 4802   6.997  11.440  11.032 -0.0155  0.1655  0.2085
  301loPI    C3 4803   6.688  11.692  11.063 -0.1527  0.0359 -0.0657
  301loPI   PO4 4804   6.922  11.518  10.466  0.0697  0.0846 -0.0981
  301loPI   GL1 4805   6.922  11.419  10.016  0.0799 -0.0543  0.2219
  301loPI   GL2 4806   6.643  11.334  10.025  0.1085  0.1569 -0.1173
  301loPI   C1A 4807   7.135  11.121   9.735  0.0918  0.1366 -0.0181
  301loPI   C2A 4808   7.116  11.062   9.382  0.3033 -0.0906  0.2359
  301loPI   C3A 4809   7.149  11.032   9.028  0.2125 -0.0666  0.4308
  301loPI   C4A 4810   7.258  11.093   8.626 -0.3717 -0.2705  0.0775
  301loPI   C5A 4811   6.964  11.101   8.388  0.1005 -0.1208  0.5833
  301loPI   C6A 4812   6.700  10.782   8.201 -0.5065  0.2724  0.2151
  301loPI   C1B 4813   6.614  11.428   9.653  0.2256  0.0400 -0.0709
  301loPI   C2B 4814   6.653  11.328   9.174 -0.4422 -0.3446 -0.1830
  301loPI   C3B 4815   6.644  11.461   8.728  0.0898 -0.0538  0.1192
  301loPI   C4B 4816   6.571  11.470   8.318  0.0898 -0.1013 -0.1057
  302loPI    C1 4817  12.556  12.459  10.390 -0.0509 -0.0762 -0.0424
  302loPI    C2 4818  12.340  12.160  10.544 -0.0421  0.0162  0.1529
  302loPI    C3 4819  12.583  12.373  10.780 -0.1085  0.2290  0.0316
  302loPI   PO4 4820  12.455  12.559  10.263  0.0468 -0.0248  0.1988
  302loPI   GL1 4821  12.541  12.979  10.020  0.3100 -0.1885  0.1431
  302loPI   GL2 4822  12.703  13.115  10.030  0.2391  0.2016  0.2796
  302loPI   C1A 4823  12.522  13.122   9.541 -0.1853  0.0508 -0.0182
  302loPI   C2A 4824  12.508  13.238   9.157 -0.1373 -0.0856 -0.1288
  302loPI   C3A 4825  12.693  13.398   8.779  0.0237 -0.2519  0.0861
  302loPI   C4A 4826  12.654  13.561   8.322  0.1062 -0.1697  0.1218
  302loPI   C5A 4827  12.368  13.645   7.886  0.0153  0.2885 -0.2306
  302loPI   C6A 4828  12.028  13.700   7.707 -0.1777 -0.0923  0.0690
  302loPI   C1B 4829  12.991  13.109   9.780 -0.0152 -0.0753 -0.0075
  302loPI   C2B 4830  13.072  13.088   9.334  0.0211 -0.1957 -0.2819
  302loPI   C3B 4831  13.107  13.112   8.861  0.1068  0.2269 -0.1839
  302loPI   C4B 4832  13.137  13.265   8.488  0.1001  0.2604 -0.3123
  303loPI    C1 4833  10.392   4.670   9.913 -0.0057  0.0770 -0.0338
  303loPI    C2 4834  10.661   4.895  10.107  0.0725  0.2533 -0.3395
  303loPI    C3 4835  10.692   4.842   9.712 -0.1306 -0.0349 -0.3205
  303loPI   PO4 4836  10.131   4.699  10.087  0.1368  0.1775  0.0515
  303loPI   GL1 4837   9.923   4.971   9.760  0.0769  0.1851  0.0448
  303loPI   GL2 4838   9.771   4.788   9.668  0.2595  0.1047  0.2245
  303loPI   C1A 4839  10.210   4.962   9.425  0.1253  0.2668 -0.0162
  303loPI   C2A 4840  10.137   5.054   9.037 -0.0464  0.0547 -0.0549
  303loPI   C3A 4841  10.183   5.042   8.561 -0.0672 -0.0444  0.1377
  303loPI   C4A 4842  10.175   4.946   8.136  0.1658  0.1667 -0.2661
  303loPI   C5A 4843  10.020   4.920   7.744 -0.1737  0.0558  0.2664
  303loPI   C6A 4844   9.623   4.703   7.601 -0.3956 -0.0723  0.3159
  303loPI   C1B 4845   9.698   4.832   9.333  0.1679  0.0162 -0.2605
  303loPI   C2B 4846   9.665   4.877   8.905  0.1005 -0.2302  0.2387
  303loPI   C3B 4847   9.765   4.827   8.479 -0.1319  0.2537 -0.1690
  303loPI   C4B 4848   9.623   4.733   8.092 -0.0021 -0.0366  0.0058
  304loPI    C1 4849   4.928   8.563  10.675 -0.1843  0.0279  0.0047
  304loPI    C2 4850   4.837   8.949  10.727 -0.0069  0.0649  0.0491
  304loPI    C3 4851   4.761   8.684  11.017 -0.1041  0.0706  0.0291
  304loPI   PO4 4852   4.811   8.512  10.433  0.2351  0.0632 -0.1296
  304loPI   GL1 4853   4.847   8.351  10.138 -0.1337 -0.0925  0.1339
  304loPI   GL2 4854   5.014   8.114  10.183 -0.0635  0.0208 -0.0188
  304loPI   C1A 4855   4.759   8.164   9.772 -0.0934 -0.0962 -0.0788
  304loPI   C2A 4856   4.659   8.157   9.407 -0.2530  0.3133 -0.1357
  304loPI   C3A 4857   4.782   8.173   8.913 -0.0756 -0.3735  0.1011
  304loPI   C4A 4858   4.954   8.193   8.491  0.0916  0.0315 -0.1783
  304loPI   C5A 4859   5.014   7.930   8.157  0.2788 -0.0803 -0.0826
  304loPI   C6A 4860   5.291   7.697   8.018 -0.0585  0.2998 -0.2062
  304loPI   C1B 4861   5.208   8.003   9.827 -0.0394  0.0998 -0.3136
  304loPI   C2B 4862   5.115   8.042   9.336 -0.0648 -0.1235 -0.1279
  304loPI   C3B 4863   5.233   8.059   8.933 -0.1613  0.3038  0.0807
  304loPI   C4B 4864   5.289   7.831   8.575 -0.3307  0.1367 -0.0795
  305loPI    C1 4865   8.195   6.750  10.885 -0.0054 -0.0756 -0.1596
  305loPI    C2 4866   7.872   6.794  11.117  0.1345  0.1062  0.0039
  305loPI    C3 4867   8.046   6.436  11.082  0.0096  0.0414  0.0412
  305loPI   PO4 4868   8.178   6.813  10.566  0.2376  0.1827 -0.2002
  305loPI   GL1 4869   8.125   7.002  10.245 -0.0395 -0.2210  0.0748
  305loPI   GL2 4870   8.214   7.013   9.983  0.4309  0.0943 -0.0792
  305loPI   C1A 4871   7.759   6.815   9.947 -0.1481  0.2474 -0.2069
  305loPI   C2A 4872   7.604   6.659   9.539  0.1039  0.1334 -0.0180
  305loPI   C3A 4873   7.498   6.598   9.162 -0.1058 -0.2515 -0.0274
  305loPI   C4A 4874   7.542   6.692   8.763  0.0015 -0.3080 -0.0606
  305loPI   C5A 4875   7.313   6.664   8.315  0.1463 -0.1339  0.2715
  305loPI   C6A 4876   7.080   6.455   8.090  0.0871  0.1382  0.1911
  305loPI   C1B 4877   7.948   7.080   9.596 -0.0856 -0.2235 -0.1314
  305loPI   C2B 4878   7.948   7.057   9.218 -0.1948  0.0047  0.0717
  305loPI   C3B 4879   7.993   6.899   8.850  0.0008  0.4825  0.1713
  305loPI   C4B 4880   8.165   7.020   8.440  0.2306  0.3300 -0.0606
  306loPI    C1 4881  12.799  17.256  11.010 -0.0394  0.1677 -0.0206
  306loPI    C2 4882  13.138  17.442  10.907  0.1553 -0.1144  0.0989
  306loPI    C3 4883  13.083  17.320  11.284 -0.2234  0.2231  0.1593
  306loPI   PO4 4884  12.765  17.098  10.746  0.1751  0.0069  0.0107
  306loPI   GL1 4885  12.645  17.082  10.247 -0.3427  0.1755  0.1062
  306loPI   GL2 4886  12.365  17.339  10.051 -0.3053  0.3437  0.1222
  306loPI   C1A 4887  12.631  16.979   9.796 -0.1920 -0.3302  0.0243
  306loPI   C2A 4888  12.671  17.031   9.296 -0.0944  0.2368  0.0936
  306loPI   C3A 4889  12.744  17.127   8.904  0.2409  0.0149 -0.3900
  306loPI   C4A 4890  12.803  17.134   8.516 -0.0056  0.0360 -0.0930
  306loPI   C5A 4891  13.127  17.222   8.256 -0.0584 -0.0536 -0.0213
  306loPI   C6A 4892  13.486  17.507   8.128  0.1566  0.1176  0.0314
  306loPI   C1B 4893  12.346  17.367   9.521 -0.0654  0.3593 -0.0204
  306loPI   C2B 4894  12.291  17.358   9.052  0.0788 -0.0777  0.0958
  306loPI   C3B 4895  12.232  17.403   8.580 -0.0291 -0.1952 -0.1698
  306loPI   C4B 4896  12.217  17.676   8.164 -0.2221 -0.1941  0.1363
  307loPI    C1 4897  14.796  13.078  10.542  0.0842 -0.2174 -0.0581
  307loPI    C2 4898  15.114  12.978  10.322  0.2595 -0.0185  0.1013
  307loPI    C3 4899  15.093  12.867  10.706  0.0191 -0.2453  0.0246
  307loPI   PO4 4900  14.635  13.292  10.417  0.1581  0.0194  0.3224
  307loPI   GL1 4901  14.728  13.532   9.963  0.0730 -0.1154 -0.0099
  307loPI   GL2 4902  15.039  13.500  10.104  0.1392  0.1723 -0.0044
  307loPI   C1A 4903  14.796  13.485   9.567 -0.2070 -0.4251  0.0106
  307loPI   C2A 4904  14.940  13.515   9.095  0.2758 -0.0575  0.0636
  307loPI   C3A 4905  14.977  13.558   8.694  0.3407  0.1249 -0.1553
  307loPI   C4A 4906  14.918  13.658   8.306  0.1495  0.0134 -0.0895
  307loPI   C5A 4907  14.538  13.755   8.023 -0.1259  0.0795 -0.1484
  307loPI   C6A 4908  14.319  14.150   7.840 -0.1304  0.1570 -0.2230
  307loPI   C1B 4909  15.310  13.740   9.801 -0.0794  0.0511  0.0351
  307loPI   C2B 4910  15.276  13.793   9.298 -0.0282 -0.1767 -0.2076
  307loPI   C3B 4911  15.313  13.870   8.886  0.2776 -0.1156  0.0854
  307loPI   C4B 4912  15.443  13.900   8.452  0.4491  0.3447  0.0698
  308loPI    C1 4913  17.937  10.456  10.846 -0.1463 -0.1114  0.1597
  308loPI    C2 4914  18.137  10.212  11.092  0.0746  0.0821  0.1755
  308loPI    C3 4915  17.881  10.481  11.242 -0.1004 -0.0760  0.1642
  308loPI   PO4 4916  18.075  10.555  10.613  0.0172  0.1078  0.4157
  308loPI   GL1 4917  17.904  10.711  10.123 -0.1189  0.0952 -0.0993
  308loPI   GL2 4918  18.158  10.789   9.974  0.0631 -0.2363 -0.3420
  308loPI   C1A 4919  17.722  10.498   9.793 -0.0276  0.0630  0.3478
  308loPI   C2A 4920  17.627  10.513   9.371  0.1007  0.0189 -0.0054
  308loPI   C3A 4921  17.584  10.474   8.966  0.0992  0.1923  0.2826
  308loPI   C4A 4922  17.475  10.470   8.495  0.0358 -0.0061 -0.0501
  308loPI   C5A 4923  17.696  10.320   8.163  0.0434 -0.0542 -0.0664
  308loPI   C6A 4924  17.899  10.260   7.792 -0.1007 -0.3500  0.1047
  308loPI   C1B 4925  18.114  10.711   9.588 -0.3300 -0.0504 -0.2593
  308loPI   C2B 4926  18.067  10.692   9.199  0.3747 -0.3185  0.2139
  308loPI   C3B 4927  17.966  10.733   8.781 -0.0313 -0.2503 -0.1552
  308loPI   C4B 4928  17.839  10.869   8.325 -0.1269  0.1837 -0.3044
  309loPI    C1 4929   0.874   7.351  10.855  0.1330 -0.0559  0.0788
  309loPI    C2 4930   1.263   7.265  10.891  0.1081 -0.2337 -0.0629
  309loPI    C3 4931   1.000   6.973  10.818 -0.0817 -0.1465  0.2538
  309loPI   PO4 4932   0.816   7.494  10.633 -0.3129 -0.1779  0.0306
  309loPI   GL1 4933   0.701   7.554  10.269 -0.1739  0.0380  0.4094
  309loPI   GL2 4934   0.941   7.766  10.247  0.3268 -0.0498 -0.0753
  309loPI   C1A 4935   0.561   7.547   9.939  0.0944  0.2210  0.2187
  309loPI   C2A 4936   0.691   7.567   9.571  0.3727  0.0005 -0.0313
  309loPI   C3A 4937   0.736   7.488   9.153 -0.1948 -0.0863  0.0993
  309loPI   C4A 4938   0.651   7.376   8.760  0.1442 -0.2199  0.0968
  309loPI   C5A 4939   0.731   7.250   8.324 -0.0724 -0.3408 -0.5683
  309loPI   C6A 4940   0.703   7.020   7.962  0.1669 -0.3832 -0.1041
  309loPI   C1B 4941   1.055   7.827   9.796 -0.1089  0.0940 -0.1041
  309loPI   C2B 4942   1.193   7.725   9.354 -0.2188 -0.0164 -0.0950
  309loPI   C3B 4943   1.133   7.620   8.849 -0.1781 -0.3076 -0.0356
  309loPI   C4B 4944   1.219   7.496   8.399  0.0130 -0.3212 -0.2797
  310loPI    C1 4945  15.012   0.763  10.953  0.0629 -0.0671 -0.0553
  310loPI    C2 4946  15.056   0.482  11.234  0.0609 -0.0330 -0.0207
  310loPI    C3 4947  14.695   0.554  11.079  0.0395  0.0378  0.0617
  310loPI   PO4 4948  15.109   0.816  10.800 -0.1002 -0.1492 -0.1356
  310loPI   GL1 4949  14.966   0.950  10.472  0.3721 -0.1562  0.2798
  310loPI   GL2 4950  14.762   1.146  10.605  0.1024 -0.1369 -0.2137
  310loPI   C1A 4951  15.029   0.817  10.036 -0.1086  0.0538  0.1641
  310loPI   C2A 4952  15.066   0.977   9.720  0.1183  0.2394 -0.0564
  310loPI   C3A 4953  14.948   1.253   9.408  0.0672  0.4021  0.2514
  310loPI   C4A 4954  15.053   1.213   9.051  0.1352 -0.0664  0.1730
  310loPI   C5A 4955  15.174   1.360   8.711  0.0957 -0.1745 -0.0244
  310loPI   C6A 4956  15.470   1.611   8.459  0.2461  0.3563 -0.2698
  310loPI   C1B 4957  14.823   1.265  10.110 -0.1719  0.1969 -0.0162
  310loPI   C2B 4958  14.939   1.581   9.823 -0.2158  0.2829  0.2722
  310loPI   C3B 4959  15.114   1.776   9.408  0.2767  0.1907  0.0668
  310loPI   C4B 4960  15.057   1.756   9.017 -0.2579 -0.0341 -0.0532
  311loPI    C1 4961   5.184  16.235  10.428 -0.0914  0.0739  0.1864
  311loPI    C2 4962   5.434  16.432  10.671  0.0229 -0.0973  0.2089
  311loPI    C3 4963   5.078  16.310  10.807 -0.0155  0.0234  0.2178
  311loPI   PO4 4964   5.330  16.063  10.321 -0.1338  0.0086  0.0979
  311loPI   GL1 4965   5.514  16.110  10.036  0.0098 -0.1986 -0.1545
  311loPI   GL2 4966   5.869  16.241   9.942  0.0388  0.2852 -0.2197
  311loPI   C1A 4967   5.335  16.019   9.673  0.1204  0.0598 -0.1347
  311loPI   C2A 4968   5.306  15.927   9.294 -0.2224 -0.0258  0.1928
  311loPI   C3A 4969   5.284  15.916   8.922  0.2362  0.1696 -0.0166
  311loPI   C4A 4970   5.378  15.816   8.582 -0.1499  0.1007  0.1203
  311loPI   C5A 4971   5.549  15.814   8.193  0.3949  0.0362  0.2016
  311loPI   C6A 4972   5.687  15.947   7.913 -0.0362 -0.2003 -0.3975
  311loPI   C1B 4973   5.769  16.127   9.517 -0.2884 -0.2741 -0.1671
  311loPI   C2B 4974   5.764  16.028   9.088 -0.2632  0.1037 -0.2327
  311loPI   C3B 4975   5.729  16.160   8.717  0.2410 -0.0811  0.2344
  311loPI   C4B 4976   5.927  16.232   8.359  0.0083 -0.0627 -0.3625
  312loPI    C1 4977  11.441   5.076  10.230  0.0392  0.0379 -0.1873
  312loPI    C2 4978  11.348   4.802  10.506 -0.0236  0.2297 -0.0157
  312loPI    C3 4979  11.459   5.170  10.618  0.1827  0.2386 -0.2405
  312loPI   PO4 4980  11.594   5.012  10.035  0.1023 -0.1659  0.0456
  312loPI   GL1 4981  11.467   5.162   9.562 -0.1426 -0.0750 -0.0100
  312loPI   GL2 4982  11.209   5.044   9.714  0.1316 -0.2355 -0.0103
  312loPI   C1A 4983  11.439   5.229   9.105  0.0035 -0.1006  0.2923
  312loPI   C2A 4984  11.582   5.313   8.723 -0.1742 -0.1161  0.1088
  312loPI   C3A 4985  11.619   5.285   8.269  0.0278 -0.1824  0.0099
  312loPI   C4A 4986  11.609   5.051   7.895 -0.2935  0.2050 -0.0553
  312loPI   C5A 4987  11.452   4.897   7.533  0.1723  0.2233 -0.0268
  312loPI   C6A 4988  10.961   4.928   7.522 -0.0118  0.2636  0.0453
  312loPI   C1B 4989  11.007   4.956   9.306  0.0762  0.1610 -0.0186
  312loPI   C2B 4990  10.977   4.943   8.912  0.0791 -0.1865 -0.2609
  312loPI   C3B 4991  11.099   4.929   8.504  0.5986 -0.0266  0.2084
  312loPI   C4B 4992  11.154   4.945   8.076  0.1376 -0.0430 -0.0283
  313loPI    C1 4993  13.511   8.663  10.281  0.0093 -0.0069 -0.3574
  313loPI    C2 4994  13.515   8.999  10.065 -0.1477  0.0096 -0.3359
  313loPI    C3 4995  13.416   9.012  10.452  0.0308 -0.0349 -0.2879
  313loPI   PO4 4996  13.441   8.495  10.028 -0.0868 -0.0331 -0.1036
  313loPI   GL1 4997  13.163   8.450   9.684 -0.5949  0.1637 -0.2422
  313loPI   GL2 4998  12.867   8.565   9.499 -0.3760 -0.2170 -0.0148
  313loPI   C1A 4999  13.278   8.251   9.243 -0.1317  0.2230  0.0084
  313loPI   C2A 5000  13.195   8.078   8.882 -0.1811 -0.1265 -0.0408
  313loPI   C3A 5001  13.250   7.969   8.441 -0.0491 -0.0943  0.0162
  313loPI   C4A 5002  13.125   8.052   8.060  0.2520 -0.0714  0.2981
  313loPI   C5A 5003  13.096   8.186   7.758  0.1086 -0.2265  0.1191
  313loPI   C6A 5004  12.831   8.405   7.433 -0.0161  0.0675  0.0921
  313loPI   C1B 5005  12.839   8.451   9.025 -0.1238 -0.4437  0.2126
  313loPI   C2B 5006  12.840   8.318   8.504 -0.1442  0.0182 -0.1531
  313loPI   C3B 5007  12.749   8.379   8.176  0.3565 -0.1317  0.0944
  313loPI   C4B 5008  12.593   8.341   7.827 -0.0566 -0.1028  0.0172
  314loPI    C1 5009  17.291  12.064  10.805  0.0269  0.1389  0.1777
  314loPI    C2 5010  17.487  11.753  10.963  0.0397  0.0702  0.0274
  314loPI    C3 5011  17.547  12.120  11.108  0.1191  0.0201  0.1227
  314loPI   PO4 5012  17.331  11.946  10.502  0.0833 -0.3452  0.1976
  314loPI   GL1 5013  17.175  11.814  10.069  0.0908  0.1980 -0.1636
  314loPI   GL2 5014  17.193  11.610  10.032 -0.0146  0.2363  0.1891
  314loPI   C1A 5015  17.272  12.179   9.827 -0.0312 -0.1610 -0.1565
  314loPI   C2A 5016  17.118  12.340   9.400  0.1401 -0.0116 -0.0077
  314loPI   C3A 5017  17.189  12.256   9.001 -0.1908 -0.1863  0.2326
  314loPI   C4A 5018  17.095  12.364   8.606 -0.1216 -0.1432 -0.1911
  314loPI   C5A 5019  17.038  12.405   8.082 -0.0101 -0.3730  0.0412
  314loPI   C6A 5020  17.008  12.540   7.756  0.2930 -0.0713 -0.0196
  314loPI   C1B 5021  17.169  11.719   9.558  0.0781  0.0427 -0.1192
  314loPI   C2B 5022  17.101  11.808   9.165 -0.1393 -0.1806 -0.0826
  314loPI   C3B 5023  17.132  11.818   8.711  0.0383 -0.0085 -0.2914
  314loPI   C4B 5024  16.773  11.961   8.383 -0.3381 -0.2070 -0.0686
  315loPI    C1 5025  13.631   9.572   9.572 -0.2304 -0.0993  0.0750
  315loPI    C2 5026  13.561   9.713   9.940  0.3032  0.2505  0.0530
  315loPI    C3 5027  13.501   9.948   9.622  0.3262  0.1190 -0.0490
  315loPI   PO4 5028  13.515   9.258   9.639  0.1025 -0.1844  0.1738
  315loPI   GL1 5029  13.431   8.855   9.415 -0.3309 -0.0466 -0.1134
  315loPI   GL2 5030  13.336   9.189   9.168  0.3446 -0.0376  0.2688
  315loPI   C1A 5031  13.743   8.599   9.262 -0.0489 -0.2212 -0.1596
  315loPI   C2A 5032  13.757   8.334   8.947 -0.1756  0.2453  0.0080
  315loPI   C3A 5033  13.802   8.184   8.531  0.0958  0.0355 -0.0379
  315loPI   C4A 5034  13.666   7.917   8.113 -0.1671 -0.4664  0.0850
  315loPI   C5A 5035  13.703   7.846   7.612  0.1734 -0.3155  0.0274
  315loPI   C6A 5036  13.680   7.662   7.246  0.1213 -0.4590 -0.0295
  315loPI   C1B 5037  13.332   9.124   8.613 -0.1498  0.3182 -0.0883
  315loPI   C2B 5038  13.366   9.025   8.194 -0.2050  0.0294 -0.0638
  315loPI   C3B 5039  13.691   8.820   8.066 -0.1995 -0.3787 -0.0927
  315loPI   C4B 5040  13.968   8.387   8.118 -0.0182  0.1756  0.0720
  316loPI    C1 5041  12.755   3.613  10.413  0.5062  0.0377  0.1377
  316loPI    C2 5042  12.674   3.812  10.750 -0.2653 -0.0174  0.0036
  316loPI    C3 5043  12.638   3.414  10.740 -0.3189 -0.0091 -0.1617
  316loPI   PO4 5044  12.970   3.727  10.325 -0.0218 -0.2430  0.0654
  316loPI   GL1 5045  13.293   3.760   9.984  0.0057  0.1695 -0.3252
  316loPI   GL2 5046  13.246   4.048   9.782  0.1556 -0.2036 -0.2571
  316loPI   C1A 5047  13.189   3.473   9.613 -0.2635 -0.1873  0.2046
  316loPI   C2A 5048  13.248   3.391   9.173 -0.0141  0.6064  0.1865
  316loPI   C3A 5049  13.349   3.303   8.724  0.2042  0.0652  0.0185
  316loPI   C4A 5050  13.528   3.252   8.316  0.0514 -0.0595  0.2144
  316loPI   C5A 5051  13.638   3.334   7.893  0.3511 -0.1128 -0.1724
  316loPI   C6A 5052  14.027   3.127   7.863 -0.0408  0.1751 -0.2272
  316loPI   C1B 5053  13.333   3.944   9.348 -0.0023  0.2920 -0.0307
  316loPI   C2B 5054  13.320   3.820   8.987  0.0484  0.2157 -0.0011
  316loPI   C3B 5055  13.430   3.775   8.596  0.2497  0.0910 -0.0591
  316loPI   C4B 5056  13.713   3.773   8.136 -0.0767 -0.2311 -0.1615
  317loPI    C1 5057   9.520   8.147  10.528 -0.0142 -0.0590  0.1405
  317loPI    C2 5058   9.914   8.074  10.515 -0.0249 -0.1190  0.1533
  317loPI    C3 5059   9.712   8.026  10.857 -0.0768 -0.2639  0.1030
  317loPI   PO4 5060   9.497   8.105  10.228  0.0647 -0.1434  0.4873
  317loPI   GL1 5061   9.379   8.320   9.818  0.1734 -0.0296 -0.2409
  317loPI   GL2 5062   9.150   8.025   9.809  0.0453  0.1657  0.1991
  317loPI   C1A 5063   9.453   8.405   9.434  0.1035 -0.2150  0.0281
  317loPI   C2A 5064   9.450   8.500   9.001  0.1345  0.2355 -0.0098
  317loPI   C3A 5065   9.369   8.324   8.642 -0.1744  0.0863 -0.0181
  317loPI   C4A 5066   9.350   8.202   8.215 -0.1508  0.1056 -0.3288
  317loPI   C5A 5067   9.173   8.174   7.790  0.1358  0.2173 -0.1285
  317loPI   C6A 5068   8.831   7.949   7.501  0.0686 -0.0297 -0.3951
  317loPI   C1B 5069   8.977   8.003   9.405 -0.2867 -0.1619  0.0128
  317loPI   C2B 5070   8.904   8.126   9.003  0.0959  0.1055  0.0711
  317loPI   C3B 5071   8.942   8.097   8.515 -0.4217  0.1860  0.1296
  317loPI   C4B 5072   8.874   7.801   8.125 -0.0827  0.3541 -0.1688
  318loPI    C1 5073   2.272   9.331  10.720 -0.0424 -0.2025 -0.0090
  318loPI    C2 5074   2.476   9.127  10.997  0.0145 -0.0897  0.0325
  318loPI    C3 5075   2.291   9.468  11.095 -0.1761 -0.1796 -0.0100
  318loPI   PO4 5076   2.393   9.327  10.445  0.1384  0.2437  0.2386
  318loPI   GL1 5077   2.541   8.961  10.108  0.0713 -0.0211  0.3107
  318loPI   GL2 5078   2.458   8.676  10.036  0.1084 -0.1410  0.1304
  318loPI   C1A 5079   2.446   9.277   9.790 -0.1450 -0.2680  0.1549
  318loPI   C2A 5080   2.459   9.463   9.448  0.0122 -0.0984  0.0125
  318loPI   C3A 5081   2.488   9.513   8.904 -0.1485 -0.1390 -0.0931
  318loPI   C4A 5082   2.605   9.526   8.492 -0.1109 -0.1255  0.1009
  318loPI   C5A 5083   2.441   9.353   8.050 -0.3114  0.0706 -0.0134
  318loPI   C6A 5084   2.516   9.121   7.663 -0.0373 -0.0774 -0.0495
  318loPI   C1B 5085   2.474   8.443   9.600 -0.4213 -0.0905 -0.0175
  318loPI   C2B 5086   2.618   8.500   9.147 -0.0843  0.0042 -0.0662
  318loPI   C3B 5087   2.577   8.439   8.739 -0.1434 -0.6001 -0.0510
  318loPI   C4B 5088   2.505   8.195   8.491 -0.0777  0.2714 -0.2461
  319loPI    C1 5089   3.747  12.997  10.695 -0.1983  0.1737 -0.0800
  319loPI    C2 5090   3.642  12.689  10.928  0.1465  0.0162 -0.1264
  319loPI    C3 5091   3.690  13.053  11.087  0.0327 -0.0160 -0.0170
  319loPI   PO4 5092   3.612  13.067  10.409  0.2326  0.0305 -0.2992
  319loPI   GL1 5093   3.525  13.154   9.990  0.1421 -0.2090  0.1554
  319loPI   GL2 5094   3.932  13.054   9.887 -0.1332 -0.2540  0.0629
  319loPI   C1A 5095   3.532  12.813   9.583 -0.0669 -0.1368 -0.1462
  319loPI   C2A 5096   3.484  12.780   9.140 -0.1032  0.0991 -0.2037
  319loPI   C3A 5097   3.458  12.769   8.697  0.3171  0.0499  0.0913
  319loPI   C4A 5098   3.543  12.631   8.318 -0.2584  0.0018  0.0336
  319loPI   C5A 5099   3.822  12.397   8.004  0.0814 -0.0740 -0.1219
  319loPI   C6A 5100   4.140  12.182   7.745 -0.1978 -0.1825 -0.1882
  319loPI   C1B 5101   3.940  13.050   9.404  0.2440  0.1537  0.1230
  319loPI   C2B 5102   3.892  12.980   8.902  0.0350  0.0574 -0.2030
  319loPI   C3B 5103   3.923  12.918   8.452 -0.1842  0.1668  0.0052
  319loPI   C4B 5104   3.942  12.992   8.073  0.0484  0.2314  0.1528
  320loPI    C1 5105   5.093   3.889  10.908  0.4385 -0.0104 -0.0597
  320loPI    C2 5106   5.287   4.065  11.210  0.2752  0.1275 -0.0337
  320loPI    C3 5107   5.464   3.773  11.002  0.4139  0.0779  0.1512
  320loPI   PO4 5108   4.962   4.031  10.720 -0.2570 -0.1119  0.2848
  320loPI   GL1 5109   4.793   4.090  10.333  0.2774  0.1006  0.0118
  320loPI   GL2 5110   4.532   4.340  10.386  0.0946  0.1623 -0.3453
  320loPI   C1A 5111   4.824   3.918   9.912 -0.2690  0.0914  0.1872
  320loPI   C2A 5112   4.767   3.892   9.554 -0.2021  0.0213  0.1212
  320loPI   C3A 5113   4.832   3.936   9.125 -0.0240 -0.0575  0.1370
  320loPI   C4A 5114   4.783   4.090   8.641 -0.3191 -0.0484  0.1843
  320loPI   C5A 5115   4.618   4.312   8.333  0.1468 -0.2807 -0.2495
  320loPI   C6A 5116   4.667   4.503   7.918  0.0919  0.1197  0.2705
  320loPI   C1B 5117   4.416   4.095  10.026  0.1818 -0.0379 -0.4123
  320loPI   C2B 5118   4.306   4.067   9.587 -0.1572 -0.0845  0.0876
  320loPI   C3B 5119   4.393   4.171   9.154  0.2268  0.0434  0.0454
  320loPI   C4B 5120   4.368   4.263   8.826  0.1018  0.0247  0.1182
  321loPI    C1 5121   1.545  15.833  10.274 -0.0679  0.0349  0.2639
  321loPI    C2 5122   1.484  15.439  10.296  0.0593 -0.0186 -0.2176
  321loPI    C3 5123   1.769  15.610  10.520  0.1117 -0.2240 -0.1242
  321loPI   PO4 5124   1.616  15.881  10.076 -0.1619 -0.0059 -0.1409
  321loPI   GL1 5125   1.865  16.116   9.841 -0.0663 -0.1689  0.0376
  321loPI   GL2 5126   1.545  15.996   9.595  0.0498  0.1052 -0.0928
  321loPI   C1A 5127   2.011  15.987   9.486  0.0241 -0.1970 -0.0913
  321loPI   C2A 5128   2.046  15.966   9.057 -0.0220 -0.1023 -0.2611
  321loPI   C3A 5129   2.112  16.024   8.698 -0.0578 -0.1699  0.0000
  321loPI   C4A 5130   2.211  16.109   8.265  0.2252 -0.0356 -0.1164
  321loPI   C5A 5131   2.449  16.188   7.854  0.1740 -0.0516 -0.2277
  321loPI   C6A 5132   2.768  16.324   7.618 -0.1392  0.1534 -0.1241
  321loPI   C1B 5133   1.566  15.912   9.218  0.4840  0.3899  0.1232
  321loPI   C2B 5134   1.679  15.861   8.752  0.0919  0.1904  0.1697
  321loPI   C3B 5135   1.769  15.817   8.302  0.0497  0.1320 -0.0920
  321loPI   C4B 5136   1.794  15.509   7.907 -0.0145 -0.0285  0.3113
  322loPI    C1 5137   5.644   3.760  10.522  0.3267  0.0718  0.0890
  322loPI    C2 5138   5.988   3.582  10.422  0.2312 -0.0417 -0.0426
  322loPI    C3 5139   5.896   3.940  10.268  0.1339 -0.1674 -0.2816
  322loPI   PO4 5140   5.462   3.516  10.534 -0.0875 -0.2943  0.1172
  322loPI   GL1 5141   5.351   3.443  10.157  0.0587  0.1316 -0.2534
  322loPI   GL2 5142   5.643   3.509  10.006  0.3241 -0.3261 -0.2781
  322loPI   C1A 5143   5.235   3.623   9.707  0.2005  0.0906 -0.0976
  322loPI   C2A 5144   5.290   3.778   9.302  0.0637  0.1364 -0.0895
  322loPI   C3A 5145   5.358   3.734   8.981 -0.2033  0.0376  0.1235
  322loPI   C4A 5146   5.344   3.737   8.621  0.0435  0.1874 -0.0824
  322loPI   C5A 5147   5.160   3.969   8.422  0.0741  0.1895 -0.2062
  322loPI   C6A 5148   5.176   3.808   8.047  0.2403  0.1380  0.1611
  322loPI   C1B 5149   5.710   3.498   9.505  0.1418 -0.0464 -0.0746
  322loPI   C2B 5150   5.762   3.468   9.099  0.1020 -0.0460 -0.0365
  322loPI   C3B 5151   5.833   3.463   8.756  0.1251  0.1494  0.0987
  322loPI   C4B 5152   5.749   3.569   8.366  0.0593  0.0267  0.3304
  323loPI    C1 5153  13.361   5.064  10.605 -0.1122  0.1051 -0.0321
  323loPI    C2 5154  13.388   5.370  10.862  0.4161  0.1568 -0.1384
  323loPI    C3 5155  13.273   5.010  10.992 -0.0568  0.3568  0.0178
  323loPI   PO4 5156  13.416   5.183  10.357  0.1184 -0.0987  0.2779
  323loPI   GL1 5157  13.198   5.119   9.983 -0.0805  0.0018 -0.1010
  323loPI   GL2 5158  13.262   5.410   9.947  0.0313  0.1593  0.3569
  323loPI   C1A 5159  13.344   4.983   9.548 -0.0989 -0.1511  0.3341
  323loPI   C2A 5160  13.393   4.901   9.056 -0.3069  0.0834  0.2786
  323loPI   C3A 5161  13.484   4.869   8.605  0.6186  0.0082 -0.1766
  323loPI   C4A 5162  13.458   4.781   8.203 -0.2342  0.3038  0.3200
  323loPI   C5A 5163  13.156   4.901   7.955 -0.0934  0.1021 -0.1844
  323loPI   C6A 5164  12.795   5.018   7.929  0.0617 -0.1654 -0.4335
  323loPI   C1B 5165  13.276   5.526   9.556 -0.0065 -0.0442 -0.0146
  323loPI   C2B 5166  13.325   5.385   9.156 -0.1170 -0.3027 -0.0134
  323loPI   C3B 5167  13.359   5.471   8.749  0.2759 -0.1249 -0.1374
  323loPI   C4B 5168  13.457   5.375   8.317  0.3066  0.2342 -0.1952
  324loPI    C1 5169  14.623  15.058  10.628 -0.1730 -0.0752 -0.0687
  324loPI    C2 5170  14.286  15.007  10.838 -0.0923  0.0839  0.1024
  324loPI    C3 5171  14.640  14.995  11.023 -0.0143  0.1194 -0.0428
  324loPI   PO4 5172  14.517  14.969  10.376  0.2622  0.1268 -0.1531
  324loPI   GL1 5173  14.651  14.847   9.936 -0.3256 -0.3145  0.3433
  324loPI   GL2 5174  14.939  14.554   9.789 -0.4652  0.2960  0.0511
  324loPI   C1A 5175  14.561  14.850   9.590  0.0667  0.1205 -0.1089
  324loPI   C2A 5176  14.542  14.828   9.135  0.0595  0.1451 -0.3478
  324loPI   C3A 5177  14.409  14.969   8.641  0.1436  0.1834  0.1393
  324loPI   C4A 5178  14.292  15.028   8.272 -0.1291 -0.0930  0.1231
  324loPI   C5A 5179  13.935  15.160   7.969 -0.1073  0.0195  0.0330
  324loPI   C6A 5180  13.632  15.481   7.922  0.0429  0.0132  0.2034
  324loPI   C1B 5181  14.962  14.667   9.397  0.0918  0.0043  0.1555
  324loPI   C2B 5182  14.924  14.688   8.849  0.0478  0.0698  0.0381
  324loPI   C3B 5183  14.813  14.737   8.484 -0.0736  0.3378  0.0093
  324loPI   C4B 5184  14.820  15.020   8.069 -0.0159  0.1496 -0.0173
  325loPI    C1 5185   2.671  16.901  10.671  0.0531  0.2855 -0.1177
  325loPI    C2 5186   2.978  17.034  10.891  0.0252  0.2477 -0.0557
  325loPI    C3 5187   2.640  16.916  11.070  0.1544 -0.1856 -0.0870
  325loPI   PO4 5188   2.757  17.108  10.410  0.0406 -0.0621 -0.0191
  325loPI   GL1 5189   2.569  17.140  10.031  0.0169  0.2108 -0.1246
  325loPI   GL2 5190   2.573  16.780   9.918  0.1157 -0.0476 -0.0991
  325loPI   C1A 5191   2.700  17.294   9.612  0.0603 -0.1281 -0.1605
  325loPI   C2A 5192   2.629  17.484   9.159  0.1286  0.1191  0.0382
  325loPI   C3A 5193   2.609  17.405   8.749  0.1711  0.1550 -0.0904
  325loPI   C4A 5194   2.639  17.413   8.386 -0.1007 -0.2941 -0.0176
  325loPI   C5A 5195   2.618  17.416   7.939 -0.0730 -0.0789 -0.1742
  325loPI   C6A 5196   2.819  17.324   7.608 -0.1909  0.1517 -0.3927
  325loPI   C1B 5197   2.403  16.858   9.451 -0.1064 -0.1055 -0.0223
  325loPI   C2B 5198   2.364  16.951   9.055  0.1205  0.1255  0.1649
  325loPI   C3B 5199   2.205  17.023   8.758  0.1562 -0.2658  0.1139
  325loPI   C4B 5200   2.191  17.218   8.309  0.1423  0.1374 -0.0685
  326loPI    C1 5201   2.454  11.451  10.744  0.0011  0.0064  0.1295
  326loPI    C2 5202   2.747  11.319  10.983  0.0566  0.1151  0.1222
  326loPI    C3 5203   2.465  11.563  11.128  0.0330  0.1003  0.1015
  326loPI   PO4 5204   2.595  11.577  10.582 -0.4160 -0.1170  0.1538
  326loPI   GL1 5205   2.572  11.656  10.118  0.1013 -0.0402 -0.1787
  326loPI   GL2 5206   2.739  12.006  10.048 -0.0735 -0.3699  0.1298
  326loPI   C1A 5207   2.588  11.663   9.699 -0.1709 -0.2105  0.0878
  326loPI   C2A 5208   2.605  11.770   9.275  0.2787 -0.0887 -0.1781
  326loPI   C3A 5209   2.539  11.730   8.850  0.1471 -0.0720  0.1635
  326loPI   C4A 5210   2.553  11.771   8.286 -0.1048 -0.1143 -0.2156
  326loPI   C5A 5211   2.395  12.022   7.882 -0.2141  0.0944 -0.1972
  326loPI   C6A 5212   2.088  12.097   7.552 -0.1482  0.3572  0.0250
  326loPI   C1B 5213   2.645  12.310   9.645  0.0845  0.3234  0.3873
  326loPI   C2B 5214   2.676  12.292   9.219 -0.0259 -0.0328  0.0610
  326loPI   C3B 5215   2.575  12.202   8.746  0.3285  0.3152 -0.1303
  326loPI   C4B 5216   2.597  12.341   8.273 -0.2677  0.2172  0.0420
  327loPI    C1 5217   7.406   6.712  10.965 -0.0713 -0.0776  0.2102
  327loPI    C2 5218   7.042   6.679  11.128 -0.0774  0.2787  0.2778
  327loPI    C3 5219   7.340   6.847  11.336  0.0108  0.3989  0.0579
  327loPI   PO4 5220   7.258   6.746  10.659 -0.1788 -0.0572  0.1900
  327loPI   GL1 5221   7.260   6.892  10.192  0.0972  0.1782 -0.0241
  327loPI   GL2 5222   7.467   6.591  10.230 -0.1987  0.1977 -0.1069
  327loPI   C1A 5223   7.193   6.892   9.826 -0.1149  0.1137  0.2661
  327loPI   C2A 5224   7.110   6.795   9.455  0.1652  0.0815  0.1087
  327loPI   C3A 5225   7.078   6.880   9.042 -0.2348 -0.0599 -0.2253
  327loPI   C4A 5226   7.092   6.964   8.690 -0.0971  0.1510 -0.0716
  327loPI   C5A 5227   7.157   7.241   8.341  0.0329 -0.2238 -0.0798
  327loPI   C6A 5228   7.021   7.414   7.907  0.1930  0.0211 -0.0974
  327loPI   C1B 5229   7.289   6.395   9.845  0.2596 -0.1375  0.2166
  327loPI   C2B 5230   7.043   6.159   9.719 -0.2354 -0.0818  0.0639
  327loPI   C3B 5231   7.035   6.349   9.229 -0.1475  0.1339 -0.1109
  327loPI   C4B 5232   7.074   6.435   8.828 -0.0688  0.2043  0.0601
  328loPI    C1 5233  15.818   1.679  11.145  0.1326  0.1962  0.1519
  328loPI    C2 5234  15.668   1.394  11.381  0.2269  0.0106 -0.0090
  328loPI    C3 5235  15.830   1.722  11.542  0.2122 -0.0737  0.1809
  328loPI   PO4 5236  15.867   1.509  10.900 -0.2207  0.1790 -0.1606
  328loPI   GL1 5237  15.963   1.472  10.594  0.0317 -0.1969  0.1965
  328loPI   GL2 5238  15.757   1.686  10.378 -0.1258  0.0776  0.0694
  328loPI   C1A 5239  15.907   1.192  10.300  0.0521 -0.0097  0.1440
  328loPI   C2A 5240  15.965   1.108   9.860  0.1818  0.4946 -0.0834
  328loPI   C3A 5241  15.977   1.180   9.429 -0.2294 -0.1604  0.1148
  328loPI   C4A 5242  16.010   1.199   8.915 -0.2774 -0.1519 -0.2050
  328loPI   C5A 5243  15.991   1.507   8.514  0.0032  0.0614  0.0197
  328loPI   C6A 5244  16.076   1.793   8.183 -0.1376 -0.1254 -0.1073
  328loPI   C1B 5245  15.986   1.676  10.050  0.1183 -0.0382 -0.1642
  328loPI   C2B 5246  16.043   1.616   9.680  0.0750  0.2113 -0.0656
  328loPI   C3B 5247  15.920   1.621   9.261  0.1336 -0.0064 -0.4020
  328loPI   C4B 5248  15.937   1.817   8.900  0.4683  0.1714  0.0490
  329loPI    C1 5249  15.963  16.698  10.470 -0.0279  0.0625  0.0724
  329loPI    C2 5250  16.289  16.814  10.669  0.0369 -0.1636  0.1011
  329loPI    C3 5251  15.974  16.671  10.869 -0.0399 -0.0455  0.0657
  329loPI   PO4 5252  15.887  16.901  10.321 -0.2213 -0.1620  0.3842
  329loPI   GL1 5253  15.688  17.148  10.040 -0.2541  0.2078  0.0704
  329loPI   GL2 5254  15.969  17.200   9.861 -0.1094  0.0401 -0.1648
  329loPI   C1A 5255  15.478  16.978   9.646 -0.0317 -0.4043 -0.1725
  329loPI   C2A 5256  15.268  16.993   9.293 -0.3236 -0.0379 -0.0020
  329loPI   C3A 5257  15.463  17.063   8.964  0.2718  0.0327 -0.1006
  329loPI   C4A 5258  15.348  16.955   8.490  0.0558  0.1244  0.0835
  329loPI   C5A 5259  15.214  16.857   8.099 -0.0440 -0.0035  0.0303
  329loPI   C6A 5260  15.025  16.617   7.743 -0.1317  0.1340 -0.0513
  329loPI   C1B 5261  15.821  17.283   9.463  0.1732  0.1323  0.1550
  329loPI   C2B 5262  15.937  17.249   8.996  0.1131  0.0913 -0.1239
  329loPI   C3B 5263  15.830  17.185   8.535 -0.2040 -0.1144  0.1128
  329loPI   C4B 5264  15.556  17.250   8.125  0.2008  0.2968  0.2585
  330loPI    C1 5265   0.434   0.856  11.199  0.1185 -0.0852  0.0873
  330loPI    C2 5266   0.268   1.097  11.472  0.2356  0.1620 -0.0557
  330loPI    C3 5267   0.345   0.715  11.562 -0.0725  0.1405  0.1309
  330loPI   PO4 5268   0.625   1.015  11.066 -0.0407  0.2507  0.3092
  330loPI   GL1 5269   0.574   1.072  10.683  0.1143  0.2106 -0.1149
  330loPI   GL2 5270   0.842   1.237  10.590  0.0863  0.0137  0.2133
  330loPI   C1A 5271   0.479   0.897  10.282 -0.0258 -0.0158 -0.0418
  330loPI   C2A 5272   0.545   1.018   9.856 -0.0126  0.2441  0.1843
  330loPI   C3A 5273   0.556   1.126   9.453  0.0451 -0.2900  0.0952
  330loPI   C4A 5274   0.501   1.058   9.001 -0.0553 -0.0685 -0.1454
  330loPI   C5A 5275   0.303   1.087   8.644 -0.0860 -0.0518 -0.4063
  330loPI   C6A 5276  -0.064   1.316   8.603  0.0968 -0.0442  0.2436
  330loPI   C1B 5277   0.771   1.360  10.237 -0.4807  0.0632 -0.2061
  330loPI   C2B 5278   0.827   1.431   9.752 -0.2257 -0.0317  0.0682
  330loPI   C3B 5279   1.014   1.360   9.368  0.3861  0.1077  0.0415
  330loPI   C4B 5280   0.934   1.272   8.956 -0.2532  0.1956 -0.2070
  331loPI    C1 5281  18.127   7.362  10.777 -0.0995 -0.1051 -0.1396
  331loPI    C2 5282  18.515   7.328  10.865 -0.0851  0.2823 -0.0376
  331loPI    C3 5283  18.306   7.641  11.000 -0.4684  0.0056  0.0266
  331loPI   PO4 5284  18.133   7.317  10.515  0.1836  0.3155  0.4081
  331loPI   GL1 5285  18.012   7.140  10.222 -0.1014 -0.1373 -0.0988
  331loPI   GL2 5286  17.996   6.819  10.030 -0.0738  0.0193  0.1794
  331loPI   C1A 5287  18.222   7.318   9.853  0.1976  0.0305  0.2505
  331loPI   C2A 5288  18.431   7.302   9.467  0.1983  0.0122  0.0169
  331loPI   C3A 5289  18.477   7.338   9.031  0.2953  0.2265  0.2769
  331loPI   C4A 5290  18.376   7.130   8.602  0.0541  0.0002 -0.1167
  331loPI   C5A 5291  18.539   6.829   8.403 -0.2263 -0.0897 -0.1033
  331loPI   C6A 5292  18.579   6.570   8.069 -0.0980  0.0672  0.4605
  331loPI   C1B 5293  18.160   6.804   9.691  0.0288  0.1171 -0.2907
  331loPI   C2B 5294  18.301   6.798   9.295 -0.1457  0.0150 -0.3338
  331loPI   C3B 5295  18.432   6.755   8.940 -0.2263  0.2041  0.1805
  331loPI   C4B 5296  18.318   6.476   8.592 -0.0656  0.0447  0.2595
  332loPI    C1 5297  14.952  17.126  10.707  0.1295  0.1545  0.0963
  332loPI    C2 5298  14.804  17.407  10.950 -0.0329  0.1846 -0.0361
  332loPI    C3 5299  14.988  17.088  11.104 -0.1965  0.1681  0.1302
  332loPI   PO4 5300  14.905  17.271  10.472  0.2034 -0.2985  0.2045
  332loPI   GL1 5301  15.084  17.568  10.225 -0.1996  0.3914 -0.4992
  332loPI   GL2 5302  15.382  17.483  10.143  0.0085 -0.0219 -0.3748
  332loPI   C1A 5303  14.937  17.738   9.784  0.1796 -0.0401 -0.0174
  332loPI   C2A 5304  14.930  17.795   9.365 -0.3534 -0.1184 -0.0155
  332loPI   C3A 5305  15.026  17.736   8.910  0.0804  0.0080 -0.1846
  332loPI   C4A 5306  14.974  17.820   8.452 -0.0181  0.2751 -0.1102
  332loPI   C5A 5307  15.194  18.106   8.232  0.1943  0.1141 -0.0084
  332loPI   C6A 5308  15.212  18.554   8.034  0.2326 -0.1705  0.3503
  332loPI   C1B 5309  15.459  17.498   9.725  0.2675 -0.3344  0.1467
  332loPI   C2B 5310  15.349  17.521   9.274 -0.2684  0.3623  0.0124
  332loPI   C3B 5311  15.461  17.543   8.851 -0.1511 -0.2418  0.1303
  332loPI   C4B 5312  15.386  17.499   8.482  0.0747 -0.1089  0.1065
  333loPI    C1 5313   9.888  12.515  10.528 -0.1672 -0.2093  0.1430
  333loPI    C2 5314  10.246  12.405  10.670 -0.0296  0.0018 -0.0348
  333loPI    C3 5315   9.954  12.511  10.922  0.1026  0.0389  0.1035
  333loPI   PO4 5316   9.852  12.362  10.290  0.3082 -0.2382 -0.2608
  333loPI   GL1 5317   9.436  12.355   9.854 -0.0439  0.0385 -0.0073
  333loPI   GL2 5318   9.721  12.124   9.797 -0.1126 -0.2905  0.4538
  333loPI   C1A 5319   9.505  12.366   9.345 -0.1739 -0.3565  0.0736
  333loPI   C2A 5320   9.486  12.465   8.889 -0.1190  0.1628  0.0430
  333loPI   C3A 5321   9.457  12.579   8.504  0.2258 -0.0965 -0.0579
  333loPI   C4A 5322   9.443  12.830   8.172  0.0742 -0.1214  0.3278
  333loPI   C5A 5323   9.305  13.053   7.848 -0.0815  0.0405 -0.0532
  333loPI   C6A 5324   9.262  13.414   7.738 -0.1436 -0.3016 -0.2910
  333loPI   C1B 5325   9.905  12.025   9.302 -0.0409 -0.2579  0.0409
  333loPI   C2B 5326   9.998  12.166   8.938 -0.0372  0.1923 -0.1842
  333loPI   C3B 5327   9.913  12.367   8.595 -0.0801 -0.0093 -0.0258
  333loPI   C4B 5328   9.817  12.514   8.126 -0.2590  0.4927  0.0126
  334loPI    C1 5329   3.202  14.411  10.366  0.1677 -0.0273 -0.0324
  334loPI    C2 5330   3.248  14.016  10.413  0.0606 -0.0378 -0.0144
  334loPI    C3 5331   3.421  14.269  10.670  0.1535 -0.0720 -0.0427
  334loPI   PO4 5332   3.222  14.442  10.189 -0.1910  0.0778  0.1272
  334loPI   GL1 5333   3.450  14.427   9.757  0.0745 -0.0106 -0.1432
  334loPI   GL2 5334   3.504  14.131   9.899 -0.0975 -0.2238 -0.3543
  334loPI   C1A 5335   3.421  14.361   9.317 -0.1827  0.0919  0.1053
  334loPI   C2A 5336   3.513  14.317   8.853  0.1088 -0.0200  0.0805
  334loPI   C3A 5337   3.660  14.183   8.468 -0.0662 -0.1532  0.0686
  334loPI   C4A 5338   3.544  14.073   8.014 -0.2801  0.1388  0.0578
  334loPI   C5A 5339   3.047  13.877   7.950  0.1140 -0.0127 -0.1051
  334loPI   C6A 5340   2.679  13.587   7.844 -0.0140  0.4853  0.1502
  334loPI   C1B 5341   3.511  13.886   9.565 -0.2201  0.0963 -0.0256
  334loPI   C2B 5342   3.506  13.865   9.130  0.4391 -0.3323 -0.1833
  334loPI   C3B 5343   3.571  13.701   8.715 -0.1085 -0.2143 -0.0224
  334loPI   C4B 5344   3.633  13.701   8.307  0.0386  0.1049  0.2137
  335loPI    C1 5345  13.841   2.104  11.074 -0.1613 -0.2397  0.4318
  335loPI    C2 5346  14.153   2.323  10.951 -0.1409 -0.4723  0.0522
  335loPI    C3 5347  14.108   2.239  11.339 -0.0077 -0.0199  0.1715
  335loPI   PO4 5348  13.716   2.098  10.882 -0.2395 -0.2494  0.1284
  335loPI   GL1 5349  13.792   2.171  10.471 -0.1006 -0.2678  0.0220
  335loPI   GL2 5350  14.118   2.224  10.467  0.1930  0.0452  0.0511
  335loPI   C1A 5351  13.522   2.088  10.118  0.3013 -0.0788 -0.0249
  335loPI   C2A 5352  13.609   2.077   9.646 -0.2680 -0.0600  0.0607
  335loPI   C3A 5353  13.755   2.059   9.165  0.1392 -0.0904 -0.1170
  335loPI   C4A 5354  13.815   2.070   8.785  0.2073 -0.4139  0.2027
  335loPI   C5A 5355  13.790   1.801   8.320  0.0704 -0.0716  0.0603
  335loPI   C6A 5356  13.565   1.400   8.129  0.0695 -0.2774 -0.0888
  335loPI   C1B 5357  14.330   2.055  10.181  0.2333  0.0695 -0.2530
  335loPI   C2B 5358  14.567   1.957   9.754  0.0111  0.0044 -0.1491
  335loPI   C3B 5359  14.661   1.947   9.360 -0.2581  0.0352 -0.1950
  335loPI   C4B 5360  14.664   1.990   8.906 -0.1817  0.1361  0.0114
  336loPI    C1 5361  17.331   6.037  10.772  0.0616 -0.1236  0.1139
  336loPI    C2 5362  17.294   6.244  11.112 -0.0796 -0.1875  0.1384
  336loPI    C3 5363  16.978   6.051  10.961 -0.0551 -0.0398 -0.1068
  336loPI   PO4 5364  17.541   6.142  10.630 -0.0680  0.0841 -0.3797
  336loPI   GL1 5365  17.688   6.150  10.122 -0.0613 -0.1736 -0.0303
  336loPI   GL2 5366  17.414   5.978  10.202  0.4716  0.3239  0.0987
  336loPI   C1A 5367  17.858   5.993   9.840  0.1335  0.2920  0.1435
  336loPI   C2A 5368  17.940   6.001   9.417  0.1359  0.0940 -0.0849
  336loPI   C3A 5369  17.914   5.926   8.997  0.1924 -0.0089  0.0899
  336loPI   C4A 5370  17.998   5.768   8.558 -0.2204  0.0123 -0.0850
  336loPI   C5A 5371  17.837   5.826   8.128 -0.0000  0.1081 -0.1480
  336loPI   C6A 5372  17.555   5.553   7.903  0.1404  0.2177 -0.1334
  336loPI   C1B 5373  17.383   5.812   9.765  0.1461  0.1024  0.3520
  336loPI   C2B 5374  17.491   5.791   9.330 -0.0819  0.2306  0.0933
  336loPI   C3B 5375  17.437   5.639   9.001  0.1105 -0.0553  0.0034
  336loPI   C4B 5376  17.547   5.506   8.702 -0.2709  0.0166  0.5514
  337loPI    C1 5377   7.858   3.965  10.443  0.0045 -0.0806  0.0912
  337loPI    C2 5378   8.169   3.726  10.521 -0.0290 -0.0605  0.2935
  337loPI    C3 5379   7.832   3.692  10.734 -0.1460 -0.0440  0.1136
  337loPI   PO4 5380   7.838   3.993  10.121  0.2098  0.0766 -0.2552
  337loPI   GL1 5381   7.684   4.003   9.656  0.3776 -0.0545  0.1378
  337loPI   GL2 5382   7.569   4.362   9.886  0.0722 -0.2523 -0.0929
  337loPI   C1A 5383   7.685   4.012   9.267  0.0519  0.0435  0.0530
  337loPI   C2A 5384   7.607   3.954   8.760  0.1011 -0.1571  0.0155
  337loPI   C3A 5385   7.563   4.115   8.325  0.2080 -0.1029 -0.0659
  337loPI   C4A 5386   7.583   4.287   7.861 -0.1030  0.1534 -0.0442
  337loPI   C5A 5387   7.756   4.323   7.484  0.0771  0.1170  0.2107
  337loPI   C6A 5388   7.651   4.451   7.006 -0.0207 -0.0353 -0.1792
  337loPI   C1B 5389   7.579   4.507   9.426 -0.3222 -0.2618 -0.3383
  337loPI   C2B 5390   7.684   4.491   9.071 -0.2733  0.1736  0.1141
  337loPI   C3B 5391   7.550   4.546   8.590  0.0299  0.5036  0.1713
  337loPI   C4B 5392   7.497   4.708   8.195 -0.1135 -0.0209 -0.1545
  338loPI    C1 5393  10.683   7.854  10.073  0.0031 -0.1522  0.0380
  338loPI    C2 5394  10.734   7.601  10.378 -0.1557 -0.0817  0.1242
  338loPI    C3 5395  10.888   7.970  10.396 -0.0089 -0.1380  0.0405
  338loPI   PO4 5396  10.393   7.865  10.022  0.0028 -0.2928  0.1215
  338loPI   GL1 5397  10.126   7.976   9.720 -0.3749 -0.1367  0.1054
  338loPI   GL2 5398   9.776   8.039   9.789 -0.2736  0.0845 -0.2597
  338loPI   C1A 5399   9.873   8.098   9.276 -0.1560 -0.1622 -0.2093
  338loPI   C2A 5400   9.797   8.070   8.875  0.0220  0.1787 -0.3087
  338loPI   C3A 5401   9.835   7.918   8.404  0.1681  0.1172 -0.1635
  338loPI   C4A 5402   9.970   7.598   8.147 -0.0150  0.3686 -0.1934
  338loPI   C5A 5403  10.321   7.475   7.930  0.0934  0.2978 -0.3251
  338loPI   C6A 5404  10.555   7.672   7.571  0.0604 -0.1381  0.0280
  338loPI   C1B 5405   9.559   7.797   9.524 -0.1806 -0.2646  0.0229
  338loPI   C2B 5406   9.376   7.811   9.163 -0.2766 -0.0956  0.0796
  338loPI   C3B 5407   9.348   7.761   8.677  0.0195 -0.1670  0.1962
  338loPI   C4B 5408   9.387   7.674   8.205  0.0464  0.0049 -0.2201
  339loPI    C1 5409   1.740   7.456  10.696 -0.2667 -0.1264  0.0651
  339loPI    C2 5410   1.704   7.672  11.031 -0.2233 -0.1404  0.0788
  339loPI    C3 5411   2.037   7.461  10.964 -0.0100  0.2763 -0.2169
  339loPI   PO4 5412   1.732   7.660  10.538 -0.0577  0.2760 -0.1961
  339loPI   GL1 5413   1.478   7.838  10.205  0.2763  0.1419 -0.0010
  339loPI   GL2 5414   1.632   7.622  10.014 -0.3650  0.1923  0.1753
  339loPI   C1A 5415   1.522   8.103   9.809  0.0063 -0.1234 -0.1850
  339loPI   C2A 5416   1.600   8.019   9.501  0.1319  0.3073  0.0021
  339loPI   C3A 5417   1.614   7.954   9.105 -0.0196  0.2242 -0.0013
  339loPI   C4A 5418   1.560   7.802   8.633 -0.3259  0.5444  0.0649
  339loPI   C5A 5419   1.596   7.766   8.211 -0.1624  0.3399  0.2110
  339loPI   C6A 5420   1.828   7.992   7.969  0.1795  0.2153 -0.0887
  339loPI   C1B 5421   1.519   7.489   9.646  0.0403 -0.3380  0.1062
  339loPI   C2B 5422   1.575   7.458   9.225 -0.3286 -0.1171 -0.0006
  339loPI   C3B 5423   1.551   7.357   8.844 -0.1291  0.2597 -0.3470
  339loPI   C4B 5424   1.695   7.294   8.447  0.2283  0.0625  0.2818
  340loPI    C1 5425  17.973   5.296  10.710 -0.0870 -0.0993  0.1593
  340loPI    C2 5426  18.262   5.550  10.818 -0.0216 -0.0508 -0.1211
  340loPI    C3 5427  17.923   5.530  11.030  0.0495  0.1344  0.0123
  340loPI   PO4 5428  18.018   5.244  10.478  0.1697 -0.1947 -0.1199
  340loPI   GL1 5429  17.993   5.335  10.124  0.1426 -0.1927  0.0582
  340loPI   GL2 5430  17.749   5.527  10.076  0.0670 -0.1128  0.2586
  340loPI   C1A 5431  17.972   5.446   9.659  0.0290  0.0050  0.2524
  340loPI   C2A 5432  17.940   5.523   9.273 -0.0234 -0.0132 -0.2629
  340loPI   C3A 5433  18.025   5.312   8.818  0.1484 -0.0751  0.1983
  340loPI   C4A 5434  17.898   5.032   8.566 -0.0360 -0.0250 -0.1169
  340loPI   C5A 5435  17.958   4.855   8.110 -0.2022 -0.1435  0.2352
  340loPI   C6A 5436  17.850   4.786   7.613  0.3991 -0.5145 -0.3537
  340loPI   C1B 5437  17.505   5.273   9.774  0.2608 -0.2558 -0.0973
  340loPI   C2B 5438  17.495   5.257   9.348 -0.2033 -0.0128 -0.0147
  340loPI   C3B 5439  17.531   5.090   8.916  0.1058  0.2106  0.2033
  340loPI   C4B 5440  17.391   4.826   8.519 -0.0033  0.0037  0.0147
  341loPI    C1 5441   7.956  13.886  10.767  0.1587  0.2354  0.0405
  341loPI    C2 5442   8.319  13.765  10.883 -0.0327 -0.2057  0.1975
  341loPI    C3 5443   8.025  13.801  11.152 -0.1564 -0.0359  0.0411
  341loPI   PO4 5444   8.088  14.135  10.638 -0.1509  0.0984  0.0322
  341loPI   GL1 5445   8.354  14.404  10.352  0.0783 -0.1375 -0.1161
  341loPI   GL2 5446   8.426  14.154  10.247  0.2269  0.1295  0.0532
  341loPI   C1A 5447   8.130  14.371   9.926 -0.0195  0.2069  0.0314
  341loPI   C2A 5448   8.058  14.430   9.422  0.0932  0.1855  0.0641
  341loPI   C3A 5449   8.104  14.270   9.011  0.0604  0.2659  0.1253
  341loPI   C4A 5450   8.230  14.375   8.652  0.1161  0.0832 -0.0900
  341loPI   C5A 5451   8.083  14.363   8.275  0.0456  0.3451 -0.1574
  341loPI   C6A 5452   7.910  14.323   7.898  0.0539 -0.3108 -0.0380
  341loPI   C1B 5453   8.725  14.089   9.925  0.0523  0.0591  0.1600
  341loPI   C2B 5454   8.701  13.877   9.680 -0.0083  0.1963  0.2298
  341loPI   C3B 5455   8.647  13.935   9.255  0.2049 -0.1409 -0.0249
  341loPI   C4B 5456   8.568  14.101   8.907  0.0454  0.1377 -0.0973
  342loPI    C1 5457  17.954  11.416  10.708  0.1982 -0.2985  0.1244
  342loPI    C2 5458  18.227  11.592  10.941  0.1654 -0.1089  0.0216
  342loPI    C3 5459  17.889  11.450  11.101  0.1481  0.0102  0.0916
  342loPI   PO4 5460  18.083  11.509  10.463  0.4259 -0.2053 -0.1025
  342loPI   GL1 5461  18.334  11.305  10.051  0.1646 -0.3506 -0.0330
  342loPI   GL2 5462  18.222  11.603   9.973  0.1121  0.1612  0.1774
  342loPI   C1A 5463  18.147  11.237   9.646 -0.1290  0.4635  0.1546
  342loPI   C2A 5464  18.073  11.254   9.166 -0.1541 -0.4932  0.1691
  342loPI   C3A 5465  17.998  11.328   8.696 -0.0751  0.1813  0.1398
  342loPI   C4A 5466  17.817  11.338   8.188 -0.2821  0.1294  0.0715
  342loPI   C5A 5467  17.543  11.245   7.895 -0.0100 -0.2833 -0.1323
  342loPI   C6A 5468  17.313  11.397   7.589 -0.3807 -0.0014  0.1787
  342loPI   C1B 5469  18.108  11.763   9.550  0.4243 -0.0910  0.1417
  342loPI   C2B 5470  18.133  11.797   9.129  0.2391 -0.1593  0.0939
  342loPI   C3B 5471  18.101  11.828   8.698 -0.2928  0.1367  0.1761
  342loPI   C4B 5472  17.918  11.941   8.292 -0.0165 -0.0933  0.0431
  343loPI    C1 5473  10.602  16.620  10.695  0.0739  0.1824  0.3282
  343loPI    C2 5474  10.804  16.430  10.406  0.0030  0.2858  0.2095
  343loPI    C3 5475  10.874  16.343  10.790 -0.0478  0.0009  0.1560
  343loPI   PO4 5476  10.539  16.838  10.558  0.1763 -0.0628  0.1184
  343loPI   GL1 5477  10.540  16.856  10.157 -0.1122  0.1115  0.3842
  343loPI   GL2 5478  10.733  16.721   9.991 -0.2138  0.1759  0.0181
  343loPI   C1A 5479  10.385  16.774   9.678 -0.0993 -0.1178 -0.0374
  343loPI   C2A 5480  10.332  16.746   9.299  0.0421  0.2208  0.1954
  343loPI   C3A 5481  10.477  16.797   8.839  0.2876 -0.1543  0.3555
  343loPI   C4A 5482  10.422  16.624   8.440 -0.3535  0.0080 -0.1359
  343loPI   C5A 5483  10.765  16.259   8.273  0.0808  0.1745  0.0522
  343loPI   C6A 5484  10.862  15.964   7.883  0.1763 -0.0192  0.0069
  343loPI   C1B 5485  10.843  16.676   9.565  0.1465 -0.3262 -0.1429
  343loPI   C2B 5486  10.814  16.570   9.172  0.1499  0.0046 -0.0948
  343loPI   C3B 5487  10.948  16.573   8.725  0.2326 -0.0053  0.1465
  343loPI   C4B 5488  11.195  16.401   8.403  0.1597 -0.0025 -0.0219
  344loPI    C1 5489  16.234   4.191  11.276  0.1263  0.0438 -0.1302
  344loPI    C2 5490  15.874   4.326  11.167  0.1480  0.0300 -0.2197
  344loPI    C3 5491  15.984   4.339  11.551  0.1237  0.2043 -0.2178
  344loPI   PO4 5492  16.454   4.298  10.998 -0.4380 -0.2054 -0.1059
  344loPI   GL1 5493  16.431   4.350  10.510 -0.2601 -0.1440  0.0858
  344loPI   GL2 5494  16.788   4.295  10.594 -0.0558  0.1139  0.2436
  344loPI   C1A 5495  16.266   4.340  10.063 -0.1037 -0.0028 -0.2627
  344loPI   C2A 5496  16.190   4.440   9.514 -0.1415  0.2126 -0.0325
  344loPI   C3A 5497  16.161   4.470   9.117  0.0185 -0.1059 -0.0623
  344loPI   C4A 5498  16.098   4.462   8.724  0.2201 -0.1393  0.6018
  344loPI   C5A 5499  16.299   4.412   8.447 -0.3936  0.0851 -0.0921
  344loPI   C6A 5500  16.724   4.348   8.288 -0.0299  0.3048 -0.0024
  344loPI   C1B 5501  16.686   4.138  10.190 -0.0953  0.1521  0.2596
  344loPI   C2B 5502  16.620   4.126   9.760  0.4856 -0.1379 -0.0814
  344loPI   C3B 5503  16.592   4.173   9.281 -0.3709 -0.0270  0.0264
  344loPI   C4B 5504  16.534   4.075   8.871 -0.0727 -0.1620  0.0619
  345loPI    C1 5505  14.820   0.055  11.083  0.0392  0.1416 -0.0304
  345loPI    C2 5506  14.888  -0.333  11.013 -0.1487  0.0785  0.1281
  345loPI    C3 5507  15.074  -0.149  11.315 -0.2960  0.0320  0.2480
  345loPI   PO4 5508  14.676   0.065  10.771  0.1027  0.1487 -0.1257
  345loPI   GL1 5509  14.598   0.169  10.357  0.0705  0.0187 -0.3823
  345loPI   GL2 5510  14.807   0.391  10.321 -0.0930 -0.1359 -0.1467
  345loPI   C1A 5511  14.457  -0.018   9.958  0.0705  0.2167  0.0709
  345loPI   C2A 5512  14.577   0.071   9.596  0.0443  0.0118 -0.1029
  345loPI   C3A 5513  14.597  -0.028   9.146 -0.2419 -0.2339 -0.2768
  345loPI   C4A 5514  14.556  -0.016   8.677  0.0638  0.6571  0.2974
  345loPI   C5A 5515  14.334   0.143   8.371  0.2352 -0.0053  0.0252
  345loPI   C6A 5516  14.185  -0.174   8.101 -0.1312  0.2140  0.0344
  345loPI   C1B 5517  14.749   0.421   9.931 -0.0940  0.0301  0.2477
  345loPI   C2B 5518  14.846   0.503   9.601  0.1174 -0.1976 -0.0866
  345loPI   C3B 5519  15.008   0.727   9.237  0.1359  0.2497 -0.3659
  345loPI   C4B 5520  15.163   0.643   8.815  0.0868 -0.1766 -0.3159
  346loPI    C1 5521  13.405   6.378  10.537 -0.3977 -0.0501 -0.1100
  346loPI    C2 5522  13.213   6.717  10.628 -0.3018 -0.0371  0.0477
  346loPI    C3 5523  13.168   6.394  10.859 -0.0865 -0.0156  0.1221
  346loPI   PO4 5524  13.423   6.427  10.245  0.1299  0.2928  0.0162
  346loPI   GL1 5525  13.311   6.653   9.816  0.0455  0.0832 -0.0972
  346loPI   GL2 5526  13.028   6.423   9.768  0.0062  0.2770 -0.1204
  346loPI   C1A 5527  13.418   6.592   9.482  0.1215  0.0426 -0.1159
  346loPI   C2A 5528  13.414   6.579   9.022 -0.0398  0.1699 -0.1565
  346loPI   C3A 5529  13.355   6.526   8.542 -0.0841 -0.0944 -0.0362
  346loPI   C4A 5530  13.330   6.342   8.190  0.0570  0.2364  0.1253
  346loPI   C5A 5531  13.081   6.409   7.930  0.1868  0.0992 -0.0569
  346loPI   C6A 5532  12.712   6.508   7.777  0.2681  0.0368 -0.0072
  346loPI   C1B 5533  12.910   6.325   9.312 -0.1282 -0.0867 -0.0313
  346loPI   C2B 5534  12.933   6.296   8.849  0.0208  0.2438 -0.3097
  346loPI   C3B 5535  12.853   6.213   8.400  0.1141 -0.1114 -0.0472
  346loPI   C4B 5536  12.820   5.958   8.051 -0.0126 -0.1282 -0.2896
  347loPI    C1 5537  16.675   1.391  11.122  0.2243 -0.0098 -0.2128
  347loPI    C2 5538  16.996   1.428  11.358  0.0033 -0.0778  0.1039
  347loPI    C3 5539  16.706   1.703  11.371 -0.0759 -0.1566  0.0146
  347loPI   PO4 5540  16.840   1.405  10.897  0.1400  0.0669 -0.1588
  347loPI   GL1 5541  16.865   1.165  10.444  0.2526 -0.0995  0.0933
  347loPI   GL2 5542  17.026   1.372  10.409  0.2933 -0.1840  0.0254
  347loPI   C1A 5543  16.909   1.200   9.995 -0.0248 -0.0243 -0.0695
  347loPI   C2A 5544  16.870   1.138   9.555 -0.0372  0.0693 -0.1054
  347loPI   C3A 5545  16.955   1.087   9.185  0.0280  0.0378  0.3310
  347loPI   C4A 5546  16.879   1.071   8.695  0.1438  0.3111  0.0104
  347loPI   C5A 5547  16.761   0.919   8.353  0.0896  0.1792 -0.4678
  347loPI   C6A 5548  16.381   0.734   8.129 -0.0074  0.0784 -0.1234
  347loPI   C1B 5549  17.389   1.356  10.124 -0.1089  0.0144 -0.2033
  347loPI   C2B 5550  17.356   1.347   9.717  0.3276 -0.0456  0.2017
  347loPI   C3B 5551  17.366   1.364   9.260 -0.1878  0.0896 -0.0166
  347loPI   C4B 5552  17.332   1.249   8.909 -0.6718 -0.0218  0.1332
  348loPI    C1 5553   8.810   2.275  10.204 -0.0002 -0.1052  0.3212
  348loPI    C2 5554   8.511   2.123  10.422 -0.0661 -0.2624  0.1238
  348loPI    C3 5555   8.828   2.285  10.604 -0.0653 -0.4976  0.3380
  348loPI   PO4 5556   8.664   2.131   9.931  0.2731  0.0644  0.4288
  348loPI   GL1 5557   8.718   2.369   9.561  0.2422  0.1460  0.0970
  348loPI   GL2 5558   8.394   2.453   9.333 -0.2489 -0.0016 -0.0095
  348loPI   C1A 5559   9.167   2.348   9.305 -0.0991 -0.1430  0.0538
  348loPI   C2A 5560   9.186   2.396   8.828 -0.0546  0.1004  0.2331
  348loPI   C3A 5561   9.184   2.309   8.400 -0.0511  0.0798 -0.0529
  348loPI   C4A 5562   9.073   2.519   8.110 -0.5071  0.1450 -0.0688
  348loPI   C5A 5563   9.189   2.550   7.627  0.1135  0.0418  0.1802
  348loPI   C6A 5564   9.407   2.201   7.328  0.2152 -0.3227  0.0459
  348loPI   C1B 5565   8.167   2.722   8.976  0.2074 -0.2429  0.2908
  348loPI   C2B 5566   8.073   2.693   8.478 -0.1219 -0.2154  0.1340
  348loPI   C3B 5567   8.088   2.756   8.014 -0.0587  0.3858 -0.2618
  348loPI   C4B 5568   8.193   3.131   7.729 -0.2957  0.1062 -0.2183
  349loPI    C1 5569   1.123   5.344  10.730 -0.0043  0.1318 -0.2616
  349loPI    C2 5570   1.447   5.454  10.936 -0.1150  0.1610 -0.1009
  349loPI    C3 5571   1.161   5.722  10.854 -0.1589  0.1054 -0.1299
  349loPI   PO4 5572   1.209   5.021  10.735 -0.0513  0.0695 -0.0492
  349loPI   GL1 5573   1.231   4.896  10.359  0.0951 -0.1381  0.1585
  349loPI   GL2 5574   1.410   5.220  10.274  0.0136  0.3154  0.1717
  349loPI   C1A 5575   1.488   4.763  10.013  0.1095 -0.1747  0.1203
  349loPI   C2A 5576   1.606   4.874   9.721  0.1074 -0.1470 -0.0351
  349loPI   C3A 5577   1.585   4.900   9.391  0.1400  0.1062 -0.0225
  349loPI   C4A 5578   1.475   4.802   8.919  0.3368 -0.1854 -0.0634
  349loPI   C5A 5579   1.386   4.713   8.470 -0.1176  0.4191 -0.1547
  349loPI   C6A 5580   1.467   4.667   8.068  0.1463 -0.1276 -0.0852
  349loPI   C1B 5581   1.588   5.389   9.960 -0.2139  0.0785 -0.1676
  349loPI   C2B 5582   1.544   5.432   9.485  0.0451  0.1142 -0.0530
  349loPI   C3B 5583   1.595   5.343   9.047  0.1197  0.3728 -0.2409
  349loPI   C4B 5584   1.749   5.250   8.591  0.4707  0.0585 -0.3897
  350loPI    C1 5585   5.812   1.537  10.305 -0.1102 -0.1713  0.2192
  350loPI    C2 5586   6.020   1.731  10.588  0.0123  0.3189 -0.1913
  350loPI    C3 5587   5.636   1.823  10.523 -0.1591 -0.1312  0.1273
  350loPI   PO4 5588   5.875   1.598  10.137  0.0783  0.0192  0.0575
  350loPI   GL1 5589   6.051   1.899   9.720 -0.1239  0.0913 -0.1133
  350loPI   GL2 5590   5.931   1.684   9.637 -0.1294  0.0666  0.1878
  350loPI   C1A 5591   6.118   2.142   9.363 -0.0339 -0.2340  0.2642
  350loPI   C2A 5592   5.908   2.395   9.066  0.1230  0.1876 -0.0516
  350loPI   C3A 5593   5.763   2.486   8.615  0.1357 -0.1999 -0.1907
  350loPI   C4A 5594   5.701   2.469   8.171 -0.2381  0.0216 -0.0267
  350loPI   C5A 5595   5.620   2.346   7.802 -0.0155  0.1221  0.0118
  350loPI   C6A 5596   5.379   2.222   7.452 -0.0206 -0.1049 -0.0965
  350loPI   C1B 5597   5.729   1.803   9.197 -0.1064 -0.2925  0.0355
  350loPI   C2B 5598   5.725   1.613   8.783 -0.0982  0.1796 -0.3426
  350loPI   C3B 5599   5.571   1.557   8.340 -0.2110  0.4329  0.1304
  350loPI   C4B 5600   5.363   1.442   8.008  0.0570  0.0036  0.0651
  351loPI    C1 5601   0.809  11.305  10.757  0.0255 -0.0957 -0.0167
  351loPI    C2 5602   1.106  11.488  10.953  0.0091 -0.0770 -0.0093
  351loPI    C3 5603   1.010  11.111  11.044 -0.2587  0.0604  0.2947
  351loPI   PO4 5604   0.858  11.414  10.472 -0.0773  0.0693  0.1089
  351loPI   GL1 5605   0.624  11.302  10.120 -0.1288 -0.0049 -0.0220
  351loPI   GL2 5606   0.902  11.060  10.043  0.0126  0.0023  0.2173
  351loPI   C1A 5607   0.427  11.425   9.724 -0.0814  0.3774 -0.3490
  351loPI   C2A 5608   0.316  11.523   9.322  0.1367  0.1552  0.1536
  351loPI   C3A 5609   0.220  11.462   8.894 -0.2084  0.2508 -0.0389
  351loPI   C4A 5610   0.273  11.604   8.521 -0.3767  0.1296  0.4684
  351loPI   C5A 5611   0.125  11.442   8.128 -0.1877  0.3712  0.1945
  351loPI   C6A 5612  -0.033  11.211   7.786  0.2737 -0.1922 -0.1398
  351loPI   C1B 5613   0.841  11.205   9.678  0.2011  0.2675 -0.0516
  351loPI   C2B 5614   0.680  11.114   9.397 -0.1795  0.1113 -0.0841
  351loPI   C3B 5615   0.691  11.206   9.053  0.0947 -0.3263 -0.1290
  351loPI   C4B 5616   0.674  11.255   8.659 -0.0779 -0.0924 -0.1238
  352loPI    C1 5617  12.807  10.927  10.226  0.0736 -0.0277 -0.1121
  352loPI    C2 5618  13.071  10.871  10.521  0.1134 -0.0493 -0.1515
  352loPI    C3 5619  12.777  10.606  10.463  0.1047 -0.0444 -0.1306
  352loPI   PO4 5620  13.003  11.026  10.011 -0.0961 -0.0065  0.0378
  352loPI   GL1 5621  12.921  11.008   9.597 -0.1107 -0.3894  0.1067
  352loPI   GL2 5622  12.864  11.334   9.485 -0.5804  0.0950  0.2607
  352loPI   C1A 5623  12.889  10.865   9.172 -0.1197  0.0960  0.3083
  352loPI   C2A 5624  13.058  10.944   8.769  0.2639  0.1649 -0.2299
  352loPI   C3A 5625  12.871  10.904   8.382 -0.4660 -0.3376  0.0933
  352loPI   C4A 5626  13.009  10.924   7.943  0.1550  0.0157  0.2128
  352loPI   C5A 5627  13.295  10.747   7.621  0.0183  0.2959  0.2552
  352loPI   C6A 5628  13.716  10.902   7.367 -0.0418  0.2089  0.1541
  352loPI   C1B 5629  12.936  11.357   8.996  0.1231 -0.0672  0.0756
  352loPI   C2B 5630  12.947  11.368   8.529  0.2343 -0.2316  0.0298
  352loPI   C3B 5631  13.005  11.574   8.110  0.0813  0.1249  0.2329
  352loPI   C4B 5632  12.939  11.452   7.604 -0.1495 -0.0306 -0.1874
  353loPI    C1 5633   8.991   0.223  10.370  0.3560  0.0159  0.2288
  353loPI    C2 5634   8.980   0.107  10.752 -0.1113  0.1321  0.2572
  353loPI    C3 5635   8.639   0.186  10.558  0.1254  0.1411 -0.1652
  353loPI   PO4 5636   9.094   0.456  10.249  0.0768  0.1985  0.1830
  353loPI   GL1 5637   9.365   0.661   9.965  0.6155  0.1991 -0.1188
  353loPI   GL2 5638   9.234   0.325   9.789  0.0504  0.1480  0.3301
  353loPI   C1A 5639   9.690   0.791   9.657  0.0711 -0.0300  0.2852
  353loPI   C2A 5640   9.652   0.790   9.214  0.3202 -0.0530  0.0267
  353loPI   C3A 5641   9.629   0.603   8.801 -0.2069  0.2698 -0.0690
  353loPI   C4A 5642   9.753   0.518   8.400 -0.1499 -0.4331  0.4737
  353loPI   C5A 5643   9.679   0.129   8.098  0.0286 -0.0323 -0.0011
  353loPI   C6A 5644   9.476  -0.279   7.931  0.0575 -0.0148 -0.0772
  353loPI   C1B 5645   9.115  -0.030   9.559 -0.0943 -0.0721 -0.2172
  353loPI   C2B 5646   8.927  -0.129   9.188 -0.1234  0.0151  0.0562
  353loPI   C3B 5647   8.902  -0.111   8.772 -0.4256 -0.2243 -0.0288
  353loPI   C4B 5648   8.790   0.137   8.332  0.1191  0.0759  0.1850
  354loPI    C1 5649   0.419   8.510  10.822  0.1756 -0.2722  0.0191
  354loPI    C2 5650   0.267   8.154  10.923  0.0022 -0.1705  0.1209
  354loPI    C3 5651   0.242   8.462  11.177 -0.0107 -0.0375 -0.0397
  354loPI   PO4 5652   0.333   8.526  10.528 -0.1513 -0.0136 -0.2242
  354loPI   GL1 5653   0.305   8.556  10.060  0.0262  0.2370  0.2520
  354loPI   GL2 5654   0.586   8.589  10.056 -0.1473  0.0351 -0.1160
  354loPI   C1A 5655   0.234   8.328   9.647  0.4499 -0.1388 -0.1467
  354loPI   C2A 5656   0.303   8.298   9.191  0.0896 -0.0636 -0.4033
  354loPI   C3A 5657   0.169   8.185   8.859 -0.2097 -0.2253  0.3750
  354loPI   C4A 5658   0.084   8.184   8.378 -0.0687  0.1454 -0.0563
  354loPI   C5A 5659   0.302   7.957   8.032 -0.0262  0.0663  0.1277
  354loPI   C6A 5660   0.325   8.023   7.552 -0.0210 -0.3324  0.0212
  354loPI   C1B 5661   0.658   8.604   9.643 -0.0105 -0.0147  0.2274
  354loPI   C2B 5662   0.717   8.576   9.213 -0.0255  0.1461  0.1261
  354loPI   C3B 5663   0.586   8.449   8.726  0.3188 -0.0375 -0.1331
  354loPI   C4B 5664   0.587   8.225   8.376  0.2943  0.0387 -0.2086
  355loPI    C1 5665  13.464  12.802  10.474 -0.1361 -0.3077 -0.0962
  355loPI    C2 5666  13.378  12.514  10.739 -0.1274  0.0302  0.2825
  355loPI    C3 5667  13.333  12.899  10.839 -0.0353  0.1677 -0.1802
  355loPI   PO4 5668  13.454  12.604  10.243  0.0881  0.0469 -0.0170
  355loPI   GL1 5669  13.526  12.588   9.859 -0.0631 -0.1789  0.0349
  355loPI   GL2 5670  13.154  12.620   9.773 -0.1215  0.0779 -0.0205
  355loPI   C1A 5671  13.709  12.482   9.461 -0.3984 -0.2619  0.0281
  355loPI   C2A 5672  13.997  12.602   9.116 -0.1385 -0.0551 -0.1572
  355loPI   C3A 5673  14.058  12.593   8.789 -0.1377 -0.1178  0.2235
  355loPI   C4A 5674  14.030  12.611   8.408 -0.0923 -0.1794  0.4305
  355loPI   C5A 5675  14.032  12.726   8.014  0.1737 -0.1623 -0.0830
  355loPI   C6A 5676  14.347  12.879   7.741  0.2496 -0.1185 -0.2194
  355loPI   C1B 5677  13.261  12.597   9.353  0.1433 -0.0600  0.1509
  355loPI   C2B 5678  13.215  12.587   8.928 -0.0332 -0.0358  0.0488
  355loPI   C3B 5679  13.060  12.666   8.487 -0.1224  0.0328  0.1921
  355loPI   C4B 5680  13.114  12.930   8.133  0.1036  0.0012  0.1209
  356loPI    C1 5681  16.040  17.875  10.828  0.0798 -0.0517  0.0003
  356loPI    C2 5682  16.125  17.689  11.172  0.0369 -0.1954 -0.0661
  356loPI    C3 5683  15.795  17.592  10.968 -0.0257  0.0076 -0.0635
  356loPI   PO4 5684  16.249  17.840  10.678  0.0141  0.0637  0.3000
  356loPI   GL1 5685  16.519  17.828  10.330  0.0125 -0.0806  0.2799
  356loPI   GL2 5686  16.254  17.645  10.237  0.3369 -0.0761 -0.3007
  356loPI   C1A 5687  16.743  17.956   9.918 -0.1002  0.1510 -0.1347
  356loPI   C2A 5688  16.812  17.826   9.444  0.3001 -0.1653 -0.0374
  356loPI   C3A 5689  16.861  17.717   9.027 -0.2454 -0.1096 -0.0654
  356loPI   C4A 5690  16.798  17.697   8.615 -0.2135  0.1428  0.1037
  356loPI   C5A 5691  16.715  17.717   8.205 -0.0656  0.0622  0.3298
  356loPI   C6A 5692  16.845  17.772   7.745 -0.2210  0.0074 -0.0796
  356loPI   C1B 5693  16.396  17.578   9.810 -0.2124 -0.0101  0.0123
  356loPI   C2B 5694  16.373  17.650   9.373 -0.0778  0.0668 -0.0073
  356loPI   C3B 5695  16.406  17.537   8.977 -0.1071  0.0351 -0.2909
  356loPI   C4B 5696  16.274  17.404   8.516  0.0120  0.0602 -0.0264
  357loPI    C1 5697  17.133   8.938  10.184 -0.0996 -0.0002  0.0647
  357loPI    C2 5698  17.000   8.780  10.526 -0.0396 -0.0220  0.0779
  357loPI    C3 5699  17.383   8.889  10.491 -0.0486 -0.0077  0.0222
  357loPI   PO4 5700  16.971   9.083  10.138 -0.0002  0.2501 -0.3675
  357loPI   GL1 5701  16.635   9.188   9.814  0.0189 -0.0847 -0.0799
  357loPI   GL2 5702  16.363   9.039   9.844 -0.2282 -0.3344 -0.1633
  357loPI   C1A 5703  16.697   8.934   9.470 -0.0896 -0.0155 -0.0933
  357loPI   C2A 5704  16.645   8.882   9.079 -0.2558 -0.1078 -0.1644
  357loPI   C3A 5705  16.634   8.992   8.651  0.1601  0.1181 -0.0625
  357loPI   C4A 5706  16.707   9.061   8.167  0.1656 -0.0412  0.0752
  357loPI   C5A 5707  16.510   9.384   7.817  0.1443 -0.1257 -0.1907
  357loPI   C6A 5708  16.507   9.791   7.703 -0.2199  0.1404  0.0343
  357loPI   C1B 5709  16.174   8.924   9.429  0.2485  0.2982 -0.0318
  357loPI   C2B 5710  16.155   8.842   8.969  0.1752 -0.2031  0.3315
  357loPI   C3B 5711  16.194   8.770   8.512 -0.1113  0.1082 -0.1150
  357loPI   C4B 5712  16.235   8.671   8.096  0.0581 -0.1485  0.0398
  358loPI    C1 5713   6.942  12.047  10.531 -0.0075 -0.0279 -0.1694
  358loPI    C2 5714   7.244  11.870  10.339  0.0865  0.0636 -0.1065
  358loPI    C3 5715   7.211  11.832  10.735 -0.0136  0.0116 -0.1196
  358loPI   PO4 5716   6.863  12.186  10.356  0.2922  0.0194 -0.3483
  358loPI   GL1 5717   6.725  12.257   9.945 -0.0253  0.1154  0.3055
  358loPI   GL2 5718   6.923  12.508   9.937  0.0463  0.0570 -0.1455
  358loPI   C1A 5719   7.068  12.198   9.488 -0.3142  0.0939 -0.0999
  358loPI   C2A 5720   7.202  12.220   9.060  0.0790 -0.2457 -0.1438
  358loPI   C3A 5721   7.146  12.267   8.524  0.1260  0.1976 -0.2614
  358loPI   C4A 5722   7.381  12.208   8.187 -0.0777  0.0431  0.0111
  358loPI   C5A 5723   7.325  11.820   7.961  0.0602 -0.0358  0.2132
  358loPI   C6A 5724   6.984  11.448   7.961  0.1276  0.0635  0.0400
  358loPI   C1B 5725   6.698  12.498   9.537 -0.1479 -0.0078  0.1595
  358loPI   C2B 5726   6.713  12.415   9.165  0.1890  0.0598 -0.0099
  358loPI   C3B 5727   6.787  12.460   8.886  0.0546  0.3165  0.1875
  358loPI   C4B 5728   6.674  12.536   8.487  0.3138  0.0856  0.0435
  359loPI    C1 5729   8.651   9.061  10.590  0.2066  0.0317  0.0315
  359loPI    C2 5730   8.790   9.435  10.617 -0.1327  0.1706 -0.0903
  359loPI    C3 5731   8.754   9.210  10.946  0.2007  0.1951 -0.0344
  359loPI   PO4 5732   8.610   8.995  10.319  0.0418 -0.1112  0.1646
  359loPI   GL1 5733   8.513   8.808   9.886 -0.1484 -0.0001 -0.1519
  359loPI   GL2 5734   8.534   9.133   9.862 -0.0905  0.0718  0.1690
  359loPI   C1A 5735   8.507   8.759   9.426 -0.1321 -0.1879 -0.1526
  359loPI   C2A 5736   8.560   8.776   9.042 -0.1706  0.0984  0.1004
  359loPI   C3A 5737   8.510   8.849   8.598  0.1225 -0.1738 -0.3831
  359loPI   C4A 5738   8.521   8.891   8.184  0.2566 -0.2538  0.1631
  359loPI   C5A 5739   8.812   8.894   7.793 -0.0958 -0.0612 -0.1634
  359loPI   C6A 5740   8.804   9.045   7.427 -0.3736 -0.2468  0.0176
  359loPI   C1B 5741   8.484   9.267   9.389  0.0025 -0.2877  0.3078
  359loPI   C2B 5742   8.440   9.253   8.964  0.5019 -0.2437 -0.2129
  359loPI   C3B 5743   8.525   9.340   8.455  0.2456 -0.0394 -0.2568
  359loPI   C4B 5744   8.622   9.469   8.035 -0.0522 -0.1834  0.0346
  360loPI    C1 5745   1.882  15.091  10.477  0.0946 -0.0059 -0.0012
  360loPI    C2 5746   1.684  14.780  10.634  0.1645  0.0807  0.2641
  360loPI    C3 5747   1.582  15.154  10.734  0.1602  0.1411  0.0408
  360loPI   PO4 5748   1.872  15.084  10.238  0.0707  0.5241 -0.3272
  360loPI   GL1 5749   1.854  14.883   9.949 -0.1126 -0.1002 -0.0280
  360loPI   GL2 5750   2.189  14.729   9.840  0.2388  0.1736 -0.0198
  360loPI   C1A 5751   1.680  14.872   9.528 -0.3848 -0.2474 -0.2558
  360loPI   C2A 5752   1.663  14.878   9.008  0.0504 -0.2447  0.0551
  360loPI   C3A 5753   1.643  14.781   8.524  0.1482  0.4075 -0.2228
  360loPI   C4A 5754   1.902  14.831   8.076  0.0950 -0.0921 -0.2050
  360loPI   C5A 5755   1.986  15.198   7.631  0.0234  0.4007 -0.0197
  360loPI   C6A 5756   2.262  15.219   7.384  0.2256 -0.0382 -0.1558
  360loPI   C1B 5757   2.126  14.654   9.372 -0.1824 -0.0380 -0.2096
  360loPI   C2B 5758   2.085  14.616   8.858 -0.1489 -0.3652 -0.1343
  360loPI   C3B 5759   2.118  14.655   8.466  0.1732  0.1016 -0.1545
  360loPI   C4B 5760   2.300  14.475   8.100  0.0939  0.4804 -0.0334
  361loPI    C1 5761  10.854   2.774  10.137 -0.0856 -0.0185 -0.2826
  361loPI    C2 5762  10.725   2.733  10.513  0.3065 -0.1688 -0.1597
  361loPI    C3 5763  10.535   2.546  10.215 -0.1580  0.1501 -0.0748
  361loPI   PO4 5764  11.003   2.905  10.113  0.0101 -0.0552  0.0158
  361loPI   GL1 5765  11.272   2.897   9.850  0.1606  0.0774  0.0624
  361loPI   GL2 5766  11.038   2.994   9.613 -0.3329  0.2681 -0.0977
  361loPI   C1A 5767  11.333   2.468   9.671  0.2146 -0.1720  0.1445
  361loPI   C2A 5768  11.409   2.366   9.281 -0.1870 -0.1467  0.0123
  361loPI   C3A 5769  11.410   2.281   8.907 -0.2660  0.2422 -0.3353
  361loPI   C4A 5770  11.237   2.365   8.508 -0.0952  0.1716 -0.3408
  361loPI   C5A 5771  11.536   2.381   8.072 -0.0242 -0.1052 -0.0612
  361loPI   C6A 5772  11.932   2.436   7.788 -0.1592 -0.0783 -0.0987
  361loPI   C1B 5773  11.199   2.832   9.275  0.1016 -0.1145 -0.2740
  361loPI   C2B 5774  11.185   2.697   8.840  0.5162 -0.2399  0.0288
  361loPI   C3B 5775  11.048   2.855   8.377  0.0702 -0.0313 -0.2427
  361loPI   C4B 5776  11.088   2.870   7.930  0.1474  0.1324 -0.0119
  362loPI    C1 5777   4.552  11.443  10.734 -0.2902  0.0067  0.0120
  362loPI    C2 5778   4.394  11.574  11.078 -0.0007 -0.0164  0.1576
  362loPI    C3 5779   4.769  11.437  11.070  0.0543  0.1412 -0.2026
  362loPI   PO4 5780   4.337  11.569  10.492 -0.1089 -0.0527  0.0844
  362loPI   GL1 5781   4.220  11.312  10.088 -0.0315  0.2728  0.0193
  362loPI   GL2 5782   3.992  11.572  10.163 -0.3861 -0.0292 -0.1227
  362loPI   C1A 5783   4.393  11.227   9.727  0.0026 -0.1075 -0.0329
  362loPI   C2A 5784   4.335  11.154   9.315  0.2246  0.0470  0.1327
  362loPI   C3A 5785   4.328  11.047   8.822 -0.3537 -0.0151 -0.0570
  362loPI   C4A 5786   4.389  11.072   8.441  0.1457  0.1577 -0.1167
  362loPI   C5A 5787   4.406  11.357   8.150  0.1959  0.2458 -0.2051
  362loPI   C6A 5788   4.486  11.772   7.822 -0.2781  0.0126 -0.1761
  362loPI   C1B 5789   3.974  11.574   9.679 -0.0069 -0.0239  0.0178
  362loPI   C2B 5790   3.899  11.537   9.279 -0.3752  0.1100  0.1456
  362loPI   C3B 5791   3.839  11.357   8.820 -0.0884  0.0567 -0.0680
  362loPI   C4B 5792   3.843  11.361   8.411  0.0765 -0.0061 -0.1575
  363loPI    C1 5793   3.531  17.239  10.215  0.0308 -0.0395  0.2463
  363loPI    C2 5794   3.268  16.937  10.214  0.2137 -0.2000  0.1571
  363loPI    C3 5795   3.411  17.077  10.561 -0.1145  0.0005  0.2154
  363loPI   PO4 5796   3.717  17.175  10.028 -0.2129  0.0301  0.2191
  363loPI   GL1 5797   3.797  17.247   9.616 -0.1029  0.2023  0.1506
  363loPI   GL2 5798   4.098  17.237   9.621  0.1912  0.2170 -0.2129
  363loPI   C1A 5799   3.604  17.112   9.260  0.0414 -0.3303  0.2038
  363loPI   C2A 5800   3.505  17.145   8.952 -0.0396  0.1805  0.0105
  363loPI   C3A 5801   3.401  17.014   8.621  0.0995 -0.0576 -0.0974
  363loPI   C4A 5802   3.274  16.987   8.238 -0.0208  0.4139  0.2535
  363loPI   C5A 5803   3.382  17.010   7.779 -0.5663 -0.2350  0.0990
  363loPI   C6A 5804   3.290  17.419   7.498  0.0983 -0.1487 -0.1278
  363loPI   C1B 5805   4.086  17.116   9.184 -0.3072  0.1136 -0.0223
  363loPI   C2B 5806   4.000  17.284   8.817  0.0350 -0.2739  0.3251
  363loPI   C3B 5807   3.817  17.167   8.354 -0.1301 -0.2302 -0.1752
  363loPI   C4B 5808   3.863  16.940   7.993 -0.0924 -0.1532  0.1802
  364loPI    C1 5809   2.766  13.815  10.523 -0.0266  0.3905  0.0170
  364loPI    C2 5810   3.046  13.726  10.795 -0.0337  0.1122 -0.0635
  364loPI    C3 5811   2.659  13.707  10.893 -0.0330  0.1490 -0.0534
  364loPI   PO4 5812   2.841  13.687  10.292  0.0537 -0.1562  0.1604
  364loPI   GL1 5813   3.082  13.625   9.882 -0.2992  0.0514 -0.0446
  364loPI   GL2 5814   3.077  13.961   9.970 -0.4741  0.3030 -0.1896
  364loPI   C1A 5815   3.048  13.649   9.503 -0.1563  0.4124 -0.1352
  364loPI   C2A 5816   3.072  13.638   9.030  0.2724  0.1985 -0.0648
  364loPI   C3A 5817   3.106  13.579   8.710  0.2273  0.1349 -0.0040
  364loPI   C4A 5818   3.070  13.493   8.246 -0.2038 -0.3962 -0.3742
  364loPI   C5A 5819   3.098  13.296   7.835 -0.0211  0.1042 -0.3524
  364loPI   C6A 5820   3.000  13.080   7.435  0.2342 -0.0824 -0.0922
  364loPI   C1B 5821   3.037  14.137   9.603  0.0234  0.0270  0.2454
  364loPI   C2B 5822   2.985  14.121   9.209  0.0669  0.1786  0.1469
  364loPI   C3B 5823   3.102  14.087   8.789  0.0490  0.0635  0.2149
  364loPI   C4B 5824   3.193  14.006   8.461 -0.2641  0.0484 -0.1732
  365loPI    C1 5825  14.634  13.788  10.568 -0.0210 -0.1232  0.1027
  365loPI    C2 5826  15.023  13.834  10.647 -0.0108  0.0951 -0.0634
  365loPI    C3 5827  14.801  13.588  10.871  0.2372 -0.0877 -0.0135
  365loPI   PO4 5828  14.689  13.909  10.304  0.1505 -0.2494 -0.0538
  365loPI   GL1 5829  14.899  14.000  10.034  0.2054 -0.2771 -0.0183
  365loPI   GL2 5830  15.210  14.167   9.925 -0.3855 -0.1882  0.1425
  365loPI   C1A 5831  14.959  14.048   9.557  0.0684  0.2165 -0.0597
  365loPI   C2A 5832  14.935  14.250   9.158  0.1142  0.1284  0.1259
  365loPI   C3A 5833  14.922  14.208   8.604 -0.2394  0.3719  0.0462
  365loPI   C4A 5834  15.112  14.107   8.142  0.0261  0.2405 -0.1649
  365loPI   C5A 5835  15.579  14.162   7.978  0.0500 -0.1569  0.1752
  365loPI   C6A 5836  16.022  14.437   8.003 -0.0034  0.0246  0.2458
  365loPI   C1B 5837  15.346  14.394   9.599 -0.0772  0.0922 -0.0072
  365loPI   C2B 5838  15.500  14.383   9.220 -0.1557  0.0112 -0.2298
  365loPI   C3B 5839  15.373  14.361   8.803  0.0094  0.1954  0.0056
  365loPI   C4B 5840  15.314  14.470   8.434 -0.3355  0.2848  0.1818
  366loPI    C1 5841   2.327  10.019  10.772 -0.0147 -0.1757 -0.0519
  366loPI    C2 5842   2.589   9.962  11.069 -0.1191 -0.1796  0.0403
  366loPI    C3 5843   2.201  10.011  11.152 -0.1548 -0.2223 -0.0988
  366loPI   PO4 5844   2.318   9.829  10.615 -0.0491  0.0059  0.0235
  366loPI   GL1 5845   1.993   9.604  10.271 -0.0017 -0.3687  0.1809
  366loPI   GL2 5846   1.999   9.295  10.149  0.3662 -0.1009 -0.2706
  366loPI   C1A 5847   2.131   9.860   9.895 -0.0362  0.0546  0.0420
  366loPI   C2A 5848   2.126   9.809   9.477 -0.0410 -0.3218  0.5684
  366loPI   C3A 5849   2.109   9.876   8.986 -0.2048  0.1340  0.2870
  366loPI   C4A 5850   2.063   9.789   8.607  0.1805  0.0262 -0.2589
  366loPI   C5A 5851   1.883   9.657   8.253  0.0505 -0.0524 -0.1691
  366loPI   C6A 5852   1.558   9.791   7.997 -0.2631  0.1818  0.0306
  366loPI   C1B 5853   1.976   9.383   9.665  0.1337 -0.2123  0.2298
  366loPI   C2B 5854   2.030   9.431   9.174 -0.1098 -0.1408 -0.0151
  366loPI   C3B 5855   2.072   9.347   8.697 -0.0337 -0.0544  0.0648
  366loPI   C4B 5856   2.091   9.059   8.296  0.0203  0.1604 -0.0381
  367loPI    C1 5857   7.660  12.638  10.726  0.2148 -0.0875 -0.0699
  367loPI    C2 5858   7.841  12.852  11.011  0.0955  0.0397 -0.0888
  367loPI    C3 5859   7.750  12.468  11.077  0.1101  0.0558  0.0275
  367loPI   PO4 5860   7.802  12.539  10.455 -0.0960 -0.1598  0.0587
  367loPI   GL1 5861   7.865  12.484   9.958  0.2066  0.0855 -0.1934
  367loPI   GL2 5862   8.020  12.261   9.925 -0.1817  0.3191 -0.1136
  367loPI   C1A 5863   8.073  12.672   9.586  0.0178  0.0618  0.0610
  367loPI   C2A 5864   8.117  12.795   9.206  0.0402  0.2534 -0.2842
  367loPI   C3A 5865   8.124  12.677   8.760 -0.0576 -0.0618  0.0829
  367loPI   C4A 5866   8.146  12.890   8.322  0.0614  0.2743 -0.0260
  367loPI   C5A 5867   7.882  12.930   8.023  0.2714 -0.0126 -0.0856
  367loPI   C6A 5868   7.424  12.828   8.060 -0.0865 -0.4390  0.4401
  367loPI   C1B 5869   8.058  12.152   9.506  0.0239 -0.0021  0.0089
  367loPI   C2B 5870   8.070  12.219   9.041 -0.1851  0.0752  0.0083
  367loPI   C3B 5871   8.101  12.211   8.625  0.5075 -0.2949  0.2895
  367loPI   C4B 5872   7.930  12.130   8.105  0.1980 -0.0626 -0.1734
  368loPI    C1 5873   4.296   4.560  10.979 -0.0870  0.0937  0.4055
  368loPI    C2 5874   4.571   4.270  10.965 -0.0665  0.1288 -0.0802
  368loPI    C3 5875   4.633   4.593  11.193  0.2820  0.1229 -0.1605
  368loPI   PO4 5876   4.323   4.631  10.707  0.0635  0.2285  0.0853
  368loPI   GL1 5877   4.330   4.804  10.333 -0.4969 -0.2615 -0.1310
  368loPI   GL2 5878   4.015   4.986  10.212 -0.2833  0.2606 -0.0203
  368loPI   C1A 5879   4.339   4.619   9.916 -0.1798 -0.0140 -0.1866
  368loPI   C2A 5880   4.282   4.653   9.501  0.1811  0.1588 -0.0104
  368loPI   C3A 5881   4.404   4.743   9.040  0.1045  0.2240  0.1529
  368loPI   C4A 5882   4.500   4.764   8.561  0.2866  0.0206 -0.1733
  368loPI   C5A 5883   4.329   4.863   8.213 -0.0851  0.1507 -0.3109
  368loPI   C6A 5884   4.178   5.133   7.809  0.0916 -0.0807 -0.2622
  368loPI   C1B 5885   3.887   4.850   9.902 -0.0759  0.0906  0.0194
  368loPI   C2B 5886   3.770   4.890   9.452 -0.1210  0.0986 -0.3154
  368loPI   C3B 5887   3.896   5.047   9.108  0.1778  0.1387  0.0121
  368loPI   C4B 5888   3.973   5.087   8.635  0.0155  0.1877  0.2160
  369loPI    C1 5889   5.239  10.224  10.631 -0.2400 -0.0133  0.1084
  369loPI    C2 5890   5.205   9.885  10.841  0.1217 -0.1438 -0.0357
  369loPI    C3 5891   5.203  10.238  11.029 -0.0126 -0.2363  0.1394
  369loPI   PO4 5892   5.522  10.148  10.520 -0.2572  0.1488  0.1001
  369loPI   GL1 5893   5.757  10.084  10.190  0.1463  0.0273  0.2068
  369loPI   GL2 5894   5.855   9.782  10.164 -0.0570 -0.1093  0.0494
  369loPI   C1A 5895   5.726  10.080   9.814  0.3818 -0.1077 -0.0673
  369loPI   C2A 5896   5.875  10.204   9.459  0.1007 -0.1545 -0.1756
  369loPI   C3A 5897   5.809  10.341   9.069 -0.0665  0.1482 -0.0508
  369loPI   C4A 5898   5.722  10.313   8.646 -0.0600  0.1442  0.1062
  369loPI   C5A 5899   5.919  10.363   8.263 -0.4206  0.1629 -0.2405
  369loPI   C6A 5900   5.898  10.491   7.759 -0.1281 -0.3066  0.0708
  369loPI   C1B 5901   5.889   9.673   9.674 -0.0767 -0.1564  0.2464
  369loPI   C2B 5902   5.840   9.747   9.272  0.0633 -0.0469  0.0579
  369loPI   C3B 5903   5.684   9.753   8.913  0.1008  0.1009  0.0942
  369loPI   C4B 5904   5.770   9.764   8.548 -0.0042 -0.3544  0.1170
  370loPI    C1 5905   8.380   2.581  10.022 -0.0493 -0.1809  0.1575
  370loPI    C2 5906   8.269   2.888  10.253 -0.0809 -0.0782  0.0073
  370loPI    C3 5907   8.555   2.637  10.377 -0.0896 -0.0174  0.1522
  370loPI   PO4 5908   8.364   2.727   9.791  0.2592 -0.1013 -0.2117
  370loPI   GL1 5909   8.569   2.893   9.505 -0.0954 -0.2157  0.0457
  370loPI   GL2 5910   8.899   2.803   9.369  0.2167  0.0796 -0.4419
  370loPI   C1A 5911   8.628   3.073   9.076 -0.3130 -0.3259  0.1177
  370loPI   C2A 5912   8.454   2.987   8.705 -0.2594  0.0207 -0.0942
  370loPI   C3A 5913   8.470   2.975   8.382  0.3033 -0.2197 -0.2693
  370loPI   C4A 5914   8.618   2.919   8.002  0.0186 -0.0560  0.0788
  370loPI   C5A 5915   8.653   2.825   7.687  0.0465  0.0116 -0.1093
  370loPI   C6A 5916   8.305   2.711   7.480  0.0811 -0.0387 -0.2287
  370loPI   C1B 5917   8.780   2.599   9.009  0.2283  0.0792  0.1216
  370loPI   C2B 5918   8.685   2.541   8.503  0.0552 -0.2666 -0.5516
  370loPI   C3B 5919   8.497   2.431   8.074 -0.1887 -0.0365 -0.1735
  370loPI   C4B 5920   8.472   2.299   7.712  0.3299  0.0299  0.1713
  371loPI    C1 5921   4.038  10.235  10.417  0.0326 -0.1197  0.0577
  371loPI    C2 5922   4.183  10.195  10.788 -0.0440 -0.0148  0.0994
  371loPI    C3 5923   4.363  10.439  10.528 -0.0453 -0.0162  0.0972
  371loPI   PO4 5924   3.973   9.940  10.342 -0.0628 -0.2130 -0.2937
  371loPI   GL1 5925   3.962   9.729  10.007 -0.1150  0.0032 -0.1416
  371loPI   GL2 5926   3.776  10.049   9.904  0.0618 -0.0474  0.2198
  371loPI   C1A 5927   3.955   9.609   9.628 -0.1542  0.0027 -0.1956
  371loPI   C2A 5928   3.984   9.373   9.300 -0.0738 -0.2583  0.0086
  371loPI   C3A 5929   3.827   9.301   8.769 -0.0431 -0.5094 -0.2148
  371loPI   C4A 5930   3.694   9.041   8.324 -0.1563  0.1159 -0.1878
  371loPI   C5A 5931   3.351   8.996   8.633 -0.0901  0.0129  0.3332
  371loPI   C6A 5932   2.946   9.253   8.690 -0.1134  0.3402 -0.0149
  371loPI   C1B 5933   3.678  10.026   9.453  0.2332 -0.0376 -0.0594
  371loPI   C2B 5934   3.854   9.815   9.100 -0.3089 -0.0820 -0.1170
  371loPI   C3B 5935   3.884   9.794   8.631 -0.0631 -0.2042  0.1543
  371loPI   C4B 5936   4.073  10.067   8.176  0.0392 -0.2877 -0.1296
  372loPI    C1 5937   0.165  14.937  10.579 -0.2584  0.0341 -0.0308
  372loPI    C2 5938   0.300  14.596  10.740  0.1912  0.1811 -0.0839
  372loPI    C3 5939   0.284  14.929  10.961  0.2006  0.2345 -0.1629
  372loPI   PO4 5940   0.289  14.867  10.356  0.1199 -0.1146  0.3586
  372loPI   GL1 5941   0.222  15.061   9.951 -0.3866  0.0932 -0.5698
  372loPI   GL2 5942   0.289  14.710   9.891 -0.2949  0.0579 -0.0959
  372loPI   C1A 5943   0.339  15.167   9.582  0.2008 -0.0323  0.1068
  372loPI   C2A 5944   0.309  15.176   9.110 -0.6213  0.2555 -0.0768
  372loPI   C3A 5945   0.371  15.188   8.703 -0.1102 -0.0590 -0.1310
  372loPI   C4A 5946   0.232  15.122   8.271 -0.3061  0.0010  0.2414
  372loPI   C5A 5947   0.013  14.956   7.798 -0.1727  0.2130 -0.2677
  372loPI   C6A 5948  -0.060  14.798   7.357 -0.1307  0.1513 -0.1504
  372loPI   C1B 5949   0.319  14.671   9.382  0.1859  0.0106 -0.1869
  372loPI   C2B 5950   0.352  14.629   8.896  0.4308 -0.0332  0.2510
  372loPI   C3B 5951   0.364  14.653   8.428 -0.2380 -0.2182  0.1810
  372loPI   C4B 5952   0.317  14.516   7.924  0.2359  0.0221  0.0839
  373loPI    C1 5953  14.394   5.946  10.852  0.0832 -0.0181 -0.1617
  373loPI    C2 5954  14.200   5.854  11.189 -0.0039 -0.1093 -0.2360
  373loPI    C3 5955  14.517   6.098  11.201  0.1137 -0.2676 -0.0620
  373loPI   PO4 5956  14.266   6.065  10.646  0.0274 -0.0794 -0.1296
  373loPI   GL1 5957  14.241   5.877  10.260  0.0095  0.2975 -0.1026
  373loPI   GL2 5958  14.197   5.632  10.340  0.1546 -0.0609  0.1859
  373loPI   C1A 5959  14.114   5.895   9.827 -0.1410 -0.2529  0.2672
  373loPI   C2A 5960  14.115   5.999   9.442 -0.1738  0.2008  0.3386
  373loPI   C3A 5961  14.158   5.976   8.978  0.0186 -0.1110 -0.1472
  373loPI   C4A 5962  14.301   6.029   8.624  0.2199 -0.0908 -0.1555
  373loPI   C5A 5963  14.600   5.854   8.363 -0.0175  0.1762  0.0795
  373loPI   C6A 5964  14.737   5.440   8.359  0.0033  0.1009  0.0528
  373loPI   C1B 5965  14.173   5.427   9.927 -0.1529 -0.1569 -0.0050
  373loPI   C2B 5966  14.210   5.476   9.514 -0.0181 -0.1645 -0.0961
  373loPI   C3B 5967  14.212   5.368   9.122  0.0943  0.1094  0.3253
  373loPI   C4B 5968  14.236   5.472   8.698 -0.0676 -0.0619 -0.1008
  374loPI    C1 5969  15.762  13.428  10.722 -0.3085  0.0323  0.0144
  374loPI    C2 5970  16.028  13.723  10.771 -0.1515 -0.1090  0.0227
  374loPI    C3 5971  15.767  13.638  11.062 -0.2556  0.0779 -0.0145
  374loPI   PO4 5972  15.706  13.456  10.445  0.0054  0.0215  0.3006
  374loPI   GL1 5973  15.687  13.505   9.995  0.1462  0.0635 -0.4586
  374loPI   GL2 5974  15.753  13.890  10.057  0.0194  0.1588  0.1836
  374loPI   C1A 5975  15.780  13.517   9.575  0.1112  0.0516 -0.0460
  374loPI   C2A 5976  15.779  13.497   9.167 -0.0597  0.3397 -0.0855
  374loPI   C3A 5977  15.769  13.598   8.781  0.0633  0.1937 -0.1589
  374loPI   C4A 5978  15.899  13.635   8.408  0.4514  0.0723  0.4404
  374loPI   C5A 5979  16.340  13.604   8.238 -0.2062 -0.3080  0.3376
  374loPI   C6A 5980  16.530  13.545   7.804  0.0693  0.0902 -0.0715
  374loPI   C1B 5981  15.713  14.025   9.618  0.0715 -0.1176  0.1739
  374loPI   C2B 5982  15.774  13.992   9.235 -0.0545 -0.1461 -0.2566
  374loPI   C3B 5983  15.767  14.091   8.783 -0.2283 -0.0500  0.1235
  374loPI   C4B 5984  15.975  14.095   8.377  0.2407  0.4054 -0.3506
  375loPI    C1 5985   8.593   6.218  10.200 -0.0149  0.2559  0.1384
  375loPI    C2 5986   8.453   6.591  10.174 -0.1747  0.1792 -0.1437
  375loPI    C3 5987   8.383   6.374  10.502 -0.2975  0.3110 -0.0814
  375loPI   PO4 5988   8.772   6.181   9.963  0.0856 -0.0379 -0.1869
  375loPI   GL1 5989   9.226   6.065   9.681  0.2606 -0.0871  0.0107
  375loPI   GL2 5990   8.909   5.992   9.526  0.1525  0.1044 -0.1773
  375loPI   C1A 5991   9.307   6.261   9.316 -0.0743 -0.0875 -0.0432
  375loPI   C2A 5992   9.341   6.190   8.928 -0.2289  0.2104 -0.1483
  375loPI   C3A 5993   9.255   6.143   8.489  0.1120  0.0407  0.1732
  375loPI   C4A 5994   9.344   5.933   8.110  0.2438 -0.3859  0.3558
  375loPI   C5A 5995   9.646   5.736   7.724  0.1564  0.0073  0.3073
  375loPI   C6A 5996   9.921   5.730   7.388 -0.2034  0.1834 -0.1817
  375loPI   C1B 5997   8.862   5.996   9.131 -0.0797 -0.0460  0.0453
  375loPI   C2B 5998   8.871   5.935   8.765 -0.0282  0.3299 -0.1338
  375loPI   C3B 5999   8.932   5.784   8.337 -0.1441  0.2785 -0.0649
  375loPI   C4B 6000   8.794   5.851   7.993  0.2108 -0.3066  0.0595
  376loPI    C1 6001   4.805  11.930  10.394  0.1671  0.0298 -0.0279
  376loPI    C2 6002   5.142  12.004  10.596  0.0476  0.0087  0.1824
  376loPI    C3 6003   4.844  11.803  10.771 -0.0909  0.0632  0.0122
  376loPI   PO4 6004   4.759  12.220  10.313 -0.1236  0.1938 -0.1488
  376loPI   GL1 6005   4.508  12.292   9.977  0.1124  0.2602  0.0989
  376loPI   GL2 6006   4.315  12.467   9.992 -0.0666  0.1986  0.2336
  376loPI   C1A 6007   4.363  12.314   9.536  0.1842  0.1211  0.0383
  376loPI   C2A 6008   4.349  12.335   9.075 -0.0359 -0.3316 -0.3347
  376loPI   C3A 6009   4.437  12.162   8.679  0.0477 -0.0535  0.1005
  376loPI   C4A 6010   4.420  12.110   8.233  0.1522  0.0325  0.0550
  376loPI   C5A 6011   4.673  12.190   7.877 -0.0986 -0.1491 -0.2122
  376loPI   C6A 6012   4.552  12.366   7.513  0.1769 -0.0961 -0.1534
  376loPI   C1B 6013   4.007  12.613   9.678 -0.0061 -0.2352 -0.0947
  376loPI   C2B 6014   3.916  12.564   9.233  0.1121  0.0044 -0.0008
  376loPI   C3B 6015   3.915  12.488   8.816  0.0195 -0.0339 -0.0507
  376loPI   C4B 6016   3.965  12.326   8.471  0.1539  0.0315 -0.0022
  377loPI    C1 6017  14.131   9.208  10.395 -0.1205 -0.0683 -0.0338
  377loPI    C2 6018  13.960   8.858  10.300 -0.2377 -0.0916  0.2511
  377loPI    C3 6019  14.115   8.913  10.665  0.0798  0.0418  0.1010
  377loPI   PO4 6020  14.298   9.266  10.214  0.0360  0.0027 -0.3214
  377loPI   GL1 6021  14.377   9.285   9.738 -0.0705 -0.1056 -0.1043
  377loPI   GL2 6022  14.586   9.562   9.830  0.2523 -0.0557 -0.2221
  377loPI   C1A 6023  14.529   9.181   9.379  0.2093 -0.0926 -0.3319
  377loPI   C2A 6024  14.825   9.189   9.159 -0.0408  0.1597  0.1184
  377loPI   C3A 6025  14.826   9.089   8.787  0.1321 -0.0883  0.0798
  377loPI   C4A 6026  14.766   9.005   8.426 -0.3617  0.4030 -0.0546
  377loPI   C5A 6027  14.695   8.834   7.945 -0.0629  0.0754 -0.1005
  377loPI   C6A 6028  14.827   8.575   7.600 -0.4928  0.0996  0.0223
  377loPI   C1B 6029  14.693   9.672   9.363 -0.0802 -0.1418 -0.0807
  377loPI   C2B 6030  14.793   9.585   8.893 -0.4487 -0.2079 -0.0284
  377loPI   C3B 6031  14.806   9.524   8.429  0.2059 -0.1619  0.0475
  377loPI   C4B 6032  14.744   9.340   8.075  0.1032 -0.0446 -0.1823
  378loPI    C1 6033  16.121  17.328  10.658 -0.1011 -0.3938  0.0843
  378loPI    C2 6034  16.043  17.129  10.997  0.2092  0.0236  0.4120
  378loPI    C3 6035  16.416  17.249  10.916  0.0510  0.3667  0.1663
  378loPI   PO4 6036  15.862  17.348  10.535  0.0066  0.1141  0.0372
  378loPI   GL1 6037  15.774  17.707  10.314  0.1049  0.1176  0.0801
  378loPI   GL2 6038  15.572  17.885  10.376  0.0848  0.2158 -0.2266
  378loPI   C1A 6039  15.876  17.852   9.959  0.2411  0.1085  0.0765
  378loPI   C2A 6040  15.936  17.754   9.573 -0.1344 -0.2270 -0.2334
  378loPI   C3A 6041  15.874  17.762   9.214 -0.0357 -0.1051 -0.1511
  378loPI   C4A 6042  15.900  17.725   8.809  0.1320  0.1711 -0.2625
  378loPI   C5A 6043  15.828  17.724   8.332 -0.3275  0.0524  0.3519
  378loPI   C6A 6044  16.088  17.462   8.045  0.2368 -0.0919 -0.3020
  378loPI   C1B 6045  15.392  17.917   9.988 -0.1399 -0.3935  0.0268
  378loPI   C2B 6046  15.357  17.972   9.478  0.0641  0.0798  0.2113
  378loPI   C3B 6047  15.471  18.002   9.092 -0.1978  0.2753  0.2508
  378loPI   C4B 6048  15.451  17.974   8.634 -0.3300  0.0754  0.0004
  379loPI    C1 6049  10.324   4.108  10.175 -0.0579 -0.0300  0.1959
  379loPI    C2 6050  10.258   3.722  10.256  0.1718 -0.0853  0.1270
  379loPI    C3 6051  10.396   3.966  10.542  0.3225 -0.1244  0.0882
  379loPI   PO4 6052  10.178   4.161  10.015  0.1153 -0.0310  0.1470
  379loPI   GL1 6053  10.153   3.880   9.608 -0.1761 -0.1956 -0.3180
  379loPI   GL2 6054  10.363   3.682   9.745 -0.1204  0.1053  0.3963
  379loPI   C1A 6055  10.377   4.115   9.209 -0.0488 -0.1573 -0.0252
  379loPI   C2A 6056  10.464   4.263   8.807  0.2144  0.1493  0.0059
  379loPI   C3A 6057  10.535   4.208   8.271  0.0105  0.0388 -0.1451
  379loPI   C4A 6058  10.724   4.079   7.841 -0.0786 -0.3134  0.0942
  379loPI   C5A 6059  11.114   3.996   7.604  0.3060 -0.2211 -0.1074
  379loPI   C6A 6060  11.469   3.676   7.631 -0.0013 -0.2358 -0.0476
  379loPI   C1B 6061  10.328   3.616   9.269  0.2684  0.0067 -0.0318
  379loPI   C2B 6062  10.479   3.574   8.922 -0.2671  0.1611  0.1304
  379loPI   C3B 6063  10.551   3.540   8.537  0.0553 -0.0379  0.0817
  379loPI   C4B 6064  10.576   3.698   8.130  0.1538 -0.2594 -0.2316
  380loPI    C1 6065  11.213  17.849  10.815  0.0130  0.2326 -0.1253
  380loPI    C2 6066  11.518  17.716  11.037  0.0014  0.1104 -0.1817
  380loPI    C3 6067  11.195  17.871  11.214  0.0843  0.2152 -0.1209
  380loPI   PO4 6068  11.170  17.669  10.631  0.2143  0.0775  0.1817
  380loPI   GL1 6069  11.286  17.378  10.320  0.1676 -0.0083  0.0052
  380loPI   GL2 6070  10.961  17.578  10.112  0.1145  0.1020  0.2908
  380loPI   C1A 6071  11.479  17.409   9.950  0.1524  0.0316  0.0519
  380loPI   C2A 6072  11.380  17.454   9.434  0.0782 -0.3519  0.0528
  380loPI   C3A 6073  11.391  17.471   9.005 -0.1927  0.1204  0.1722
  380loPI   C4A 6074  11.297  17.396   8.514 -0.2636  0.0926 -0.2187
  380loPI   C5A 6075  11.222  17.637   8.152 -0.0117  0.0932 -0.2772
  380loPI   C6A 6076  11.344  17.745   7.818  0.0888 -0.0446 -0.0115
  380loPI   C1B 6077  11.018  17.607   9.755 -0.1438 -0.2575 -0.0679
  380loPI   C2B 6078  11.010  17.707   9.266  0.1893 -0.1999 -0.0978
  380loPI   C3B 6079  10.905  17.734   8.768 -0.0099 -0.3785  0.0078
  380loPI   C4B 6080  11.027  18.000   8.414 -0.0480 -0.0187 -0.2537
  381loPI    C1 6081   5.777  17.235  10.372  0.1419  0.0164 -0.0705
  381loPI    C2 6082   5.906  17.028  10.689 -0.0472  0.2668  0.1754
  381loPI    C3 6083   6.122  17.333  10.549  0.1301  0.0383 -0.0594
  381loPI   PO4 6084   5.790  17.040  10.174  0.4019 -0.0523  0.0989
  381loPI   GL1 6085   5.950  16.834   9.877  0.0319 -0.2051  0.1515
  381loPI   GL2 6086   6.230  16.924   9.701 -0.3465 -0.2048 -0.4807
  381loPI   C1A 6087   5.895  16.689   9.445  0.3505 -0.0188 -0.2059
  381loPI   C2A 6088   5.928  16.496   9.058 -0.1251 -0.1755 -0.0135
  381loPI   C3A 6089   5.763  16.672   8.675  0.1645  0.0317  0.0792
  381loPI   C4A 6090   5.730  16.780   8.294 -0.5035  0.1161  0.1268
  381loPI   C5A 6091   5.800  17.034   7.929 -0.4776 -0.1638 -0.1397
  381loPI   C6A 6092   5.892  17.476   7.890 -0.2070 -0.3029 -0.2887
  381loPI   C1B 6093   6.534  16.961   9.450  0.0558 -0.2005 -0.0607
  381loPI   C2B 6094   6.690  16.908   9.040  0.4155  0.0521 -0.0311
  381loPI   C3B 6095   6.700  16.684   8.626  0.2121 -0.3277  0.1425
  381loPI   C4B 6096   6.839  16.726   8.253  0.0084  0.1198  0.0499
  382loPI    C1 6097   6.044   6.390  10.615  0.2116 -0.0732  0.0364
  382loPI    C2 6098   6.146   6.414  11.001 -0.0338 -0.4162  0.1270
  382loPI    C3 6099   5.763   6.361  10.898 -0.0302  0.0900 -0.1823
  382loPI   PO4 6100   6.154   6.575  10.474  0.0887 -0.1566 -0.2807
  382loPI   GL1 6101   5.929   6.857  10.194  0.1729  0.3198 -0.1539
  382loPI   GL2 6102   5.592   6.838  10.204 -0.0415 -0.2452 -0.1453
  382loPI   C1A 6103   6.149   6.758   9.861 -0.0483  0.1418 -0.1661
  382loPI   C2A 6104   6.173   6.831   9.367 -0.1549  0.0171  0.1513
  382loPI   C3A 6105   6.162   6.886   8.943 -0.3691 -0.1945  0.3341
  382loPI   C4A 6106   6.337   6.892   8.552 -0.1030 -0.3633  0.0044
  382loPI   C5A 6107   6.753   6.703   8.395 -0.0486  0.4130 -0.1397
  382loPI   C6A 6108   6.871   6.932   7.923  0.0172  0.1511  0.0008
  382loPI   C1B 6109   5.694   6.610   9.760 -0.0825  0.3757  0.1651
  382loPI   C2B 6110   5.704   6.718   9.385  0.1894  0.0566  0.1189
  382loPI   C3B 6111   5.763   6.564   8.963  0.0314 -0.0901  0.0437
  382loPI   C4B 6112   5.764   6.559   8.565 -0.0204  0.0367  0.0397
  383loPI    C1 6113  11.760   1.143  10.219 -0.1653  0.0636  0.0142
  383loPI    C2 6114  11.953   1.426  10.426 -0.1170 -0.1113  0.2113
  383loPI    C3 6115  11.556   1.446  10.382 -0.0754  0.1700 -0.0694
  383loPI   PO4 6116  11.900   0.907  10.350 -0.1366  0.1470 -0.1019
  383loPI   GL1 6117  12.148   0.724  10.189 -0.0931  0.0042 -0.2540
  383loPI   GL2 6118  12.291   0.444  10.297 -0.4598  0.1587  0.2837
  383loPI   C1A 6119  12.101   0.957   9.821  0.1581  0.2587  0.1248
  383loPI   C2A 6120  12.259   0.838   9.398  0.0922  0.0415 -0.1249
  383loPI   C3A 6121  12.307   0.831   8.898 -0.3051  0.0680  0.0520
  383loPI   C4A 6122  12.366   0.917   8.506  0.1409 -0.1351  0.0280
  383loPI   C5A 6123  12.432   0.911   8.125  0.0184 -0.3119  0.1893
  383loPI   C6A 6124  12.511   1.229   7.771 -0.0412 -0.0304  0.1112
  383loPI   C1B 6125  12.499   0.600   9.867 -0.0266 -0.1012 -0.0328
  383loPI   C2B 6126  12.717   0.644   9.458 -0.1161 -0.4222 -0.1961
  383loPI   C3B 6127  12.695   0.612   9.123  0.1070  0.0329 -0.3441
  383loPI   C4B 6128  12.794   0.498   8.663 -0.0506 -0.0619  0.1375
  384loPI    C1 6129  12.928  13.091  10.513  0.1913  0.0948  0.1041
  384loPI    C2 6130  13.028  12.851  10.209 -0.0496  0.0244  0.0781
  384loPI    C3 6131  12.935  12.695  10.565  0.2053  0.1052  0.1832
  384loPI   PO4 6132  13.114  13.290  10.481  0.0632 -0.1568  0.1776
  384loPI   GL1 6133  13.418  13.295  10.088  0.0508 -0.1370 -0.1070
  384loPI   GL2 6134  13.463  13.072  10.026 -0.0088  0.2680 -0.0222
  384loPI   C1A 6135  13.306  13.435   9.647  0.1652  0.0399 -0.0097
  384loPI   C2A 6136  13.453  13.414   9.335 -0.0558 -0.1414 -0.0262
  384loPI   C3A 6137  13.561  13.397   8.963  0.1575 -0.1715 -0.1229
  384loPI   C4A 6138  13.582  13.441   8.488 -0.1109 -0.0032 -0.0005
  384loPI   C5A 6139  13.408  13.315   8.073  0.2188 -0.2405  0.1581
  384loPI   C6A 6140  12.969  13.359   8.008 -0.1771 -0.1513  0.0179
  384loPI   C1B 6141  13.478  12.981   9.579  0.1652 -0.3464  0.2288
  384loPI   C2B 6142  13.574  12.912   9.162 -0.2137  0.0548  0.1378
  384loPI   C3B 6143  13.610  12.958   8.729 -0.1785 -0.0208 -0.2110
  384loPI   C4B 6144  13.560  12.830   8.321  0.0656  0.1533 -0.2261
  385loPI    C1 6145  12.640   0.030  10.443 -0.1512  0.0079 -0.2462
  385loPI    C2 6146  12.472  -0.213  10.713  0.0836  0.0836 -0.0279
  385loPI    C3 6147  12.433   0.184  10.749 -0.3966  0.0842 -0.4475
  385loPI   PO4 6148  12.925   0.002  10.453 -0.2566 -0.0553  0.0097
  385loPI   GL1 6149  13.315  -0.003  10.296  0.2253  0.0874 -0.1472
  385loPI   GL2 6150  13.611  -0.047  10.122 -0.2662  0.1319  0.0964
  385loPI   C1A 6151  13.199   0.211   9.848 -0.1558 -0.3731 -0.2117
  385loPI   C2A 6152  13.174   0.317   9.424  0.2183 -0.0617  0.1271
  385loPI   C3A 6153  13.208   0.294   9.031 -0.0737  0.2160  0.1108
  385loPI   C4A 6154  13.289   0.107   8.650 -0.0279  0.3656 -0.1966
  385loPI   C5A 6155  13.412   0.339   8.254 -0.1903 -0.3948  0.3671
  385loPI   C6A 6156  13.538   0.648   7.850 -0.1066 -0.1011 -0.0065
  385loPI   C1B 6157  13.570  -0.046   9.555  0.1125 -0.0622 -0.0752
  385loPI   C2B 6158  13.622  -0.078   9.165  0.1181 -0.0625  0.3056
  385loPI   C3B 6159  13.731  -0.178   8.717 -0.1961 -0.0247 -0.1936
  385loPI   C4B 6160  13.668  -0.163   8.247 -0.2694  0.1871  0.0522
  386loPI    C1 6161   0.366   4.342  11.128  0.2315 -0.1620  0.1388
  386loPI    C2 6162   0.344   4.741  11.101  0.0461 -0.1834 -0.0547
  386loPI    C3 6163   0.356   4.565  11.460 -0.2749 -0.0229  0.0388
  386loPI   PO4 6164   0.483   4.252  10.943 -0.0699 -0.0000  0.1886
  386loPI   GL1 6165   0.807   4.322  10.646 -0.2511  0.3555 -0.0563
  386loPI   GL2 6166   0.499   4.139  10.427  0.1708 -0.1546  0.0746
  386loPI   C1A 6167   0.937   4.521  10.258 -0.0134  0.1290  0.2550
  386loPI   C2A 6168   1.081   4.492   9.838  0.1326  0.0819  0.1705
  386loPI   C3A 6169   1.068   4.432   9.444 -0.0114 -0.0447 -0.1108
  386loPI   C4A 6170   1.058   4.496   9.021  0.3824 -0.0872 -0.0868
  386loPI   C5A 6171   0.923   4.511   8.646 -0.0561  0.2013 -0.1356
  386loPI   C6A 6172   0.579   4.783   8.427  0.0009 -0.1010 -0.1266
  386loPI   C1B 6173   0.516   4.310  10.040 -0.1319  0.1365  0.1368
  386loPI   C2B 6174   0.628   4.244   9.564 -0.3019  0.0105  0.0370
  386loPI   C3B 6175   0.601   4.179   9.096  0.1784  0.0129 -0.0400
  386loPI   C4B 6176   0.929   4.052   8.797 -0.1042  0.2080 -0.0938
  387loPI    C1 6177   6.394  15.112  10.599  0.0098 -0.0907  0.1869
  387loPI    C2 6178   6.049  15.301  10.674  0.1342  0.1025  0.2786
  387loPI    C3 6179   6.225  15.085  10.961  0.1582  0.1150  0.2734
  387loPI   PO4 6180   6.351  14.908  10.405 -0.0460  0.1211  0.0400
  387loPI   GL1 6181   6.695  14.720  10.214  0.0448 -0.2009  0.0841
  387loPI   GL2 6182   6.515  14.626   9.979 -0.1689  0.1099 -0.4011
  387loPI   C1A 6183   6.953  14.846   9.941  0.0595 -0.4571  0.1519
  387loPI   C2A 6184   7.229  14.934   9.587 -0.0399  0.1560 -0.0760
  387loPI   C3A 6185   7.153  14.831   9.235  0.0319 -0.3219  0.1937
  387loPI   C4A 6186   7.268  14.880   8.837 -0.1360 -0.2646  0.3568
  387loPI   C5A 6187   7.200  14.829   8.366  0.0497  0.0085  0.2477
  387loPI   C6A 6188   7.189  15.170   8.095 -0.0762 -0.0559 -0.0545
  387loPI   C1B 6189   6.679  14.558   9.603  0.1668  0.3662 -0.1486
  387loPI   C2B 6190   6.750  14.526   9.197  0.0152 -0.1971  0.0368
  387loPI   C3B 6191   6.778  14.676   8.841  0.1699 -0.0134  0.0238
  387loPI   C4B 6192   6.733  14.621   8.423 -0.0234 -0.2141  0.1395
  388loPI    C1 6193  17.511   3.007  11.179 -0.0415 -0.1296 -0.1208
  388loPI    C2 6194  17.644   2.923  11.547  0.1251  0.0649 -0.1349
  388loPI    C3 6195  17.260   3.019  11.491  0.0591 -0.1376 -0.0391
  388loPI   PO4 6196  17.599   2.914  11.039 -0.1523  0.2928 -0.1693
  388loPI   GL1 6197  17.688   2.890  10.537 -0.1246  0.2011  0.1135
  388loPI   GL2 6198  17.896   3.084  10.697  0.1739 -0.0966 -0.2664
  388loPI   C1A 6199  17.804   2.752  10.167  0.3008 -0.0120  0.0895
  388loPI   C2A 6200  17.832   2.726   9.717  0.3038 -0.0351  0.1165
  388loPI   C3A 6201  17.891   2.596   9.274 -0.0427 -0.1858  0.1841
  388loPI   C4A 6202  17.807   2.668   8.805 -0.1912  0.0017  0.2035
  388loPI   C5A 6203  17.981   2.577   8.455  0.0004  0.0169  0.0282
  388loPI   C6A 6204  17.864   2.293   8.254 -0.4133 -0.0565  0.1913
  388loPI   C1B 6205  17.937   3.223  10.268 -0.1876 -0.2906 -0.0914
  388loPI   C2B 6206  17.909   3.230   9.823 -0.0966  0.2134 -0.1338
  388loPI   C3B 6207  17.783   3.104   9.376  0.0253 -0.0993  0.1544
  388loPI   C4B 6208  17.924   3.168   8.893 -0.5470  0.2307 -0.2974
  389loPI    C1 6209  16.376   7.390  10.740 -0.1642  0.0443  0.1013
  389loPI    C2 6210  16.018   7.380  10.919 -0.0703 -0.0191  0.2881
  389loPI    C3 6211  16.349   7.293  11.127  0.0474 -0.0329  0.0982
  389loPI   PO4 6212  16.379   7.264  10.521  0.0012 -0.2724  0.3003
  389loPI   GL1 6213  16.432   7.370  10.076  0.0374 -0.2156  0.1802
  389loPI   GL2 6214  16.684   7.260  10.032  0.1040  0.1956 -0.1993
  389loPI   C1A 6215  16.329   7.384   9.680 -0.2117  0.1867  0.1064
  389loPI   C2A 6216  16.491   7.336   9.235 -0.0219 -0.0002 -0.0666
  389loPI   C3A 6217  16.609   7.282   8.822 -0.3415  0.3746 -0.2355
  389loPI   C4A 6218  16.598   6.984   8.492  0.1124  0.0593 -0.0436
  389loPI   C5A 6219  16.816   6.969   8.064 -0.0335  0.0204 -0.2036
  389loPI   C6A 6220  17.016   6.921   7.768  0.1701  0.2870 -0.2127
  389loPI   C1B 6221  16.762   7.116   9.603 -0.2709  0.1282  0.1785
  389loPI   C2B 6222  16.933   7.075   9.233  0.2068  0.2028  0.1259
  389loPI   C3B 6223  17.000   6.975   8.845  0.1294  0.1022 -0.1398
  389loPI   C4B 6224  17.033   6.815   8.486 -0.0826  0.0495  0.1662
  390loPI    C1 6225   1.888   1.741  10.971  0.0457 -0.1343  0.0911
  390loPI    C2 6226   2.100   1.996  11.195  0.0551 -0.0618  0.0001
  390loPI    C3 6227   1.875   1.715  11.370  0.1578 -0.0835  0.0982
  390loPI   PO4 6228   1.972   1.733  10.793 -0.3650  0.1350  0.2220
  390loPI   GL1 6229   2.107   1.545  10.417  0.3549 -0.0331 -0.3916
  390loPI   GL2 6230   2.383   1.478  10.214 -0.1068 -0.0244 -0.0062
  390loPI   C1A 6231   1.922   1.455   9.992  0.2886 -0.0740  0.3375
  390loPI   C2A 6232   1.845   1.398   9.554  0.0213 -0.2349  0.0552
  390loPI   C3A 6233   1.863   1.444   9.099 -0.1844 -0.3702 -0.4043
  390loPI   C4A 6234   1.769   1.391   8.587 -0.2450  0.1397  0.0315
  390loPI   C5A 6235   1.828   1.441   8.094 -0.1076  0.1004 -0.0269
  390loPI   C6A 6236   2.001   1.609   7.781 -0.3703  0.0450  0.2121
  390loPI   C1B 6237   2.444   1.678   9.801  0.4873  0.1437  0.0919
  390loPI   C2B 6238   2.330   1.799   9.434  0.1719  0.2390  0.0615
  390loPI   C3B 6239   2.465   1.713   9.001 -0.1794 -0.4557 -0.0261
  390loPI   C4B 6240   2.485   1.751   8.599  0.0599  0.1276 -0.3949
  391loPI    C1 6241  17.425  16.220  10.650  0.1670  0.0976  0.3909
  391loPI    C2 6242  17.088  16.018  10.724  0.1225  0.1100  0.2248
  391loPI    C3 6243  17.361  16.064  11.013  0.0011  0.0636  0.3478
  391loPI   PO4 6244  17.422  16.196  10.398 -0.4299  0.0304 -0.1656
  391loPI   GL1 6245  17.667  16.070  10.057 -0.1229  0.1924  0.2748
  391loPI   GL2 6246  17.542  15.754   9.993 -0.1031  0.0871 -0.0297
  391loPI   C1A 6247  17.676  16.296   9.607  0.1874 -0.0592  0.0234
  391loPI   C2A 6248  17.743  16.298   9.053 -0.0399 -0.2096  0.1281
  391loPI   C3A 6249  17.640  16.063   8.746  0.0655  0.1899 -0.0144
  391loPI   C4A 6250  17.782  16.087   8.381  0.0294 -0.2460  0.2958
  391loPI   C5A 6251  18.184  15.975   8.166 -0.1993  0.0596 -0.0577
  391loPI   C6A 6252  18.223  15.828   7.776 -0.1726 -0.2279  0.0629
  391loPI   C1B 6253  17.608  15.741   9.534 -0.0048  0.4161 -0.0969
  391loPI   C2B 6254  17.690  15.710   9.038 -0.0738  0.2357 -0.0312
  391loPI   C3B 6255  17.725  15.585   8.602 -0.0008  0.0613  0.1906
  391loPI   C4B 6256  17.535  15.633   8.202  0.0022  0.0357 -0.1280
  392loPI    C1 6257   6.130   0.614  10.178  0.1361  0.0249 -0.2368
  392loPI    C2 6258   6.291   0.533  10.535 -0.1459 -0.1749 -0.1519
  392loPI    C3 6259   6.006   0.811  10.503 -0.1567 -0.1928 -0.2127
  392loPI   PO4 6260   6.075   0.364  10.118  0.1601 -0.1037 -0.0688
  392loPI   GL1 6261   6.172   0.115   9.658 -0.4497  0.4088  0.1163
  392loPI   GL2 6262   6.521   0.107   9.513  0.0933 -0.0123 -0.0311
  392loPI   C1A 6263   6.070   0.103   9.226  0.2449  0.1114 -0.0043
  392loPI   C2A 6264   5.996   0.215   8.845 -0.0679 -0.2103  0.1016
  392loPI   C3A 6265   5.846   0.443   8.462  0.0261  0.0277  0.2018
  392loPI   C4A 6266   5.447   0.606   8.331 -0.0771  0.2673  0.1452
  392loPI   C5A 6267   5.401   0.594   7.823 -0.1257  0.0526 -0.0206
  392loPI   C6A 6268   5.205   0.766   7.441  0.0109 -0.2949 -0.1830
  392loPI   C1B 6269   6.604   0.276   9.108  0.3698  0.0028  0.1554
  392loPI   C2B 6270   6.573   0.140   8.648  0.2896 -0.1301 -0.2776
  392loPI   C3B 6271   6.619  -0.029   8.231 -0.3499  0.1809  0.0957
  392loPI   C4B 6272   6.731   0.023   7.787 -0.2733  0.2238  0.1657
  393loPI    C1 6273   7.797  12.015  10.360 -0.0802  0.0879  0.0708
  393loPI    C2 6274   7.675  11.744  10.627 -0.1143  0.0523  0.0193
  393loPI    C3 6275   7.623  12.134  10.700 -0.0335  0.0466  0.1094
  393loPI   PO4 6276   7.689  11.932  10.163  0.3570 -0.3522  0.0593
  393loPI   GL1 6277   7.663  11.894   9.792 -0.1271  0.0116  0.2708
  393loPI   GL2 6278   7.409  12.196   9.825  0.0763 -0.1930  0.1455
  393loPI   C1A 6279   7.568  11.982   9.322  0.1365  0.0504 -0.1772
  393loPI   C2A 6280   7.604  12.020   8.896  0.1787 -0.2512 -0.2892
  393loPI   C3A 6281   7.621  11.955   8.497 -0.1391 -0.0084 -0.0180
  393loPI   C4A 6282   7.813  11.676   8.070  0.1210 -0.1719 -0.0902
  393loPI   C5A 6283   7.898  11.141   7.983 -0.0530  0.0271  0.0369
  393loPI   C6A 6284   8.076  10.817   8.077  0.0391 -0.0120  0.1348
  393loPI   C1B 6285   7.646  12.437   9.552 -0.0779  0.0156  0.1882
  393loPI   C2B 6286   7.650  12.536   9.102  0.0074  0.4078 -0.0454
  393loPI   C3B 6287   7.614  12.493   8.710 -0.0764  0.1888 -0.2627
  393loPI   C4B 6288   7.724  12.541   8.321 -0.0492  0.0086 -0.0917
  394loPI    C1 6289   2.445   6.699  10.958  0.0559 -0.2441 -0.0478
  394loPI    C2 6290   2.162   6.951  10.831  0.1203 -0.1840 -0.0728
  394loPI    C3 6291   2.110   6.748  11.171  0.1812  0.0604  0.0850
  394loPI   PO4 6292   2.461   6.564  10.742 -0.1371  0.2176  0.2065
  394loPI   GL1 6293   2.357   6.810  10.386 -0.0026  0.2171 -0.0180
  394loPI   GL2 6294   1.981   6.790  10.280  0.0341 -0.1069  0.0795
  394loPI   C1A 6295   2.516   6.910  10.073  0.3736 -0.1698 -0.0397
  394loPI   C2A 6296   2.464   6.981   9.634 -0.0421  0.2244 -0.0348
  394loPI   C3A 6297   2.383   6.939   9.217  0.0629  0.0657 -0.0159
  394loPI   C4A 6298   2.590   6.882   8.827 -0.1968 -0.0292  0.0724
  394loPI   C5A 6299   2.525   6.937   8.423  0.2566 -0.1109  0.2761
  394loPI   C6A 6300   2.705   6.741   8.082 -0.1276  0.2270  0.0246
  394loPI   C1B 6301   2.039   6.743   9.836  0.0690 -0.0361 -0.1076
  394loPI   C2B 6302   1.978   6.695   9.379 -0.1501 -0.1977 -0.4381
  394loPI   C3B 6303   2.057   6.575   8.928 -0.1110  0.0166  0.0525
  394loPI   C4B 6304   2.099   6.590   8.500 -0.2982 -0.1609  0.2078
  395loPI    C1 6305   9.112  14.613  11.080 -0.0886 -0.1126  0.1603
  395loPI    C2 6306   8.828  14.370  11.221 -0.0511 -0.1462  0.1784
  395loPI    C3 6307   8.919  14.706  11.418 -0.2471 -0.0115  0.0438
  395loPI   PO4 6308   9.072  14.589  10.801 -0.0886 -0.0042  0.0076
  395loPI   GL1 6309   8.920  14.462  10.383 -0.2011  0.0018 -0.0639
  395loPI   GL2 6310   8.937  14.150  10.335 -0.1982  0.0224  0.2613
  395loPI   C1A 6311   9.066  14.428   9.911  0.2369 -0.5299  0.1417
  395loPI   C2A 6312   9.064  14.245   9.500 -0.1385  0.4594 -0.0216
  395loPI   C3A 6313   9.036  14.359   9.151  0.0548  0.1116  0.1789
  395loPI   C4A 6314   8.971  14.379   8.742 -0.1563  0.1740  0.4770
  395loPI   C5A 6315   8.837  14.266   8.402 -0.1684  0.0809  0.2468
  395loPI   C6A 6316   9.079  14.272   8.121 -0.1544  0.2914 -0.1684
  395loPI   C1B 6317   8.967  13.720  10.127  0.1222  0.1161 -0.0802
  395loPI   C2B 6318   9.115  13.627   9.706  0.1019  0.1280 -0.5342
  395loPI   C3B 6319   9.069  13.699   9.370 -0.0116  0.3938 -0.0419
  395loPI   C4B 6320   8.996  13.836   8.954 -0.1863 -0.0706 -0.4105
  396loPI    C1 6321   2.195   8.404  10.664 -0.0266 -0.1706  0.1547
  396loPI    C2 6322   1.946   8.646  10.862 -0.0155  0.1282 -0.1868
  396loPI    C3 6323   2.333   8.630  10.965 -0.1027 -0.0816  0.1229
  396loPI   PO4 6324   2.223   8.390  10.395 -0.1656  0.0711  0.0596
  396loPI   GL1 6325   2.020   8.074  10.088  0.1871  0.0450 -0.1724
  396loPI   GL2 6326   2.073   7.791  10.184 -0.0975 -0.0341  0.1456
  396loPI   C1A 6327   2.032   8.198   9.670  0.2037 -0.4223  0.0223
  396loPI   C2A 6328   2.117   8.316   9.273  0.1883  0.1210  0.1355
  396loPI   C3A 6329   2.112   8.177   8.843 -0.0077  0.0314 -0.1698
  396loPI   C4A 6330   2.026   8.188   8.425 -0.3402  0.2105 -0.0047
  396loPI   C5A 6331   2.186   8.314   8.073  0.2455 -0.2366  0.0669
  396loPI   C6A 6332   2.273   8.264   7.560  0.1748  0.2223  0.0766
  396loPI   C1B 6333   2.062   7.673   9.756  0.2068 -0.2730 -0.0780
  396loPI   C2B 6334   2.055   7.698   9.302 -0.1003 -0.2167 -0.2543
  396loPI   C3B 6335   2.020   7.679   8.905  0.0379  0.0501 -0.3460
  396loPI   C4B 6336   2.061   7.625   8.504  0.0232 -0.0563 -0.1433
  397loPI    C1 6337  12.821  14.426  10.688 -0.0291 -0.1338 -0.1197
  397loPI    C2 6338  12.849  14.271  11.055 -0.0588  0.1002 -0.0170
  397loPI    C3 6339  13.161  14.252  10.806 -0.0408 -0.0644  0.0171
  397loPI   PO4 6340  12.773  14.718  10.626 -0.1389 -0.0415  0.0537
  397loPI   GL1 6341  12.768  14.759  10.246 -0.0889 -0.1813  0.1725
  397loPI   GL2 6342  12.555  14.850  10.153 -0.1264 -0.0921 -0.1179
  397loPI   C1A 6343  12.666  14.459   9.905  0.0622 -0.0537 -0.0898
  397loPI   C2A 6344  12.534  14.517   9.491 -0.1043  0.1115 -0.1144
  397loPI   C3A 6345  12.636  14.506   9.023  0.0432 -0.1322 -0.2684
  397loPI   C4A 6346  12.637  14.496   8.587 -0.2125  0.0260  0.1432
  397loPI   C5A 6347  12.647  14.499   8.151  0.0783  0.0975  0.0992
  397loPI   C6A 6348  12.603  14.513   7.689 -0.0103 -0.2209 -0.2697
  397loPI   C1B 6349  12.683  14.988   9.698  0.3005 -0.0779  0.0195
  397loPI   C2B 6350  12.645  14.964   9.239 -0.0825 -0.0622  0.1796
  397loPI   C3B 6351  12.734  14.960   8.826 -0.0425  0.2680  0.0263
  397loPI   C4B 6352  12.748  14.986   8.343 -0.0333  0.2558 -0.2924
  398loPI    C1 6353   7.402   5.608  10.488 -0.0683  0.2169 -0.0749
  398loPI    C2 6354   7.408   5.374  10.813  0.3359  0.1173 -0.1484
  398loPI    C3 6355   7.278   5.751  10.841 -0.1668 -0.0578  0.0053
  398loPI   PO4 6356   7.298   5.327  10.279 -0.0546  0.0472 -0.4059
  398loPI   GL1 6357   7.054   5.246   9.900  0.0292  0.0360  0.0409
  398loPI   GL2 6358   6.817   5.355  10.024 -0.0357 -0.1547  0.1036
  398loPI   C1A 6359   7.100   5.237   9.417 -0.1393  0.0586 -0.0948
  398loPI   C2A 6360   7.087   5.307   8.923  0.0411 -0.0294 -0.0546
  398loPI   C3A 6361   7.090   5.405   8.483  0.0701 -0.1424 -0.1178
  398loPI   C4A 6362   7.085   5.708   8.175 -0.0682 -0.1717 -0.2893
  398loPI   C5A 6363   7.046   6.041   7.870 -0.0330 -0.0872  0.2092
  398loPI   C6A 6364   7.060   5.911   7.601 -0.1548 -0.3261  0.0899
  398loPI   C1B 6365   6.629   5.525   9.614  0.0060 -0.1361  0.3279
  398loPI   C2B 6366   6.654   5.537   9.178 -0.0432 -0.0268  0.1834
  398loPI   C3B 6367   6.723   5.651   8.824  0.0956 -0.1564  0.0100
  398loPI   C4B 6368   6.664   5.746   8.404 -0.1271 -0.0113  0.1063
  399loPI    C1 6369  16.534  11.040  10.753 -0.1107 -0.0325  0.2196
  399loPI    C2 6370  16.750  10.724  10.871 -0.0021 -0.0425 -0.0012
  399loPI    C3 6371  16.918  11.086  10.854 -0.0164 -0.0411 -0.1233
  399loPI   PO4 6372  16.345  10.884  10.610 -0.1566 -0.1008  0.0283
  399loPI   GL1 6373  16.362  10.918  10.172  0.1004  0.1281  0.1393
  399loPI   GL2 6374  16.556  11.052  10.071 -0.1723 -0.3633  0.0749
  399loPI   C1A 6375  16.215  10.976   9.696 -0.0220  0.0926 -0.0229
  399loPI   C2A 6376  16.295  10.900   9.246  0.1485 -0.1573 -0.1802
  399loPI   C3A 6377  16.231  10.765   8.918 -0.5651 -0.0888 -0.0166
  399loPI   C4A 6378  16.132  10.802   8.481 -0.3623 -0.2019  0.1804
  399loPI   C5A 6379  16.129  10.919   8.056  0.1985 -0.1786  0.2498
  399loPI   C6A 6380  16.436  10.894   7.815 -0.1212  0.0961 -0.2533
  399loPI   C1B 6381  16.754  10.860   9.758 -0.0175 -0.0635  0.0241
  399loPI   C2B 6382  16.722  10.720   9.434  0.1678  0.1945 -0.4338
  399loPI   C3B 6383  16.630  10.539   9.120  0.4567  0.0575 -0.0428
  399loPI   C4B 6384  16.596  10.463   8.721  0.0325 -0.2276  0.0155
  400loPI    C1 6385   3.752   3.071  10.542  0.2293  0.0969  0.0929
  400loPI    C2 6386   3.792   3.032  10.938  0.4291  0.1955  0.0833
  400loPI    C3 6387   3.753   2.707  10.708 -0.2680  0.1542  0.2386
  400loPI   PO4 6388   4.004   3.227  10.403  0.0504  0.2195  0.0275
  400loPI   GL1 6389   4.270   3.194  10.137  0.0691  0.0148  0.2128
  400loPI   GL2 6390   4.052   3.134   9.912  0.1382 -0.0536 -0.0730
  400loPI   C1A 6391   4.505   2.996   9.840  0.0168 -0.1685  0.0118
  400loPI   C2A 6392   4.526   3.045   9.460  0.2591  0.0706  0.0563
  400loPI   C3A 6393   4.379   3.122   8.979 -0.0912 -0.0316 -0.1231
  400loPI   C4A 6394   4.437   3.268   8.589 -0.1618  0.1369  0.0780
  400loPI   C5A 6395   4.432   3.147   8.208  0.1229  0.0598  0.1960
  400loPI   C6A 6396   4.380   3.141   7.843 -0.0714 -0.0932  0.2322
  400loPI   C1B 6397   4.049   3.211   9.449 -0.2411 -0.0961  0.0270
  400loPI   C2B 6398   3.922   3.419   9.048  0.0157  0.0425  0.0948
  400loPI   C3B 6399   3.869   3.534   8.658 -0.3337 -0.0392 -0.1821
  400loPI   C4B 6400   3.980   3.484   8.279 -0.0989 -0.2912  0.1664
  401loPI    C1 6401  17.818   6.971  10.679  0.2277 -0.0843  0.1616
  401loPI    C2 6402  17.666   7.199  10.970  0.0846  0.0290  0.0003
  401loPI    C3 6403  17.836   6.848  11.059 -0.1345 -0.0295  0.2006
  401loPI   PO4 6404  17.540   6.968  10.533  0.0724  0.0277 -0.2637
  401loPI   GL1 6405  17.463   7.087  10.182 -0.0702 -0.0648 -0.0118
  401loPI   GL2 6406  17.234   7.297  10.213 -0.1289 -0.2115 -0.3955
  401loPI   C1A 6407  17.678   7.149   9.813 -0.0567 -0.1598  0.2346
  401loPI   C2A 6408  17.840   7.074   9.385  0.1681  0.1095 -0.2959
  401loPI   C3A 6409  17.889   6.930   8.927 -0.2444 -0.1046  0.3954
  401loPI   C4A 6410  17.936   6.793   8.522  0.2285  0.2108  0.0735
  401loPI   C5A 6411  17.967   7.066   8.154 -0.0692 -0.1404  0.3442
  401loPI   C6A 6412  18.378   7.133   8.029  0.0384 -0.1144  0.0075
  401loPI   C1B 6413  17.262   7.361   9.757  0.0275 -0.1628  0.1095
  401loPI   C2B 6414  17.414   7.329   9.382  0.2954 -0.2174  0.2193
  401loPI   C3B 6415  17.509   7.305   8.975 -0.1198 -0.2621  0.0362
  401loPI   C4B 6416  17.426   7.169   8.630  0.0788  0.0869  0.1128
  402loPI    C1 6417  17.304  18.028  11.015  0.1998  0.0464 -0.0300
  402loPI    C2 6418  17.266  18.282  10.709  0.1651  0.1884  0.0908
  402loPI    C3 6419  17.626  18.218  10.872  0.1426  0.3180  0.1934
  402loPI   PO4 6420  17.122  17.850  10.889  0.1164 -0.1049  0.0956
  402loPI   GL1 6421  17.031  17.879  10.371 -0.1549  0.0131 -0.3146
  402loPI   GL2 6422  17.173  17.607  10.178  0.1738  0.2353 -0.1185
  402loPI   C1A 6423  17.259  18.095  10.001  0.0881  0.2406  0.0347
  402loPI   C2A 6424  17.335  18.112   9.517 -0.0462  0.1184 -0.1417
  402loPI   C3A 6425  17.311  17.975   9.097  0.0052 -0.1218 -0.0799
  402loPI   C4A 6426  17.257  18.055   8.711 -0.6417  0.1218 -0.1450
  402loPI   C5A 6427  17.363  17.812   8.422 -0.0457  0.0169  0.0356
  402loPI   C6A 6428  17.219  17.628   8.108 -0.0983 -0.1262 -0.0917
  402loPI   C1B 6429  17.123  17.646   9.807 -0.0981 -0.2174  0.0665
  402loPI   C2B 6430  17.201  17.540   9.337 -0.1836  0.0924 -0.0100
  402loPI   C3B 6431  17.277  17.494   8.918  0.0606 -0.1921  0.3626
  402loPI   C4B 6432  17.275  17.373   8.541  0.1277 -0.0926  0.0432
  403loPI    C1 6433   7.274  10.697  10.764 -0.2219 -0.0346  0.1101
  403loPI    C2 6434   7.062  11.036  10.751 -0.0183  0.0926  0.0580
  403loPI    C3 6435   7.208  10.904  11.100  0.3363  0.3342  0.0066
  403loPI   PO4 6436   7.496  10.791  10.592  0.1069 -0.0383  0.2897
  403loPI   GL1 6437   7.453  10.846  10.191 -0.0056 -0.0628  0.0052
  403loPI   GL2 6438   7.137  10.979  10.211 -0.0669 -0.0556  0.0479
  403loPI   C1A 6439   7.616  10.893   9.772 -0.2187 -0.1417 -0.2627
  403loPI   C2A 6440   7.549  10.904   9.467  0.0723  0.2429 -0.0616
  403loPI   C3A 6441   7.623  10.827   9.068 -0.1855  0.1587  0.4058
  403loPI   C4A 6442   7.708  10.866   8.649 -0.1857  0.0948  0.1614
  403loPI   C5A 6443   7.497  10.866   8.237  0.1422  0.1634 -0.0658
  403loPI   C6A 6444   7.453  11.345   8.028 -0.0410  0.1007  0.0313
  403loPI   C1B 6445   7.180  10.590   9.846 -0.1938 -0.0428  0.2308
  403loPI   C2B 6446   7.198  10.552   9.443  0.0539  0.1758 -0.3917
  403loPI   C3B 6447   7.228  10.548   8.937 -0.2334 -0.1931 -0.0733
  403loPI   C4B 6448   7.083  10.620   8.481  0.1047  0.1194  0.1314
  404loPI    C1 6449  14.663   7.268  10.469  0.1163 -0.0689 -0.0595
  404loPI    C2 6450  14.859   7.433  10.162  0.3540  0.0285  0.1416
  404loPI    C3 6451  14.614   7.656  10.386 -0.1660 -0.1393 -0.2391
  404loPI   PO4 6452  14.576   7.059  10.369 -0.0424 -0.0099 -0.1662
  404loPI   GL1 6453  14.497   6.895  10.015 -0.1628 -0.0490 -0.1496
  404loPI   GL2 6454  14.465   6.680   9.845 -0.2215  0.0500 -0.1525
  404loPI   C1A 6455  14.728   7.186   9.767 -0.0949  0.1347  0.2009
  404loPI   C2A 6456  14.911   7.162   9.427  0.0376 -0.1229  0.2818
  404loPI   C3A 6457  15.087   7.183   9.029  0.0452  0.1792  0.0952
  404loPI   C4A 6458  15.274   6.965   8.690 -0.1320  0.1567 -0.0041
  404loPI   C5A 6459  15.258   6.819   8.273  0.0393 -0.3074  0.2486
  404loPI   C6A 6460  15.489   6.425   7.991  0.1865 -0.2220  0.0181
  404loPI   C1B 6461  14.586   6.808   9.493  0.2572  0.0987 -0.2860
  404loPI   C2B 6462  14.744   6.785   9.033  0.0343 -0.2104  0.3328
  404loPI   C3B 6463  14.868   6.691   8.713 -0.2422 -0.2255  0.2136
  404loPI   C4B 6464  14.890   6.481   8.272 -0.1229  0.0396  0.0527
  405loPI    C1 6465   5.269   4.747  10.823 -0.0975  0.1359  0.1698
  405loPI    C2 6466   5.076   4.443  10.997  0.0462  0.1255  0.3135
  405loPI    C3 6467   5.458   4.516  11.089  0.0877  0.1956  0.0915
  405loPI   PO4 6468   5.302   4.748  10.620 -0.1125  0.1002  0.0427
  405loPI   GL1 6469   5.404   4.926  10.276  0.3650  0.2570  0.0028
  405loPI   GL2 6470   5.314   5.135  10.290 -0.1126  0.2639  0.0592
  405loPI   C1A 6471   5.389   4.657   9.936 -0.3415  0.0526  0.0626
  405loPI   C2A 6472   5.395   4.779   9.490  0.0033 -0.0389 -0.0992
  405loPI   C3A 6473   5.288   4.760   9.017 -0.2632 -0.2469 -0.0433
  405loPI   C4A 6474   5.369   4.985   8.514  0.0651 -0.2087 -0.1559
  405loPI   C5A 6475   5.494   4.850   8.143 -0.4936 -0.0850 -0.0870
  405loPI   C6A 6476   5.594   4.591   7.857  0.0671 -0.0139 -0.2778
  405loPI   C1B 6477   5.293   5.166   9.817 -0.2482  0.0606  0.1887
  405loPI   C2B 6478   5.259   5.232   9.325  0.0366 -0.0400  0.2061
  405loPI   C3B 6479   5.339   5.287   8.906  0.1577 -0.1729  0.0011
  405loPI   C4B 6480   5.397   5.505   8.474 -0.1454 -0.0116  0.0514
  406loPI    C1 6481  14.447   2.779  10.878  0.0564  0.2951 -0.0213
  406loPI    C2 6482  14.609   2.497  11.111 -0.0635  0.2631  0.0238
  406loPI    C3 6483  14.346   2.757  11.265  0.0751  0.4242 -0.0083
  406loPI   PO4 6484  14.460   2.653  10.650 -0.1463  0.1155 -0.1872
  406loPI   GL1 6485  14.271   2.698  10.290 -0.0887 -0.0267 -0.0153
  406loPI   GL2 6486  14.481   2.913  10.122 -0.1383  0.1497  0.2243
  406loPI   C1A 6487  14.050   2.381   9.977 -0.1727 -0.1413  0.1618
  406loPI   C2A 6488  14.128   2.274   9.532 -0.0732 -0.0315  0.1993
  406loPI   C3A 6489  14.202   2.310   9.103  0.1742 -0.3056  0.0157
  406loPI   C4A 6490  14.229   2.311   8.650 -0.0443 -0.1647 -0.3052
  406loPI   C5A 6491  13.915   2.322   8.261 -0.1236 -0.2495 -0.2632
  406loPI   C6A 6492  13.538   2.325   8.062  0.1799 -0.4031  0.4495
  406loPI   C1B 6493  14.526   3.083   9.626 -0.0157 -0.1565 -0.0494
  406loPI   C2B 6494  14.651   3.064   9.186 -0.1078  0.4899  0.0424
  406loPI   C3B 6495  14.811   3.082   8.784  0.1204 -0.4420  0.2808
  406loPI   C4B 6496  14.739   2.839   8.375 -0.2950 -0.0785  0.0253
  407loPI    C1 6497   9.443  10.728  10.374 -0.2871  0.1314 -0.0410
  407loPI    C2 6498   9.477  11.066  10.586  0.0766  0.0361  0.0591
  407loPI    C3 6499   9.616  10.722  10.734 -0.0791 -0.1164 -0.1424
  407loPI   PO4 6500   9.139  10.773  10.295 -0.3123 -0.1767  0.3441
  407loPI   GL1 6501   8.839  10.671   9.994  0.0880  0.2676 -0.0749
  407loPI   GL2 6502   8.595  10.529   9.921  0.0357  0.0250  0.1622
  407loPI   C1A 6503   8.964  11.019   9.711 -0.0258 -0.0212 -0.0245
  407loPI   C2A 6504   8.977  11.162   9.275  0.0032  0.2273 -0.0035
  407loPI   C3A 6505   8.928  11.123   8.844 -0.3410 -0.4683 -0.1905
  407loPI   C4A 6506   9.113  11.289   8.490 -0.0144  0.2387 -0.1238
  407loPI   C5A 6507   9.106  11.718   8.175 -0.1391 -0.3049  0.1595
  407loPI   C6A 6508   9.231  12.064   7.888 -0.3520  0.0464  0.4050
  407loPI   C1B 6509   8.639  10.646   9.553  0.2469 -0.0040  0.1255
  407loPI   C2B 6510   8.624  10.847   9.086 -0.1708 -0.0176 -0.1280
  407loPI   C3B 6511   8.476  10.873   8.703  0.1603  0.0674 -0.1128
  407loPI   C4B 6512   8.477  10.945   8.327  0.2606  0.0130  0.0640
  408loPI    C1 6513   0.804   6.526  10.623  0.1265 -0.3258 -0.0127
  408loPI    C2 6514   0.440   6.427  10.491 -0.0226  0.1385  0.0303
  408loPI    C3 6515   0.486   6.569  10.862  0.2576 -0.2449  0.1492
  408loPI   PO4 6516   0.925   6.649  10.441 -0.3439 -0.0507 -0.0803
  408loPI   GL1 6517   1.138   6.985  10.272 -0.2161 -0.0380  0.2246
  408loPI   GL2 6518   0.828   7.061  10.164  0.3143 -0.1536 -0.0206
  408loPI   C1A 6519   1.128   7.341   9.947  0.0220  0.0337  0.0300
  408loPI   C2A 6520   1.003   7.230   9.537  0.1580 -0.0537  0.1125
  408loPI   C3A 6521   1.148   7.195   9.080  0.3836  0.0786 -0.2271
  408loPI   C4A 6522   1.102   7.083   8.705  0.1620  0.3072 -0.2113
  408loPI   C5A 6523   1.178   7.008   8.262  0.2960 -0.0305 -0.0071
  408loPI   C6A 6524   1.154   6.979   7.805 -0.0853 -0.1223  0.0526
  408loPI   C1B 6525   1.075   6.846   9.811  0.2030  0.1404  0.0047
  408loPI   C2B 6526   1.080   6.727   9.342  0.1715 -0.0005 -0.4134
  408loPI   C3B 6527   1.071   6.610   8.953  0.3851 -0.0415  0.2395
  408loPI   C4B 6528   1.198   6.621   8.668 -0.0442 -0.1693  0.2652
  409loPI    C1 6529  13.822  17.638  11.036 -0.3492  0.0304 -0.3023
  409loPI    C2 6530  13.811  17.248  10.950 -0.0431 -0.0303 -0.0829
  409loPI    C3 6531  13.540  17.406  11.199 -0.1790 -0.0973 -0.1869
  409loPI   PO4 6532  13.884  17.760  10.749  0.2261  0.3092  0.1753
  409loPI   GL1 6533  13.929  17.727  10.293 -0.0404  0.1313  0.3092
  409loPI   GL2 6534  13.972  17.448  10.198 -0.1158  0.0933 -0.1350
  409loPI   C1A 6535  14.056  17.835   9.851  0.1566 -0.1068 -0.1522
  409loPI   C2A 6536  14.031  17.894   9.418 -0.0449 -0.2311 -0.1029
  409loPI   C3A 6537  14.108  18.006   9.035 -0.1236  0.0722  0.0791
  409loPI   C4A 6538  14.079  17.688   8.767  0.1826  0.1335  0.0224
  409loPI   C5A 6539  14.026  17.626   8.377 -0.3016 -0.0318  0.0929
  409loPI   C6A 6540  13.885  17.639   7.954 -0.1204 -0.1807 -0.0643
  409loPI   C1B 6541  14.099  17.361   9.884 -0.3075 -0.0389  0.1335
  409loPI   C2B 6542  14.063  17.380   9.475 -0.3312  0.0531  0.1103
  409loPI   C3B 6543  14.142  17.316   9.048 -0.0234 -0.3394 -0.0888
  409loPI   C4B 6544  14.151  17.210   8.617  0.1025 -0.1904 -0.1878
  410loPI    C1 6545   1.583   8.558  10.545  0.2040 -0.0678  0.0673
  410loPI    C2 6546   1.512   8.339  10.217  0.0157 -0.1535  0.1636
  410loPI    C3 6547   1.736   8.190  10.513 -0.0325 -0.1787  0.1876
  410loPI   PO4 6548   1.306   8.643  10.559 -0.1101 -0.2178  0.0629
  410loPI   GL1 6549   1.162   8.760  10.184 -0.2266 -0.2662  0.1410
  410loPI   GL2 6550   0.980   8.922  10.000  0.2181  0.0325  0.2356
  410loPI   C1A 6551   1.434   8.646   9.785 -0.2249 -0.0109 -0.0553
  410loPI   C2A 6552   1.609   8.571   9.527 -0.2009 -0.1835 -0.1983
  410loPI   C3A 6553   1.615   8.581   9.135 -0.2261  0.5119 -0.4186
  410loPI   C4A 6554   1.628   8.326   8.744 -0.0078 -0.2450 -0.1767
  410loPI   C5A 6555   1.575   8.188   8.346 -0.3204  0.0289  0.2795
  410loPI   C6A 6556   1.239   8.218   8.063  0.1686 -0.0307  0.0639
  410loPI   C1B 6557   1.087   8.950   9.632 -0.1459 -0.0360  0.0234
  410loPI   C2B 6558   1.166   8.901   9.226  0.0809  0.0890  0.0843
  410loPI   C3B 6559   1.132   8.698   8.779 -0.2650 -0.2033 -0.1425
  410loPI   C4B 6560   1.109   8.594   8.446 -0.2962 -0.1343 -0.2514
  411loPI    C1 6561  12.442  11.600  10.296 -0.0086 -0.1000 -0.0379
  411loPI    C2 6562  12.386  11.205  10.274  0.0146 -0.1118  0.1034
  411loPI    C3 6563  12.705  11.351  10.465 -0.0785 -0.0214  0.1908
  411loPI   PO4 6564  12.354  11.679  10.103 -0.0551 -0.2515  0.1429
  411loPI   GL1 6565  11.912  11.789   9.901  0.0564  0.0794  0.2308
  411loPI   GL2 6566  11.980  11.974   9.657 -0.0415 -0.0697 -0.0701
  411loPI   C1A 6567  11.507  11.858   9.609 -0.0785 -0.1527 -0.3236
  411loPI   C2A 6568  11.368  12.026   9.300  0.0853 -0.2769 -0.1307
  411loPI   C3A 6569  11.405  12.164   8.913  0.2053  0.3624 -0.3047
  411loPI   C4A 6570  11.321  12.235   8.583 -0.0105  0.4115 -0.2420
  411loPI   C5A 6571  11.282  12.152   8.187 -0.0807 -0.0875 -0.0351
  411loPI   C6A 6572  11.289  12.250   7.729 -0.0002 -0.3245  0.1197
  411loPI   C1B 6573  11.836  12.064   9.295  0.4472 -0.1570  0.2839
  411loPI   C2B 6574  11.902  12.207   8.791 -0.2543  0.0511 -0.2772
  411loPI   C3B 6575  11.720  12.229   8.364 -0.0691  0.0814 -0.0197
  411loPI   C4B 6576  11.719  12.277   7.950 -0.0465  0.1017  0.0477
  412loPI    C1 6577  17.885   9.714  10.445 -0.0087  0.0700 -0.2817
  412loPI    C2 6578  17.841  10.027  10.691 -0.0107 -0.0121 -0.1773
  412loPI    C3 6579  17.614   9.701  10.739  0.0774 -0.0785 -0.2075
  412loPI   PO4 6580  17.829   9.765  10.143  0.0551  0.0418  0.0816
  412loPI   GL1 6581  17.691   9.549   9.779 -0.0065 -0.0691  0.2260
  412loPI   GL2 6582  17.489   9.388   9.525 -0.0613 -0.1406 -0.1056
  412loPI   C1A 6583  17.951   9.700   9.511 -0.3007 -0.0451 -0.2014
  412loPI   C2A 6584  17.974   9.604   9.120  0.1017 -0.2401 -0.0499
  412loPI   C3A 6585  18.005   9.665   8.693  0.0294 -0.2062 -0.0699
  412loPI   C4A 6586  18.236   9.549   8.343  0.1628 -0.1939  0.3197
  412loPI   C5A 6587  18.666   9.595   8.332 -0.1107 -0.0112  0.0347
  412loPI   C6A 6588  18.935   9.344   8.161  0.0699  0.0807 -0.1774
  412loPI   C1B 6589  17.501   9.313   9.099 -0.4354 -0.0332 -0.1975
  412loPI   C2B 6590  17.569   9.404   8.766  0.0979  0.1324  0.3983
  412loPI   C3B 6591  17.753   9.397   8.298 -0.1769 -0.0762  0.2077
  412loPI   C4B 6592  17.871   9.809   8.075  0.0134  0.0900 -0.3266
  413loPI    C1 6593   2.362  15.616  10.517  0.0463  0.1580 -0.2319
  413loPI    C2 6594   2.126  15.876  10.710  0.0848  0.2051 -0.2480
  413loPI    C3 6595   2.359  16.002  10.410  0.0262  0.1324 -0.3247
  413loPI   PO4 6596   2.263  15.396  10.489  0.1719  0.1052  0.0094
  413loPI   GL1 6597   2.307  15.323   9.985  0.0340  0.2598  0.0805
  413loPI   GL2 6598   2.390  15.563   9.766 -0.0208 -0.2598  0.1225
  413loPI   C1A 6599   2.105  15.163   9.615  0.3168  0.1399  0.0327
  413loPI   C2A 6600   2.071  15.109   9.192 -0.1061  0.1506 -0.0558
  413loPI   C3A 6601   2.147  15.139   8.765  0.0452 -0.0810 -0.1042
  413loPI   C4A 6602   2.260  15.099   8.365 -0.2222 -0.2497 -0.1132
  413loPI   C5A 6603   2.423  15.053   7.884  0.0789 -0.0189  0.2598
  413loPI   C6A 6604   2.345  14.751   7.625  0.1018 -0.1540 -0.0909
  413loPI   C1B 6605   2.290  15.545   9.378  0.0331 -0.5429  0.2407
  413loPI   C2B 6606   2.269  15.530   9.033 -0.1910  0.1482  0.1608
  413loPI   C3B 6607   2.144  15.589   8.515 -0.0298 -0.1561 -0.2898
  413loPI   C4B 6608   2.286  15.490   8.099 -0.0079 -0.2547  0.0942
  414loPI    C1 6609  15.839   7.180  10.494  0.0061 -0.2143 -0.0977
  414loPI    C2 6610  16.071   6.920  10.690  0.2504  0.0649 -0.0084
  414loPI    C3 6611  15.682   6.949  10.781  0.2540 -0.1590  0.0860
  414loPI   PO4 6612  15.962   7.197  10.278  0.1555 -0.1485  0.4317
  414loPI   GL1 6613  15.962   7.126   9.918 -0.0893  0.1642 -0.0359
  414loPI   GL2 6614  16.159   6.919   9.904  0.3278  0.3950 -0.1223
  414loPI   C1A 6615  15.977   7.075   9.441 -0.3868 -0.0570 -0.1084
  414loPI   C2A 6616  16.046   7.010   8.951 -0.2187  0.0698 -0.0398
  414loPI   C3A 6617  16.101   7.149   8.531 -0.3940 -0.1491  0.1603
  414loPI   C4A 6618  15.849   7.235   8.192 -0.0928  0.0555 -0.3032
  414loPI   C5A 6619  15.506   7.143   7.894 -0.0349  0.1418 -0.0637
  414loPI   C6A 6620  15.541   7.345   7.505 -0.1354 -0.1174  0.2544
  414loPI   C1B 6621  16.378   6.839   9.496 -0.0310 -0.0549 -0.0114
  414loPI   C2B 6622  16.496   6.827   9.147 -0.1107  0.4557 -0.0808
  414loPI   C3B 6623  16.645   6.594   8.815 -0.0879  0.0757 -0.0698
  414loPI   C4B 6624  16.660   6.438   8.349 -0.1548 -0.0088  0.2556
  415loPI    C1 6625   4.351  10.917  10.551  0.1710 -0.3242  0.0025
  415loPI    C2 6626   4.006  10.800  10.387  0.1797 -0.3701  0.0167
  415loPI    C3 6627   4.043  10.815  10.785  0.1487 -0.2290  0.0148
  415loPI   PO4 6628   4.488  11.034  10.443  0.0902 -0.0895 -0.2077
  415loPI   GL1 6629   4.641  10.796   9.984 -0.1310 -0.0630 -0.0329
  415loPI   GL2 6630   4.318  10.794  10.007  0.1368 -0.1794  0.1065
  415loPI   C1A 6631   4.781  10.936   9.574 -0.0275  0.2144 -0.2668
  415loPI   C2A 6632   4.736  10.886   9.086  0.2583 -0.0743  0.2284
  415loPI   C3A 6633   4.851  10.835   8.720 -0.0415 -0.0384  0.2038
  415loPI   C4A 6634   4.935  10.700   8.280 -0.1359  0.0948  0.1053
  415loPI   C5A 6635   4.832  10.438   8.071  0.2006  0.0610  0.3113
  415loPI   C6A 6636   4.691  10.108   8.217  0.1866  0.1934 -0.0714
  415loPI   C1B 6637   4.386  10.572   9.614  0.2545  0.0263 -0.1260
  415loPI   C2B 6638   4.393  10.558   9.194  0.2689 -0.1036 -0.3667
  415loPI   C3B 6639   4.353  10.604   8.785 -0.0823  0.0232 -0.0541
  415loPI   C4B 6640   4.292  10.509   8.378 -0.1060  0.2950  0.1349
  416loPI    C1 6641  15.413   2.706  10.793  0.1966  0.1322  0.0390
  416loPI    C2 6642  15.656   2.946  11.001 -0.0237  0.1485  0.2838
  416loPI    C3 6643  15.406   2.700  11.193 -0.0374 -0.0364  0.0345
  416loPI   PO4 6644  15.350   2.869  10.633  0.0363 -0.1883  0.2115
  416loPI   GL1 6645  15.033   2.821  10.360 -0.0694 -0.0250 -0.0058
  416loPI   GL2 6646  14.857   3.074  10.563 -0.1330 -0.1914  0.2591
  416loPI   C1A 6647  15.099   2.639  10.019  0.1230 -0.3314  0.1413
  416loPI   C2A 6648  15.095   2.727   9.605  0.1234 -0.1659  0.4441
  416loPI   C3A 6649  15.144   2.769   9.163 -0.0004  0.2202  0.0206
  416loPI   C4A 6650  15.153   2.765   8.791  0.1877  0.2045  0.0562
  416loPI   C5A 6651  15.117   2.526   8.398 -0.2656  0.0192 -0.0135
  416loPI   C6A 6652  14.831   2.408   8.056 -0.1160  0.2101 -0.1704
  416loPI   C1B 6653  14.888   3.151  10.005 -0.2601  0.2967 -0.3236
  416loPI   C2B 6654  15.042   3.235   9.611 -0.0788  0.0120 -0.1857
  416loPI   C3B 6655  15.152   3.243   9.137  0.1604 -0.1531 -0.0358
  416loPI   C4B 6656  15.196   3.357   8.701  0.1437 -0.1430 -0.0256
  417loPI    C1 6657   1.740  13.714  10.535 -0.0532 -0.0758 -0.0841
  417loPI    C2 6658   1.376  13.685  10.373 -0.1191 -0.1984  0.0825
  417loPI    C3 6659   1.425  13.880  10.718  0.0285  0.1065 -0.1071
  417loPI   PO4 6660   1.829  13.527  10.445  0.0912  0.1383  0.1305
  417loPI   GL1 6661   2.052  13.410  10.099  0.3637  0.1553  0.0347
  417loPI   GL2 6662   2.015  13.149   9.940  0.0230 -0.0741  0.0005
  417loPI   C1A 6663   2.144  13.583   9.664 -0.0293 -0.0480  0.3767
  417loPI   C2A 6664   2.183  13.676   9.265 -0.0189  0.0133  0.2246
  417loPI   C3A 6665   2.241  13.573   8.783 -0.0307 -0.1375 -0.0024
  417loPI   C4A 6666   2.117  13.514   8.366  0.2478  0.1153  0.1752
  417loPI   C5A 6667   2.027  13.241   7.953 -0.0661  0.1542  0.1205
  417loPI   C6A 6668   1.944  12.855   7.715  0.2589 -0.0557  0.0229
  417loPI   C1B 6669   2.121  13.122   9.499  0.0949 -0.1212  0.0793
  417loPI   C2B 6670   2.198  13.162   9.111  0.1770 -0.0888 -0.1116
  417loPI   C3B 6671   2.179  13.064   8.716 -0.0670  0.1126  0.1689
  417loPI   C4B 6672   2.141  12.987   8.377  0.0784  0.0051 -0.2210
  418loPI    C1 6673   0.868  13.524  10.364 -0.1672 -0.1074  0.1562
  418loPI    C2 6674   0.858  13.244  10.650 -0.2321  0.0084  0.2681
  418loPI    C3 6675   1.008  13.607  10.730  0.0181 -0.0496  0.0735
  418loPI   PO4 6676   0.989  13.479  10.187  0.0494  0.0144  0.0859
  418loPI   GL1 6677   1.039  13.522   9.830 -0.0696 -0.0001  0.1369
  418loPI   GL2 6678   1.240  13.727   9.777  0.0014 -0.2296 -0.2967
  418loPI   C1A 6679   0.824  13.411   9.451  0.0997  0.0273 -0.1042
  418loPI   C2A 6680   0.736  13.241   9.060 -0.0583 -0.0348 -0.1136
  418loPI   C3A 6681   0.756  13.322   8.622 -0.0848  0.1280  0.2219
  418loPI   C4A 6682   0.697  13.387   8.108 -0.2601  0.0265 -0.1237
  418loPI   C5A 6683   0.303  13.226   7.852  0.1924  0.5493  0.4207
  418loPI   C6A 6684   0.087  12.874   7.960 -0.2210 -0.0670  0.3352
  418loPI   C1B 6685   1.338  13.711   9.371  0.3752  0.0113 -0.0152
  418loPI   C2B 6686   1.346  13.590   8.861  0.0220  0.1787 -0.1767
  418loPI   C3B 6687   1.235  13.526   8.496 -0.1456 -0.0273  0.1089
  418loPI   C4B 6688   1.216  13.461   8.003 -0.2293  0.0399 -0.0007
  419loPI    C1 6689  10.430   1.199  10.475 -0.0543  0.0493  0.0016
  419loPI    C2 6690  10.523   1.384  10.817  0.1634  0.0088 -0.0344
  419loPI    C3 6691  10.443   0.992  10.817  0.0256  0.0367 -0.0086
  419loPI   PO4 6692  10.579   1.275  10.346  0.1901 -0.1413  0.1947
  419loPI   GL1 6693  10.860   1.105  10.133 -0.1608 -0.0800 -0.0244
  419loPI   GL2 6694  10.892   0.787  10.071  0.1537 -0.0054 -0.1570
  419loPI   C1A 6695  10.903   1.077   9.703 -0.0854 -0.3245  0.0538
  419loPI   C2A 6696  10.927   1.158   9.411  0.1951 -0.0123  0.2526
  419loPI   C3A 6697  10.936   1.014   9.054 -0.0369  0.4004  0.1624
  419loPI   C4A 6698  11.046   0.855   8.645 -0.0585 -0.3544  0.1784
  419loPI   C5A 6699  10.886   0.907   8.279  0.0751 -0.0359  0.2954
  419loPI   C6A 6700  10.817   1.132   7.900 -0.0280 -0.0886 -0.2993
  419loPI   C1B 6701  10.691   0.585   9.745 -0.4622 -0.2215  0.0210
  419loPI   C2B 6702  10.793   0.637   9.315  0.1117 -0.0168  0.1104
  419loPI   C3B 6703  11.047   0.485   8.912  0.0638  0.2835 -0.3649
  419loPI   C4B 6704  10.979   0.349   8.398 -0.0972  0.0168  0.0139
  420loPI    C1 6705   6.258   3.176  10.433 -0.0083 -0.0568 -0.0481
  420loPI    C2 6706   6.619   3.256  10.585 -0.0823  0.2212 -0.0139
  420loPI    C3 6707   6.293   3.419  10.749 -0.2240 -0.0253 -0.0470
  420loPI   PO4 6708   6.265   3.202  10.201 -0.3855 -0.1738 -0.0070
  420loPI   GL1 6709   6.167   3.585   9.955  0.3267 -0.2306  0.2588
  420loPI   GL2 6710   6.250   3.857   9.958 -0.2514 -0.0474  0.0620
  420loPI   C1A 6711   5.937   3.891   9.606  0.0532  0.0799  0.0080
  420loPI   C2A 6712   5.796   3.928   9.172 -0.0791 -0.1231 -0.0669
  420loPI   C3A 6713   5.681   4.015   8.751 -0.2367  0.0260 -0.1336
  420loPI   C4A 6714   5.589   4.093   8.328  0.3777 -0.0173 -0.2719
  420loPI   C5A 6715   5.615   4.018   8.024 -0.0627 -0.0398  0.2438
  420loPI   C6A 6716   5.706   3.595   7.869  0.1338 -0.0319 -0.1064
  420loPI   C1B 6717   6.322   3.644   9.455 -0.0424 -0.1418 -0.1700
  420loPI   C2B 6718   6.251   3.741   8.992 -0.3385  0.0879  0.0726
  420loPI   C3B 6719   6.148   3.836   8.603 -0.0434 -0.0950  0.0624
  420loPI   C4B 6720   6.110   3.977   8.178 -0.2312  0.2923 -0.2848
  421loPI    C1 6721  16.295   2.281  10.946 -0.0720 -0.2817  0.0772
  421loPI    C2 6722  16.402   2.529  11.241  0.0508 -0.3380  0.0804
  421loPI    C3 6723  16.576   2.170  11.208  0.2150 -0.2359 -0.2045
  421loPI   PO4 6724  16.313   2.371  10.713 -0.0659 -0.1777 -0.0091
  421loPI   GL1 6725  16.403   2.681  10.406  0.0412 -0.0786  0.0583
  421loPI   GL2 6726  16.760   2.690  10.352  0.3201 -0.2243  0.1407
  421loPI   C1A 6727  16.512   2.920  10.009  0.1095  0.0523 -0.2751
  421loPI   C2A 6728  16.622   3.045   9.692  0.1617 -0.1402  0.1701
  421loPI   C3A 6729  16.619   3.005   9.278  0.1730 -0.0236 -0.0661
  421loPI   C4A 6730  16.511   3.000   8.924 -0.0724 -0.2634 -0.0101
  421loPI   C5A 6731  16.473   3.138   8.485  0.0461  0.0167 -0.3112
  421loPI   C6A 6732  16.027   3.092   8.244 -0.0442  0.4138  0.2515
  421loPI   C1B 6733  16.916   2.652   9.924  0.1788  0.1686 -0.1468
  421loPI   C2B 6734  16.948   2.669   9.509  0.3146 -0.0737 -0.1936
  421loPI   C3B 6735  16.983   2.671   9.064  0.2589 -0.0609  0.1122
  421loPI   C4B 6736  16.885   2.802   8.594  0.0329 -0.0263  0.2275
  422loPI    C1 6737   3.067   1.380  10.401 -0.0629 -0.1729  0.0221
  422loPI    C2 6738   3.092   1.326  10.797  0.0352 -0.0363  0.0351
  422loPI    C3 6739   3.416   1.279  10.568  0.0517  0.1892  0.0096
  422loPI   PO4 6740   2.894   1.611  10.425  0.0833  0.2889  0.0568
  422loPI   GL1 6741   2.510   1.931  10.350 -0.1434 -0.0554  0.1827
  422loPI   GL2 6742   2.548   2.188  10.113 -0.0408  0.1124 -0.3746
  422loPI   C1A 6743   2.100   1.974  10.100 -0.0680 -0.1213  0.0270
  422loPI   C2A 6744   1.805   1.876   9.654 -0.2646 -0.0850 -0.1623
  422loPI   C3A 6745   1.975   1.997   9.233  0.0845 -0.1162 -0.0132
  422loPI   C4A 6746   1.808   2.078   8.812 -0.2675 -0.2291 -0.0157
  422loPI   C5A 6747   2.032   1.944   8.336 -0.1400  0.0032  0.0001
  422loPI   C6A 6748   2.333   1.794   8.127 -0.0127 -0.1349  0.1388
  422loPI   C1B 6749   2.409   2.175   9.743  0.1938 -0.0598 -0.0106
  422loPI   C2B 6750   2.377   2.292   9.298 -0.0374 -0.1499 -0.0428
  422loPI   C3B 6751   2.447   2.256   8.928  0.4430  0.4626  0.0922
  422loPI   C4B 6752   2.508   2.244   8.364 -0.2064 -0.1083  0.0583
  423loPI    C1 6753   7.112   3.349  10.391  0.2512 -0.1478  0.0524
  423loPI    C2 6754   7.342   3.585  10.618  0.0072  0.1276  0.0203
  423loPI    C3 6755   7.149   3.276  10.782 -0.2357  0.3754  0.2101
  423loPI   PO4 6756   7.209   3.357  10.173 -0.0706 -0.0916  0.1381
  423loPI   GL1 6757   7.039   3.617   9.794 -0.1492 -0.2498 -0.0770
  423loPI   GL2 6758   6.776   3.728   9.652 -0.0885  0.0727 -0.2634
  423loPI   C1A 6759   7.154   3.551   9.423  0.2819  0.0851  0.0705
  423loPI   C2A 6760   7.302   3.632   8.973 -0.1551 -0.1081  0.0037
  423loPI   C3A 6761   7.137   3.789   8.665 -0.2371  0.0020 -0.1501
  423loPI   C4A 6762   7.024   3.898   8.282 -0.0512  0.0089  0.1807
  423loPI   C5A 6763   7.070   4.020   7.817 -0.0848  0.0895  0.0797
  423loPI   C6A 6764   6.915   3.905   7.364 -0.3442  0.1228 -0.1750
  423loPI   C1B 6765   6.695   3.925   9.261 -0.2506 -0.2295  0.0945
  423loPI   C2B 6766   6.718   4.060   8.930  0.0467  0.1361 -0.0709
  423loPI   C3B 6767   6.539   4.135   8.534 -0.3786 -0.3600  0.0356
  423loPI   C4B 6768   6.532   4.262   7.974  0.0153  0.2108  0.0987
  424loPI    C1 6769   7.534  15.489  10.972  0.0849 -0.0929  0.0906
  424loPI    C2 6770   7.362  15.801  11.153 -0.2381 -0.1325 -0.1382
  424loPI    C3 6771   7.348  15.439  11.323  0.1542 -0.0256  0.1370
  424loPI   PO4 6772   7.447  15.482  10.663 -0.0160  0.0008  0.0861
  424loPI   GL1 6773   7.569  15.389  10.254 -0.2778 -0.2208 -0.3496
  424loPI   GL2 6774   7.413  15.068  10.188 -0.2540 -0.4312  0.0018
  424loPI   C1A 6775   7.748  15.271   9.881 -0.0679 -0.1392  0.0705
  424loPI   C2A 6776   7.631  15.244   9.642 -0.4450 -0.0287 -0.1619
  424loPI   C3A 6777   7.698  15.140   9.165  0.4758  0.1358  0.1664
  424loPI   C4A 6778   7.708  15.127   8.843  0.3258 -0.0702  0.0641
  424loPI   C5A 6779   7.651  15.143   8.323  0.2443  0.4069  0.1131
  424loPI   C6A 6780   7.529  15.524   8.100  0.0399  0.0095  0.1218
  424loPI   C1B 6781   7.094  15.346   9.896  0.1052  0.0114  0.0983
  424loPI   C2B 6782   7.187  15.486   9.498 -0.1724  0.1805  0.1617
  424loPI   C3B 6783   7.285  15.407   9.033  0.3205 -0.2638 -0.2772
  424loPI   C4B 6784   7.292  15.392   8.599 -0.1481 -0.0742 -0.1062
  425loPI    C1 6785   7.170   8.274  10.781  0.0588 -0.0542  0.1022
  425loPI    C2 6786   7.205   8.626  10.594 -0.0608 -0.1360 -0.0772
  425loPI    C3 6787   6.960   8.589  10.908  0.1682  0.0111  0.1226
  425loPI   PO4 6788   7.159   8.094  10.617  0.0048  0.1137 -0.0621
  425loPI   GL1 6789   7.015   8.122  10.201 -0.0770  0.2487 -0.0747
  425loPI   GL2 6790   7.213   8.367  10.145 -0.2654  0.1669 -0.2615
  425loPI   C1A 6791   6.769   8.149   9.894 -0.1278 -0.1731  0.0580
  425loPI   C2A 6792   6.609   8.095   9.468  0.0588  0.0565 -0.1204
  425loPI   C3A 6793   6.653   8.209   9.010 -0.1697  0.0210  0.2198
  425loPI   C4A 6794   6.600   8.249   8.533 -0.2079  0.1077 -0.3874
  425loPI   C5A 6795   6.706   8.095   8.100  0.4576 -0.3114 -0.0031
  425loPI   C6A 6796   6.524   7.758   7.992  0.2171  0.0989 -0.1524
  425loPI   C1B 6797   7.266   8.462   9.774 -0.0724  0.0928  0.3008
  425loPI   C2B 6798   7.162   8.523   9.307  0.2364 -0.0596  0.1880
  425loPI   C3B 6799   7.104   8.554   8.914  0.2513 -0.1018 -0.2016
  425loPI   C4B 6800   7.172   8.563   8.487  0.1607 -0.0726 -0.0579
  426loPI    C1 6801   2.755  14.645  10.524 -0.2687  0.1180 -0.0895
  426loPI    C2 6802   2.826  14.991  10.712 -0.0338  0.0858 -0.1150
  426loPI    C3 6803   2.800  14.651  10.922  0.0744  0.0715 -0.1239
  426loPI   PO4 6804   2.791  14.754  10.265  0.0323 -0.3309 -0.0525
  426loPI   GL1 6805   2.886  14.525   9.861 -0.0736 -0.0096  0.0033
  426loPI   GL2 6806   2.566  14.398   9.844  0.1354 -0.0449 -0.1807
  426loPI   C1A 6807   3.019  14.695   9.468  0.1740 -0.1446 -0.2152
  426loPI   C2A 6808   3.025  14.595   9.106 -0.0019 -0.0220 -0.1048
  426loPI   C3A 6809   3.074  14.585   8.723  0.0963  0.0735 -0.0920
  426loPI   C4A 6810   3.130  14.573   8.370 -0.0170  0.0576  0.1787
  426loPI   C5A 6811   3.165  14.434   7.894  0.0777  0.0154  0.1979
  426loPI   C6A 6812   3.422  14.223   7.536  0.0169 -0.0106  0.0785
  426loPI   C1B 6813   2.626  14.408   9.375 -0.0603  0.0619  0.0498
  426loPI   C2B 6814   2.555  14.401   8.962  0.1961 -0.0360 -0.0716
  426loPI   C3B 6815   2.655  14.366   8.595 -0.0854  0.0657  0.1488
  426loPI   C4B 6816   2.756  14.250   8.167  0.0538  0.0208  0.1151
  427loPI    C1 6817   2.272   2.261  10.739 -0.0595 -0.0726  0.0533
  427loPI    C2 6818   2.301   2.469  11.080  0.0363  0.2787 -0.1635
  427loPI    C3 6819   1.944   2.416  10.907 -0.0027  0.1633 -0.0492
  427loPI   PO4 6820   2.445   2.385  10.582  0.0590  0.1072  0.3360
  427loPI   GL1 6821   2.561   2.768  10.309  0.0170  0.2166 -0.0416
  427loPI   GL2 6822   2.878   2.948  10.147 -0.1417  0.3172  0.1565
  427loPI   C1A 6823   2.449   2.721   9.918  0.1677 -0.0934  0.2821
  427loPI   C2A 6824   2.300   2.780   9.512 -0.2042 -0.2700  0.2464
  427loPI   C3A 6825   2.457   2.785   9.055 -0.0594 -0.2161  0.2602
  427loPI   C4A 6826   2.452   2.742   8.563  0.0660 -0.0602  0.3084
  427loPI   C5A 6827   2.190   2.815   8.231  0.1194 -0.0986  0.0273
  427loPI   C6A 6828   2.067   2.732   7.781 -0.1206  0.1753  0.3157
  427loPI   C1B 6829   2.911   3.006   9.742  0.0599 -0.0949 -0.2360
  427loPI   C2B 6830   2.860   2.982   9.295 -0.3558  0.0454 -0.1889
  427loPI   C3B 6831   2.888   3.006   8.862 -0.1468 -0.2289  0.0438
  427loPI   C4B 6832   2.916   2.901   8.347 -0.1211 -0.0052  0.0776
  428loPI    C1 6833  16.474  10.365  10.497  0.0391 -0.0189 -0.1674
  428loPI    C2 6834  16.150  10.173  10.633  0.0156 -0.0864 -0.3173
  428loPI    C3 6835  16.333  10.444  10.863 -0.0125 -0.2123 -0.1444
  428loPI   PO4 6836  16.328  10.417  10.265  0.0034  0.1836  0.0912
  428loPI   GL1 6837  16.149  10.485   9.955 -0.1763 -0.0732  0.1686
  428loPI   GL2 6838  15.880  10.351   9.956 -0.0182  0.0741  0.0955
  428loPI   C1A 6839  16.189  10.468   9.542  0.3149 -0.1063  0.1195
  428loPI   C2A 6840  16.120  10.373   9.205 -0.0374 -0.2943 -0.0020
  428loPI   C3A 6841  16.149  10.288   8.832  0.1914 -0.3636  0.3096
  428loPI   C4A 6842  16.127  10.245   8.366  0.0975  0.0874  0.4886
  428loPI   C5A 6843  16.032  10.403   7.937  0.0788  0.0985  0.0611
  428loPI   C6A 6844  15.698  10.650   7.736 -0.1657 -0.1710 -0.1461
  428loPI   C1B 6845  15.712  10.300   9.611 -0.0660 -0.4536  0.1815
  428loPI   C2B 6846  15.676  10.156   9.183  0.1003  0.0891 -0.0896
  428loPI   C3B 6847  15.741  10.053   8.702 -0.0914  0.1791 -0.0345
  428loPI   C4B 6848  15.687   9.989   8.281  0.0663 -0.2059 -0.2430
  429loPI    C1 6849   5.078   2.175  10.262 -0.2383  0.0129 -0.0734
  429loPI    C2 6850   4.970   1.852  10.471  0.2873 -0.1921 -0.1043
  429loPI    C3 6851   4.960   2.213  10.643 -0.1672 -0.2370 -0.0247
  429loPI   PO4 6852   5.109   2.044   9.969  0.1112  0.0304  0.3541
  429loPI   GL1 6853   5.140   1.698   9.604  0.1670 -0.1740  0.2355
  429loPI   GL2 6854   4.993   1.863   9.454 -0.2798  0.1944  0.2760
  429loPI   C1A 6855   5.284   1.539   9.209  0.0848 -0.3303  0.0579
  429loPI   C2A 6856   5.234   1.465   8.762  0.3385 -0.0743  0.3432
  429loPI   C3A 6857   5.052   1.478   8.411 -0.1354 -0.1439  0.1505
  429loPI   C4A 6858   4.852   1.575   8.158  0.2776 -0.2949  0.0054
  429loPI   C5A 6859   4.529   1.443   7.839  0.1351  0.3360 -0.1926
  429loPI   C6A 6860   4.346   1.745   7.617 -0.0625 -0.0465  0.2849
  429loPI   C1B 6861   4.901   1.781   9.084 -0.1383  0.0108 -0.0787
  429loPI   C2B 6862   4.823   1.808   8.672  0.1222  0.0274 -0.1121
  429loPI   C3B 6863   4.725   2.055   8.393 -0.0338  0.0355 -0.2660
  429loPI   C4B 6864   4.595   2.081   7.958 -0.2558  0.2672  0.0463
  430loPI    C1 6865  12.851   6.169  10.549  0.2183 -0.1482 -0.1088
  430loPI    C2 6866  12.495   5.994  10.492  0.2107 -0.1388 -0.0907
  430loPI    C3 6867  12.722   5.889  10.805  0.1028  0.0498  0.0531
  430loPI   PO4 6868  12.977   6.115  10.360 -0.0540  0.3643 -0.2106
  430loPI   GL1 6869  13.373   5.843  10.196  0.0769 -0.1558 -0.2927
  430loPI   GL2 6870  13.318   6.011   9.999  0.2128  0.0877 -0.2692
  430loPI   C1A 6871  13.652   5.692   9.810 -0.1379 -0.0756 -0.0106
  430loPI   C2A 6872  13.703   5.644   9.367  0.0315  0.1144  0.3270
  430loPI   C3A 6873  13.765   5.719   9.014  0.1623  0.0133 -0.1396
  430loPI   C4A 6874  13.813   5.612   8.557 -0.0313  0.3033  0.1623
  430loPI   C5A 6875  13.901   5.702   8.121 -0.2197 -0.2416  0.1345
  430loPI   C6A 6876  13.760   6.078   7.851 -0.0139  0.0511 -0.2396
  430loPI   C1B 6877  13.245   6.009   9.573  0.1568  0.0037  0.1085
  430loPI   C2B 6878  13.288   5.874   9.102  0.2369 -0.2608 -0.1238
  430loPI   C3B 6879  13.300   5.979   8.679 -0.0588  0.3042 -0.1004
  430loPI   C4B 6880  13.347   5.821   8.223  0.1082  0.1046  0.2647
  431loPI    C1 6881  17.127   2.587  11.028  0.0341  0.1608  0.0234
  431loPI    C2 6882  17.448   2.452  11.224 -0.0783 -0.0799  0.0453
  431loPI    C3 6883  17.086   2.307  11.310 -0.1533 -0.0438 -0.2031
  431loPI   PO4 6884  17.285   2.666  10.745  0.1315  0.1317 -0.0659
  431loPI   GL1 6885  17.236   3.033  10.503  0.2260 -0.1050 -0.0741
  431loPI   GL2 6886  17.391   3.313  10.627 -0.6445 -0.0634 -0.1676
  431loPI   C1A 6887  17.361   3.024  10.084 -0.0733  0.1141  0.0880
  431loPI   C2A 6888  17.413   3.034   9.646  0.0023 -0.0545  0.1456
  431loPI   C3A 6889  17.355   2.941   9.144 -0.0847 -0.1596  0.1055
  431loPI   C4A 6890  17.403   2.973   8.706  0.0910 -0.1029  0.1807
  431loPI   C5A 6891  17.394   3.184   8.242 -0.0999 -0.1849 -0.1533
  431loPI   C6A 6892  17.448   3.014   7.882  0.1031  0.0015  0.2009
  431loPI   C1B 6893  17.474   3.516  10.201 -0.0043 -0.0559 -0.2027
  431loPI   C2B 6894  17.498   3.534   9.702 -0.2474  0.1120 -0.0347
  431loPI   C3B 6895  17.398   3.484   9.263  0.0550 -0.4175  0.0835
  431loPI   C4B 6896  17.386   3.516   8.807 -0.0230  0.0937 -0.0412
  432loPI    C1 6897   6.427  15.546  10.848 -0.1961 -0.0353 -0.0101
  432loPI    C2 6898   6.265  15.901  10.934 -0.1170 -0.0462  0.1877
  432loPI    C3 6899   6.168  15.579  11.150 -0.0775 -0.1164  0.1013
  432loPI   PO4 6900   6.418  15.661  10.559 -0.2984  0.1588 -0.0462
  432loPI   GL1 6901   6.612  15.516  10.173 -0.2837  0.0816 -0.3888
  432loPI   GL2 6902   6.559  15.227  10.015 -0.0221  0.0685 -0.0061
  432loPI   C1A 6903   6.746  15.691   9.758 -0.0870  0.2637  0.2235
  432loPI   C2A 6904   6.720  15.650   9.262 -0.0306 -0.0259  0.0897
  432loPI   C3A 6905   6.843  15.642   8.891 -0.3197  0.6305  0.0877
  432loPI   C4A 6906   6.806  15.582   8.513 -0.0837  0.0288 -0.2237
  432loPI   C5A 6907   6.618  15.698   8.151 -0.0748 -0.1742 -0.4049
  432loPI   C6A 6908   6.505  15.617   7.686 -0.1384  0.2442 -0.0730
  432loPI   C1B 6909   6.663  15.144   9.543  0.0299  0.1016 -0.2249
  432loPI   C2B 6910   6.760  15.159   9.130  0.1728 -0.1127  0.0489
  432loPI   C3B 6911   6.881  15.144   8.684 -0.2238  0.5061 -0.2125
  432loPI   C4B 6912   6.759  15.151   8.309 -0.0150 -0.1766 -0.0314
  433loPI    C1 6913  14.075   4.044  10.668  0.0868  0.0519  0.1938
  433loPI    C2 6914  13.843   4.367  10.710  0.0414  0.0379  0.0560
  433loPI    C3 6915  13.688   4.002  10.760  0.1210  0.0402  0.3336
  433loPI   PO4 6916  14.307   4.208  10.595  0.1781 -0.1205  0.0600
  433loPI   GL1 6917  14.595   4.309  10.269  0.2531 -0.2988 -0.1410
  433loPI   GL2 6918  14.754   4.375  10.474 -0.1405 -0.0068 -0.2702
  433loPI   C1A 6919  14.753   4.215   9.918  0.1019 -0.1923 -0.0994
  433loPI   C2A 6920  14.831   4.047   9.401  0.1106 -0.0250  0.0100
  433loPI   C3A 6921  14.775   4.087   8.998 -0.1276 -0.1185  0.0435
  433loPI   C4A 6922  14.754   4.215   8.569  0.2637 -0.1442 -0.1685
  433loPI   C5A 6923  14.716   4.584   8.347  0.2707 -0.2190  0.1226
  433loPI   C6A 6924  14.893   4.929   8.333 -0.1220  0.0576  0.1322
  433loPI   C1B 6925  14.954   4.682  10.263  0.0431 -0.0076 -0.1320
  433loPI   C2B 6926  15.190   4.875   9.868  0.2075 -0.1090 -0.1943
  433loPI   C3B 6927  15.162   4.896   9.406  0.0249 -0.1856  0.2373
  433loPI   C4B 6928  15.286   4.976   9.017 -0.0210  0.4746  0.0478
  434loPI    C1 6929  16.589  15.799  10.855 -0.1118 -0.0313 -0.0574
  434loPI    C2 6930  16.861  15.521  10.759 -0.0081 -0.0443  0.2600
  434loPI    C3 6931  16.884  15.710  11.111 -0.1511  0.2791  0.1008
  434loPI   PO4 6932  16.592  15.915  10.529  0.2957 -0.0209  0.0315
  434loPI   GL1 6933  16.835  16.158  10.262  0.0611 -0.3289 -0.0335
  434loPI   GL2 6934  17.080  15.938  10.080 -0.1312  0.1310  0.1914
  434loPI   C1A 6935  16.821  16.342   9.833 -0.1500  0.1134  0.0576
  434loPI   C2A 6936  16.819  16.326   9.354 -0.1418  0.1416 -0.2446
  434loPI   C3A 6937  16.796  16.237   8.899  0.0191 -0.0246  0.0017
  434loPI   C4A 6938  16.760  16.178   8.509  0.3185  0.0448 -0.1195
  434loPI   C5A 6939  16.932  16.117   8.143 -0.3762 -0.0334 -0.2950
  434loPI   C6A 6940  17.419  16.101   7.974  0.0680 -0.0955  0.4442
  434loPI   C1B 6941  17.239  16.004   9.706  0.1489 -0.1335 -0.0594
  434loPI   C2B 6942  17.296  16.117   9.308  0.3555 -0.1683  0.0148
  434loPI   C3B 6943  17.245  15.931   8.934 -0.0419  0.0905 -0.0024
  434loPI   C4B 6944  17.207  15.922   8.483  0.3337  0.0319  0.0306
  435loPI    C1 6945  10.918   5.210  10.441 -0.0376  0.0545 -0.0166
  435loPI    C2 6946  10.660   5.490  10.562 -0.0380  0.1032 -0.1282
  435loPI    C3 6947  11.000   5.431  10.764  0.0418  0.3012 -0.2023
  435loPI   PO4 6948  10.977   5.285  10.109 -0.1208 -0.2152 -0.0373
  435loPI   GL1 6949  10.796   5.301   9.769  0.1993 -0.3073  0.2036
  435loPI   GL2 6950  10.617   5.547   9.583 -0.0768  0.2221 -0.2823
  435loPI   C1A 6951  11.080   5.500   9.415  0.0084  0.0228  0.0051
  435loPI   C2A 6952  11.056   5.557   8.961  0.2813  0.4219  0.0592
  435loPI   C3A 6953  11.112   5.419   8.519  0.0451 -0.0654 -0.0317
  435loPI   C4A 6954  11.132   5.542   8.081  0.2654  0.0649 -0.1224
  435loPI   C5A 6955  11.239   5.365   7.634 -0.0160  0.1767 -0.0231
  435loPI   C6A 6956  11.237   5.269   7.219  0.2665  0.2045 -0.0457
  435loPI   C1B 6957  10.681   5.303   9.187  0.0903  0.1651  0.0831
  435loPI   C2B 6958  10.713   5.306   8.715  0.1185  0.0751 -0.0594
  435loPI   C3B 6959  10.700   5.253   8.292  0.0787 -0.2915  0.0602
  435loPI   C4B 6960  10.708   5.270   7.901  0.2958 -0.0814  0.0133
  436loPI    C1 6961  10.970  10.191  10.063  0.0369 -0.0079 -0.1498
  436loPI    C2 6962  10.987  10.098  10.452 -0.0805  0.1538 -0.1047
  436loPI    C3 6963  10.925  10.477  10.340 -0.1934  0.0847 -0.2803
  436loPI   PO4 6964  10.841  10.051   9.915 -0.2868 -0.0681  0.1669
  436loPI   GL1 6965  10.621  10.201   9.560  0.0668  0.3338  0.2501
  436loPI   GL2 6966  10.388   9.964   9.438  0.2922 -0.1991 -0.1431
  436loPI   C1A 6967  10.627  10.298   9.117 -0.1875 -0.0529 -0.1552
  436loPI   C2A 6968  10.672  10.242   8.750  0.0942  0.1406  0.0764
  436loPI   C3A 6969  10.667  10.418   8.354 -0.0988  0.0325 -0.0977
  436loPI   C4A 6970  10.352  10.474   7.938 -0.0949  0.2490 -0.1144
  436loPI   C5A 6971   9.973  10.415   7.962 -0.1119  0.0156  0.2015
  436loPI   C6A 6972   9.629  10.807   7.787  0.1027 -0.0214 -0.0727
  436loPI   C1B 6973  10.320   9.858   8.925 -0.2675 -0.2270  0.3914
  436loPI   C2B 6974  10.400   9.767   8.506 -0.0157  0.0952 -0.1288
  436loPI   C3B 6975  10.587   9.496   8.080 -0.0331  0.3825 -0.0078
  436loPI   C4B 6976  10.533   9.160   7.722  0.2119 -0.0782  0.1674
  437loPI    C1 6977   0.040  17.449  10.836  0.0618 -0.1068 -0.0871
  437loPI    C2 6978   0.338  17.407  11.100 -0.0761  0.0943  0.1032
  437loPI    C3 6979   0.006  17.187  11.136  0.0096 -0.0627 -0.0545
  437loPI   PO4 6980   0.085  17.462  10.663 -0.0359 -0.2449  0.0291
  437loPI   GL1 6981  -0.146  17.544  10.260 -0.0589 -0.2095 -0.2377
  437loPI   GL2 6982  -0.294  17.783  10.289 -0.2748 -0.0339  0.3451
  437loPI   C1A 6983   0.019  17.602   9.915  0.0956 -0.2258 -0.0388
  437loPI   C2A 6984  -0.039  17.571   9.458  0.0558  0.2107  0.1148
  437loPI   C3A 6985  -0.070  17.502   9.007  0.0734 -0.0197  0.0420
  437loPI   C4A 6986   0.072  17.411   8.670 -0.2315  0.3370 -0.0726
  437loPI   C5A 6987  -0.011  17.364   8.269  0.1033  0.0931  0.1426
  437loPI   C6A 6988  -0.132  17.270   7.823  0.0911 -0.0530  0.1807
  437loPI   C1B 6989  -0.571  17.715  10.003 -0.1553  0.0265  0.2385
  437loPI   C2B 6990  -0.569  17.678   9.603  0.1942 -0.3692 -0.3011
  437loPI   C3B 6991  -0.527  17.715   9.209  0.2126 -0.0263  0.2217
  437loPI   C4B 6992  -0.501  17.648   8.750  0.1210 -0.0953 -0.0166
  438loPI    C1 6993  12.177   9.827   9.994  0.2887  0.0412 -0.0749
  438loPI    C2 6994  12.073  10.171  10.171  0.2536  0.1287 -0.2634
  438loPI    C3 6995  12.254   9.884  10.383  0.0886  0.1772 -0.0537
  438loPI   PO4 6996  12.029   9.884   9.765 -0.0712 -0.0136 -0.2407
  438loPI   GL1 6997  12.202   9.845   9.347  0.0969  0.3359 -0.1923
  438loPI   GL2 6998  12.045  10.246   9.394 -0.0212  0.2200  0.0525
  438loPI   C1A 6999  11.997   9.694   8.832  0.0955 -0.0794  0.2724
  438loPI   C2A 7000  11.952   9.783   8.387  0.0293  0.2542  0.4355
  438loPI   C3A 7001  12.079   9.867   8.036  0.2336 -0.0762 -0.1381
  438loPI   C4A 7002  11.899  10.115   7.700 -0.0356  0.2514  0.3575
  438loPI   C5A 7003  11.517  10.288   7.516 -0.1001 -0.2468  0.1553
  438loPI   C6A 7004  11.208  10.584   7.458 -0.0347 -0.0946  0.0689
  438loPI   C1B 7005  11.973  10.129   9.000  0.0387 -0.2079 -0.1356
  438loPI   C2B 7006  11.857  10.207   8.575 -0.2450 -0.0153  0.1342
  438loPI   C3B 7007  11.996  10.456   8.184  0.0799  0.1571  0.0374
  438loPI   C4B 7008  12.030  10.587   7.766 -0.1406  0.0156 -0.0962
  439loPI    C1 7009  12.406   3.954  10.332  0.0323 -0.2465  0.1260
  439loPI    C2 7010  12.356   4.332  10.208  0.1007 -0.2638  0.0442
  439loPI    C3 7011  12.117   4.180  10.491  0.0435 -0.1740  0.0444
  439loPI   PO4 7012  12.419   3.853  10.114  0.0104 -0.4545  0.0221
  439loPI   GL1 7013  12.709   3.666   9.905 -0.3388  0.1497  0.3726
  439loPI   GL2 7014  12.801   3.768   9.671 -0.1570 -0.0704  0.1769
  439loPI   C1A 7015  12.488   3.456   9.571  0.2471  0.2449  0.0185
  439loPI   C2A 7016  12.405   3.475   9.165  0.1052  0.2098  0.0940
  439loPI   C3A 7017  12.378   3.341   8.708  0.0677 -0.1943 -0.2707
  439loPI   C4A 7018  12.338   3.472   8.307  0.0335 -0.0247  0.0930
  439loPI   C5A 7019  12.347   3.494   7.911  0.0267  0.0791  0.2180
  439loPI   C6A 7020  11.943   3.476   7.785 -0.0173  0.0910  0.0828
  439loPI   C1B 7021  12.884   3.665   9.302  0.1315 -0.1280 -0.1454
  439loPI   C2B 7022  12.892   3.576   8.898  0.1404  0.1326  0.2144
  439loPI   C3B 7023  12.936   3.433   8.504 -0.0930  0.1590 -0.1364
  439loPI   C4B 7024  13.230   3.624   8.117 -0.0238  0.2564 -0.2208
  440loPI    C1 7025  15.269  15.445  10.671 -0.0976 -0.1226 -0.1743
  440loPI    C2 7026  15.179  15.059  10.720 -0.0860 -0.1003  0.0328
  440loPI    C3 7027  14.924  15.341  10.844  0.0208 -0.0405  0.1178
  440loPI   PO4 7028  15.414  15.465  10.434  0.3309  0.2256  0.3177
  440loPI   GL1 7029  15.474  15.805  10.108 -0.0534  0.1637 -0.0274
  440loPI   GL2 7030  15.779  15.896  10.121 -0.2336 -0.1910 -0.2812
  440loPI   C1A 7031  15.358  15.983   9.659  0.0900  0.3270 -0.4626
  440loPI   C2A 7032  15.387  16.003   9.258 -0.2460 -0.2111 -0.0642
  440loPI   C3A 7033  15.402  15.967   8.872 -0.0489  0.0668  0.3721
  440loPI   C4A 7034  15.326  15.938   8.379  0.0442 -0.0574 -0.0721
  440loPI   C5A 7035  15.576  15.784   7.965 -0.1770 -0.0371  0.1427
  440loPI   C6A 7036  15.793  15.868   7.505  0.2330  0.1324 -0.1682
  440loPI   C1B 7037  15.818  16.121   9.638 -0.1059  0.0792 -0.0723
  440loPI   C2B 7038  15.814  16.224   9.191  0.0033  0.1756  0.3296
  440loPI   C3B 7039  15.854  16.209   8.751  0.3409  0.2402 -0.1343
  440loPI   C4B 7040  15.801  16.171   8.347  0.1617 -0.1535  0.2557
  441loPI    C1 7041  10.758  15.109  10.937  0.1452  0.2436  0.0525
  441loPI    C2 7042  10.483  15.016  11.213 -0.0352 -0.0355 -0.2151
  441loPI    C3 7043  10.846  14.848  11.228  0.0558  0.1751  0.0187
  441loPI   PO4 7044  10.681  15.079  10.727  0.1553 -0.2224  0.3154
  441loPI   GL1 7045  10.385  15.059  10.279 -0.2046  0.0309  0.1630
  441loPI   GL2 7046  10.762  14.880  10.304  0.1743  0.3800  0.4540
  441loPI   C1A 7047  10.361  15.189   9.928 -0.0491  0.0412  0.0289
  441loPI   C2A 7048  10.271  15.214   9.465 -0.0433 -0.0450 -0.1193
  441loPI   C3A 7049  10.408  15.175   9.058 -0.1773 -0.1323  0.1386
  441loPI   C4A 7050  10.394  15.285   8.665  0.0856 -0.0588  0.1194
  441loPI   C5A 7051  10.651  15.348   8.295 -0.2985 -0.0395 -0.0992
  441loPI   C6A 7052  10.543  15.634   8.016 -0.1230 -0.0518  0.0773
  441loPI   C1B 7053  10.866  14.988   9.952  0.1933  0.1714 -0.0755
  441loPI   C2B 7054  10.693  14.953   9.505 -0.1581  0.0303  0.2427
  441loPI   C3B 7055  10.780  14.863   9.070 -0.1763  0.3563 -0.1157
  441loPI   C4B 7056  10.858  15.029   8.666 -0.1655 -0.2683 -0.3227
  442loPI    C1 7057   4.677  13.839  10.735  0.1150  0.1070 -0.0102
  442loPI    C2 7058   4.718  13.665  11.093 -0.0711  0.0138 -0.0329
  442loPI    C3 7059   4.516  14.008  11.060 -0.0654  0.0154 -0.0507
  442loPI   PO4 7060   4.470  13.661  10.515 -0.0511 -0.3203 -0.0075
  442loPI   GL1 7061   4.394  13.712  10.160 -0.3084 -0.0099 -0.2239
  442loPI   GL2 7062   4.804  13.660  10.113 -0.1559 -0.0106  0.0244
  442loPI   C1A 7063   4.495  13.872   9.788  0.1397  0.2601  0.0394
  442loPI   C2A 7064   4.454  13.811   9.366 -0.0405  0.0913 -0.0171
  442loPI   C3A 7065   4.480  13.822   8.946  0.1377 -0.2730 -0.0172
  442loPI   C4A 7066   4.432  13.739   8.563  0.2111 -0.0298  0.3157
  442loPI   C5A 7067   4.284  13.792   8.080  0.0542 -0.0632 -0.3883
  442loPI   C6A 7068   4.357  13.724   7.733 -0.1497  0.0930 -0.1963
  442loPI   C1B 7069   4.974  13.579   9.771 -0.1742 -0.1274 -0.1265
  442loPI   C2B 7070   4.924  13.529   9.354  0.0895  0.1118 -0.2166
  442loPI   C3B 7071   4.832  13.488   8.922 -0.3181 -0.4511 -0.2351
  442loPI   C4B 7072   4.975  13.473   8.539 -0.0883 -0.1097  0.1151
  443loPI    C1 7073  10.467  11.836  10.104  0.0383  0.1429 -0.1815
  443loPI    C2 7074  10.384  12.017  10.451 -0.0056  0.1453 -0.1931
  443loPI    C3 7075  10.095  11.961  10.181  0.0405  0.1933 -0.2526
  443loPI   PO4 7076  10.624  11.971  10.021  0.0663  0.1458 -0.0036
  443loPI   GL1 7077  10.724  11.979   9.567 -0.0746 -0.2520  0.1601
  443loPI   GL2 7078  11.006  12.096   9.674 -0.3760 -0.0033  0.0553
  443loPI   C1A 7079  10.814  12.160   9.179  0.1460  0.1438 -0.2073
  443loPI   C2A 7080  10.912  12.294   8.819 -0.0023  0.0478  0.3801
  443loPI   C3A 7081  10.853  12.417   8.378  0.0813 -0.2419 -0.2755
  443loPI   C4A 7082  10.891  12.522   8.010  0.0318 -0.1542 -0.0067
  443loPI   C5A 7083  10.666  12.774   7.748 -0.3159  0.2337  0.0464
  443loPI   C6A 7084  10.314  12.923   7.553 -0.0157 -0.1067 -0.1144
  443loPI   C1B 7085  11.153  12.447   9.393  0.0347  0.0221  0.1583
  443loPI   C2B 7086  11.232  12.633   8.923 -0.0483 -0.2337  0.1017
  443loPI   C3B 7087  11.255  12.749   8.474 -0.3724 -0.0576  0.0992
  443loPI   C4B 7088  11.509  12.709   8.190  0.0738  0.0533 -0.4921
  444loPI    C1 7089  13.720  16.741  10.937  0.1223 -0.2410  0.0519
  444loPI    C2 7090  13.370  16.566  11.022  0.0699 -0.1673 -0.0106
  444loPI    C3 7091  13.482  16.895  11.220 -0.0246 -0.0301 -0.1823
  444loPI   PO4 7092  13.725  16.764  10.655 -0.0925 -0.2021 -0.0654
  444loPI   GL1 7093  13.997  16.789  10.205 -0.0277  0.3859  0.1981
  444loPI   GL2 7094  13.722  17.010  10.221 -0.0798 -0.2676  0.2415
  444loPI   C1A 7095  13.955  16.799   9.745 -0.0876  0.1887 -0.1150
  444loPI   C2A 7096  13.939  16.912   9.333  0.0201 -0.0482 -0.0165
  444loPI   C3A 7097  14.096  16.826   8.927  0.2307 -0.1605  0.0393
  444loPI   C4A 7098  14.071  16.728   8.505 -0.0852  0.2085 -0.2152
  444loPI   C5A 7099  14.216  16.877   8.104 -0.1228 -0.0269 -0.0311
  444loPI   C6A 7100  14.325  16.834   7.780  0.0520  0.1873  0.0584
  444loPI   C1B 7101  13.568  17.150   9.885  0.1372 -0.2720 -0.1436
  444loPI   C2B 7102  13.534  17.048   9.514  0.1727  0.0438 -0.2822
  444loPI   C3B 7103  13.556  17.124   9.113 -0.3426  0.1345  0.2206
  444loPI   C4B 7104  13.608  16.990   8.810 -0.0482  0.0108 -0.0309
  445loPI    C1 7105  17.884  13.124  10.816  0.0059 -0.1260 -0.0491
  445loPI    C2 7106  18.149  13.034  11.102 -0.1178 -0.0027  0.1065
  445loPI    C3 7107  17.885  13.328  11.161 -0.0389  0.1333 -0.1997
  445loPI   PO4 7108  18.062  13.163  10.585  0.0336 -0.0198  0.0441
  445loPI   GL1 7109  17.954  13.162  10.165  0.2266  0.1268  0.0918
  445loPI   GL2 7110  18.264  13.252  10.119 -0.0041 -0.2114  0.4214
  445loPI   C1A 7111  17.920  13.205   9.796  0.0029  0.0728  0.4854
  445loPI   C2A 7112  17.783  13.047   9.398 -0.0787 -0.2262 -0.0140
  445loPI   C3A 7113  17.636  13.056   8.933  0.1338  0.1381  0.0081
  445loPI   C4A 7114  17.583  13.063   8.583  0.0400 -0.1415 -0.2157
  445loPI   C5A 7115  17.469  13.094   8.164  0.1887  0.1857 -0.1380
  445loPI   C6A 7116  17.124  12.961   7.979  0.2582 -0.1352  0.0214
  445loPI   C1B 7117  18.459  13.134   9.736 -0.0048  0.1397  0.2145
  445loPI   C2B 7118  18.510  13.085   9.279 -0.0901  0.1932 -0.3025
  445loPI   C3B 7119  18.494  13.062   8.893  0.2437 -0.1073  0.1985
  445loPI   C4B 7120  18.496  13.145   8.385 -0.1440 -0.4452 -0.2664
  446loPI    C1 7121  14.324  12.896  10.753  0.1376 -0.0304 -0.0570
  446loPI    C2 7122  14.416  13.239  10.937 -0.2100 -0.0394  0.1413
  446loPI    C3 7123  14.615  12.904  11.027  0.1709  0.1165 -0.0957
  446loPI   PO4 7124  14.245  12.956  10.457  0.0929 -0.2209 -0.0259
  446loPI   GL1 7125  14.292  13.188  10.072 -0.1010  0.3055 -0.0055
  446loPI   GL2 7126  14.103  13.389  10.028  0.0524 -0.0792 -0.0905
  446loPI   C1A 7127  14.415  13.156   9.627 -0.0184 -0.0786  0.0848
  446loPI   C2A 7128  14.459  13.277   9.291  0.2390 -0.2426 -0.0094
  446loPI   C3A 7129  14.431  13.406   8.911 -0.3031 -0.2449 -0.1011
  446loPI   C4A 7130  14.553  13.320   8.499 -0.1146 -0.4248  0.0035
  446loPI   C5A 7131  14.374  13.279   8.032 -0.2640 -0.1616  0.1651
  446loPI   C6A 7132  14.198  13.441   7.663  0.2484 -0.2351  0.0752
  446loPI   C1B 7133  13.892  13.530   9.701  0.1953  0.1622 -0.1403
  446loPI   C2B 7134  13.964  13.596   9.258  0.0713 -0.0812 -0.0143
  446loPI   C3B 7135  14.029  13.649   8.748  0.0145  0.0514  0.1949
  446loPI   C4B 7136  14.098  13.603   8.300 -0.4599 -0.0842  0.1904
  447loPI    C1 7137   4.204   5.982  11.020  0.1054 -0.2830  0.1366
  447loPI    C2 7138   4.148   6.350  11.165 -0.0981 -0.2274 -0.0760
  447loPI    C3 7139   4.248   6.051  11.411  0.0444 -0.0365  0.1016
  447loPI   PO4 7140   4.319   6.029  10.778  0.0869  0.1041 -0.4486
  447loPI   GL1 7141   4.501   6.076  10.424  0.0497 -0.0062 -0.4142
  447loPI   GL2 7142   4.379   6.294  10.181 -0.1054 -0.2844 -0.3182
  447loPI   C1A 7143   4.720   5.938  10.052  0.0177 -0.0054 -0.3096
  447loPI   C2A 7144   4.764   6.071   9.676  0.1370  0.0225  0.0740
  447loPI   C3A 7145   4.800   5.987   9.227 -0.3278 -0.2304  0.2850
  447loPI   C4A 7146   4.833   6.092   8.732  0.0812 -0.1051 -0.2093
  447loPI   C5A 7147   4.622   6.381   8.213 -0.2237  0.0503 -0.2079
  447loPI   C6A 7148   4.379   6.512   7.873  0.3449 -0.1219  0.0108
  447loPI   C1B 7149   4.310   6.321   9.758 -0.2097 -0.1062 -0.0084
  447loPI   C2B 7150   4.259   6.199   9.292  0.0553  0.1762  0.2611
  447loPI   C3B 7151   4.332   6.264   8.873  0.0233 -0.1795  0.0104
  447loPI   C4B 7152   4.299   6.242   8.561 -0.1906  0.1901 -0.1074
  448loPI    C1 7153  16.655   7.843  10.740  0.0396 -0.1966 -0.1443
  448loPI    C2 7154  16.537   8.040  11.067  0.2773 -0.0983 -0.1160
  448loPI    C3 7155  16.679   7.668  11.099  0.2032 -0.1272 -0.1208
  448loPI   PO4 7156  16.476   7.845  10.547  0.1787 -0.0498  0.1008
  448loPI   GL1 7157  16.624   7.814  10.134 -0.2916 -0.0033  0.0433
  448loPI   GL2 7158  16.923   7.689  10.053  0.0810 -0.2550 -0.0074
  448loPI   C1A 7159  16.407   7.876   9.702  0.0075  0.2096  0.0941
  448loPI   C2A 7160  16.477   7.817   9.304  0.0236 -0.4116 -0.0871
  448loPI   C3A 7161  16.632   7.738   8.990 -0.0677  0.1489 -0.0418
  448loPI   C4A 7162  16.697   7.868   8.607 -0.1701  0.0866  0.1121
  448loPI   C5A 7163  16.717   7.854   8.166  0.1918 -0.0693  0.1645
  448loPI   C6A 7164  17.012   7.953   7.846 -0.0465  0.0835 -0.1157
  448loPI   C1B 7165  16.820   7.605   9.564 -0.1872 -0.1534  0.0211
  448loPI   C2B 7166  17.053   7.607   9.238  0.0720 -0.3190  0.3732
  448loPI   C3B 7167  17.055   7.532   8.818 -0.2250  0.0930  0.3477
  448loPI   C4B 7168  17.013   7.493   8.423  0.0225  0.1362  0.1830
  449loPI    C1 7169  13.020   4.693  10.627  0.2393 -0.3371 -0.0713
  449loPI    C2 7170  13.339   4.494  10.762  0.3126 -0.0337  0.2171
  449loPI    C3 7171  13.007   4.512  10.983  0.2730  0.0814  0.1490
  449loPI   PO4 7172  13.133   4.701  10.315 -0.3679 -0.2450  0.1521
  449loPI   GL1 7173  13.172   4.537   9.955 -0.5876  0.1511  0.0584
  449loPI   GL2 7174  13.571   4.615   9.895 -0.0053 -0.1056 -0.2343
  449loPI   C1A 7175  13.310   4.526   9.535 -0.4088 -0.5278 -0.0263
  449loPI   C2A 7176  13.358   4.384   9.170 -0.0486 -0.0004  0.2649
  449loPI   C3A 7177  13.455   4.360   8.695  0.1083 -0.2475 -0.0343
  449loPI   C4A 7178  13.385   4.262   8.339  0.1222  0.0219 -0.0942
  449loPI   C5A 7179  13.276   4.112   8.010  0.1418 -0.1229  0.1378
  449loPI   C6A 7180  13.442   3.820   7.682 -0.0809 -0.1101  0.2462
  449loPI   C1B 7181  13.784   4.728   9.621  0.0379 -0.0807 -0.3325
  449loPI   C2B 7182  13.816   4.686   9.283 -0.0248 -0.1441 -0.0356
  449loPI   C3B 7183  13.881   4.548   8.920  0.1357  0.0428  0.2869
  449loPI   C4B 7184  13.857   4.588   8.499  0.1345  0.0382  0.3170
  450loPI    C1 7185   3.144  12.439  10.936 -0.0652 -0.0906 -0.0658
  450loPI    C2 7186   2.949  12.093  10.985  0.1588 -0.2066  0.0168
  450loPI    C3 7187   2.996  12.342  11.294 -0.0803 -0.0588 -0.0634
  450loPI   PO4 7188   3.017  12.554  10.615 -0.0029  0.0643 -0.0406
  450loPI   GL1 7189   3.164  12.374  10.217  0.3477  0.0043  0.2101
  450loPI   GL2 7190   2.832  12.477  10.149  0.0489 -0.4060 -0.2832
  450loPI   C1A 7191   3.187  12.125   9.833 -0.0818 -0.0418 -0.0985
  450loPI   C2A 7192   3.074  12.048   9.456 -0.0343 -0.1301  0.2490
  450loPI   C3A 7193   3.038  11.978   9.135 -0.0643  0.0400  0.0554
  450loPI   C4A 7194   2.995  11.959   8.741 -0.0166 -0.1769  0.1901
  450loPI   C5A 7195   3.050  11.993   8.341 -0.0037  0.1394  0.3397
  450loPI   C6A 7196   2.968  11.894   7.926 -0.2043  0.0699 -0.1388
  450loPI   C1B 7197   3.116  12.658   9.769  0.2530  0.3304 -0.0966
  450loPI   C2B 7198   3.121  12.538   9.430  0.0495 -0.1432  0.0675
  450loPI   C3B 7199   3.067  12.501   8.969 -0.0329 -0.0076  0.0571
  450loPI   C4B 7200   3.029  12.454   8.581 -0.3853  0.0206  0.2801
  451loPI    C1 7201  15.324  17.862  10.893  0.2433 -0.0137  0.2027
  451loPI    C2 7202  15.349  17.537  10.660  0.0128 -0.0596  0.2385
  451loPI    C3 7203  15.273  17.498  11.051 -0.0756  0.0404  0.2317
  451loPI   PO4 7204  15.226  18.067  10.659 -0.2285  0.3840  0.0657
  451loPI   GL1 7205  15.242  18.300  10.304 -0.5144 -0.2501  0.1357
  451loPI   GL2 7206  14.988  18.138  10.186 -0.2506 -0.1498 -0.2759
  451loPI   C1A 7207  15.682  18.383  10.170 -0.4134  0.2310  0.1750
  451loPI   C2A 7208  15.703  18.275   9.753  0.0659  0.1629 -0.3553
  451loPI   C3A 7209  15.818  18.244   9.312  0.1638  0.0493 -0.1720
  451loPI   C4A 7210  15.854  18.237   8.874  0.0756 -0.0083  0.0209
  451loPI   C5A 7211  15.790  18.296   8.421 -0.0978 -0.0055  0.0779
  451loPI   C6A 7212  15.596  18.252   7.966  0.1899 -0.0051 -0.3201
  451loPI   C1B 7213  15.126  18.292   9.772  0.2414  0.1458 -0.1320
  451loPI   C2B 7214  15.025  18.317   9.317 -0.0945 -0.0813 -0.0961
  451loPI   C3B 7215  15.043  18.307   8.948  0.4036 -0.0485 -0.2466
  451loPI   C4B 7216  14.975  18.438   8.524 -0.5339  0.2790 -0.0996
  452loPI    C1 7217  16.975   0.236  11.092 -0.0880 -0.0475 -0.0817
  452loPI    C2 7218  16.785  -0.091  11.222  0.1383 -0.0681  0.2079
  452loPI    C3 7219  17.102   0.049  11.422  0.1559  0.2237 -0.0175
  452loPI   PO4 7220  16.724   0.323  10.948  0.0659  0.2731  0.0204
  452loPI   GL1 7221  16.772   0.398  10.547 -0.0377  0.3920 -0.1535
  452loPI   GL2 7222  16.840   0.629  10.415  0.1909 -0.1921  0.2389
  452loPI   C1A 7223  16.856   0.178  10.098  0.0432 -0.1411  0.0364
  452loPI   C2A 7224  16.924   0.141   9.658 -0.1732  0.0964 -0.2087
  452loPI   C3A 7225  16.885   0.048   9.231 -0.3159  0.1493  0.2101
  452loPI   C4A 7226  16.847  -0.007   8.840 -0.3135 -0.1123 -0.1174
  452loPI   C5A 7227  16.688  -0.017   8.479  0.0412 -0.2493  0.1068
  452loPI   C6A 7228  16.533   0.274   8.243  0.1194  0.1061 -0.2733
  452loPI   C1B 7229  16.918   0.644   9.950  0.1869 -0.2657 -0.1424
  452loPI   C2B 7230  16.912   0.609   9.466 -0.1142  0.0283  0.1131
  452loPI   C3B 7231  16.881   0.563   9.000 -0.2882 -0.1050  0.0541
  452loPI   C4B 7232  16.801   0.507   8.642 -0.4009  0.0237 -0.0854
  453loPI    C1 7233  15.287   3.315  10.960 -0.3713 -0.0797 -0.0688
  453loPI    C2 7234  15.414   3.538  11.268 -0.0356 -0.0105 -0.2532
  453loPI    C3 7235  15.272   3.169  11.332  0.1729 -0.0541 -0.0296
  453loPI   PO4 7236  15.488   3.481  10.803  0.1654  0.1314  0.2441
  453loPI   GL1 7237  15.464   3.765  10.496 -0.1788  0.0692 -0.3126
  453loPI   GL2 7238  15.771   3.731  10.461  0.1920 -0.2932  0.1144
  453loPI   C1A 7239  15.277   3.888  10.080 -0.0686  0.1818  0.2700
  453loPI   C2A 7240  15.045   3.780   9.769  0.0255 -0.2375 -0.1646
  453loPI   C3A 7241  15.125   3.706   9.332 -0.1263 -0.0222 -0.0737
  453loPI   C4A 7242  15.225   3.788   8.883 -0.2640 -0.1042  0.3567
  453loPI   C5A 7243  15.245   4.127   8.544 -0.0266  0.2789 -0.0379
  453loPI   C6A 7244  15.528   4.414   8.404 -0.0712 -0.0163 -0.1146
  453loPI   C1B 7245  15.675   3.604   9.991  0.1889 -0.0458 -0.0156
  453loPI   C2B 7246  15.525   3.684   9.628  0.1358  0.1712 -0.0196
  453loPI   C3B 7247  15.656   3.787   9.230  0.2370 -0.0518 -0.2899
  453loPI   C4B 7248  15.703   3.554   8.823 -0.1693  0.0644 -0.1326
  454loPI    C1 7249   5.043   8.090  10.696 -0.0768 -0.0194 -0.1210
  454loPI    C2 7250   5.223   7.988  11.039  0.0382 -0.0908 -0.2015
  454loPI    C3 7251   4.902   8.228  11.044  0.1401  0.0447 -0.0567
  454loPI   PO4 7252   4.961   7.783  10.544  0.1033  0.2403 -0.0269
  454loPI   GL1 7253   5.133   7.592  10.160 -0.1950  0.0352  0.0111
  454loPI   GL2 7254   4.854   7.560  10.086 -0.1163 -0.1906 -0.2494
  454loPI   C1A 7255   5.277   7.391   9.776  0.1144 -0.0810  0.1565
  454loPI   C2A 7256   5.182   7.373   9.281 -0.0134  0.0397  0.5022
  454loPI   C3A 7257   5.296   7.363   8.859 -0.1024 -0.1696 -0.0352
  454loPI   C4A 7258   5.276   7.347   8.378  0.0043 -0.3033 -0.1831
  454loPI   C5A 7259   5.081   7.178   8.000 -0.3005  0.1174 -0.0537
  454loPI   C6A 7260   5.012   7.130   7.508  0.2412 -0.1886 -0.0468
  454loPI   C1B 7261   4.816   7.675   9.584  0.2067  0.0690 -0.1970
  454loPI   C2B 7262   4.884   7.709   9.157  0.0166 -0.3937  0.2037
  454loPI   C3B 7263   4.856   7.650   8.703 -0.0309 -0.1119  0.3169
  454loPI   C4B 7264   4.752   7.474   8.282  0.1535 -0.0011  0.2293
  455loPI    C1 7265  17.609  10.741  10.546  0.1822 -0.1372 -0.0840
  455loPI    C2 7266  17.218  10.810  10.598  0.2401  0.2444 -0.1249
  455loPI    C3 7267  17.443  10.693  10.907  0.1392  0.2548 -0.0470
  455loPI   PO4 7268  17.663  11.037  10.504 -0.0016  0.1709 -0.0597
  455loPI   GL1 7269  17.841  11.184  10.164  0.0354 -0.0779 -0.0349
  455loPI   GL2 7270  17.619  11.465   9.899  0.1435 -0.1789  0.0877
  455loPI   C1A 7271  17.723  11.003   9.741 -0.2274  0.3957  0.2311
  455loPI   C2A 7272  17.656  10.990   9.250  0.0407 -0.1551  0.0546
  455loPI   C3A 7273  17.505  10.994   8.837 -0.0781  0.2161  0.0074
  455loPI   C4A 7274  17.362  11.029   8.479  0.1043  0.0464 -0.1672
  455loPI   C5A 7275  17.087  11.133   8.298  0.0126 -0.0490  0.1283
  455loPI   C6A 7276  16.650  11.030   8.349  0.0159 -0.1564  0.1064
  455loPI   C1B 7277  17.648  11.542   9.460 -0.1191 -0.0893 -0.3644
  455loPI   C2B 7278  17.655  11.437   9.024  0.1055  0.2248  0.2698
  455loPI   C3B 7279  17.489  11.516   8.607 -0.0475 -0.2345  0.1126
  455loPI   C4B 7280  17.232  11.595   8.249  0.0625 -0.1344 -0.1653
  456loPI    C1 7281   6.459   0.958  10.243 -0.0356 -0.0240 -0.1993
  456loPI    C2 7282   6.315   1.266  10.452 -0.0148 -0.0354 -0.1683
  456loPI    C3 7283   6.503   0.967  10.640  0.0763 -0.0058 -0.2118
  456loPI   PO4 7284   6.431   0.999  10.000  0.2173  0.0593  0.1279
  456loPI   GL1 7285   6.526   0.924   9.511  0.0399  0.3043  0.1482
  456loPI   GL2 7286   6.744   1.202   9.662  0.3293 -0.0624  0.0628
  456loPI   C1A 7287   6.254   0.632   9.172 -0.0924 -0.1216  0.1298
  456loPI   C2A 7288   6.257   0.611   8.814 -0.0208  0.0724  0.0735
  456loPI   C3A 7289   6.330   0.520   8.355  0.0505  0.0928  0.2079
  456loPI   C4A 7290   6.331   0.310   7.978 -0.0210 -0.0233 -0.1088
  456loPI   C5A 7291   6.248  -0.139   7.913 -0.0867 -0.1204 -0.0025
  456loPI   C6A 7292   6.388  -0.573   7.861  0.2604  0.0232  0.1315
  456loPI   C1B 7293   6.650   1.378   9.166  0.0589  0.1325 -0.2775
  456loPI   C2B 7294   6.647   1.379   8.753 -0.2372  0.0240 -0.2575
  456loPI   C3B 7295   6.553   1.453   8.385  0.3126 -0.0071  0.1004
  456loPI   C4B 7296   6.464   1.502   7.997  0.0635  0.0041 -0.0148
  457loPI    C1 7297   7.450  13.764  10.581  0.0965  0.0550  0.1950
  457loPI    C2 7298   7.504  13.754  10.978 -0.1599 -0.0499  0.2287
  457loPI    C3 7299   7.617  13.443  10.753 -0.1832 -0.0678  0.2418
  457loPI   PO4 7300   7.539  14.082  10.517  0.1936  0.2222 -0.0718
  457loPI   GL1 7301   7.696  14.277  10.096  0.1358  0.2235  0.2102
  457loPI   GL2 7302   7.934  14.005  10.201 -0.1950 -0.0567 -0.1004
  457loPI   C1A 7303   7.716  14.081   9.711 -0.3740 -0.2584  0.2290
  457loPI   C2A 7304   7.695  14.128   9.272 -0.1430  0.2256 -0.1063
  457loPI   C3A 7305   7.597  14.115   8.828  0.0968 -0.0363 -0.1577
  457loPI   C4A 7306   7.608  14.095   8.340  0.2145 -0.0302  0.2323
  457loPI   C5A 7307   7.517  13.982   7.876  0.0825  0.0453 -0.0712
  457loPI   C6A 7308   7.453  13.663   7.608 -0.2145 -0.1722 -0.1240
  457loPI   C1B 7309   7.800  13.626   9.904 -0.0456  0.0133 -0.0581
  457loPI   C2B 7310   7.605  13.481   9.512  0.0785 -0.2769 -0.1899
  457loPI   C3B 7311   7.624  13.548   9.051 -0.0470 -0.0947 -0.0102
  457loPI   C4B 7312   7.590  13.573   8.606 -0.2481  0.0447 -0.2511
  458loPI    C1 7313  17.738  16.670  10.591  0.1202  0.0274 -0.1092
  458loPI    C2 7314  17.548  17.002  10.709  0.1563  0.1048 -0.2660
  458loPI    C3 7315  17.899  16.902  10.874 -0.0329 -0.0561  0.0484
  458loPI   PO4 7316  17.700  16.724  10.364  0.1190 -0.3933 -0.0216
  458loPI   GL1 7317  17.550  16.669   9.972  0.4312  0.1854  0.0575
  458loPI   GL2 7318  17.275  16.435   9.969  0.1591  0.0712  0.0621
  458loPI   C1A 7319  17.756  16.762   9.604 -0.1080  0.1968 -0.3940
  458loPI   C2A 7320  17.737  16.800   9.214 -0.2198  0.1774  0.3753
  458loPI   C3A 7321  17.715  16.689   8.785  0.1131 -0.0915  0.1598
  458loPI   C4A 7322  17.747  16.740   8.371 -0.0959  0.0946  0.1962
  458loPI   C5A 7323  18.011  16.890   8.056  0.0096  0.0089 -0.0631
  458loPI   C6A 7324  18.238  16.840   7.708 -0.2085  0.0399  0.1997
  458loPI   C1B 7325  17.234  16.580   9.602 -0.1378  0.2112  0.1529
  458loPI   C2B 7326  17.323  16.560   9.151 -0.0973  0.1171 -0.1750
  458loPI   C3B 7327  17.262  16.398   8.781  0.1391  0.0031 -0.1305
  458loPI   C4B 7328  17.211  16.437   8.361  0.2534  0.1476 -0.2814
  459loPI    C1 7329  15.640   8.767  10.351  0.1853 -0.0370  0.2242
  459loPI    C2 7330  15.408   8.785  10.676 -0.2831  0.0973 -0.1050
  459loPI    C3 7331  15.597   9.113  10.547 -0.1919  0.0718 -0.0375
  459loPI   PO4 7332  15.478   8.567  10.212 -0.4203  0.1737 -0.0763
  459loPI   GL1 7333  15.125   8.595   9.829  0.1143 -0.2765 -0.1866
  459loPI   GL2 7334  15.262   8.867   9.821 -0.2027  0.0943 -0.0830
  459loPI   C1A 7335  15.381   8.510   9.451  0.3220 -0.1654 -0.2054
  459loPI   C2A 7336  15.389   8.316   8.963 -0.1541  0.0153  0.0893
  459loPI   C3A 7337  15.327   8.065   8.574  0.1633  0.0858 -0.1025
  459loPI   C4A 7338  15.332   7.977   8.196  0.4140 -0.1036 -0.1484
  459loPI   C5A 7339  15.205   7.660   7.896  0.1172 -0.0951  0.0424
  459loPI   C6A 7340  14.960   7.472   8.072 -0.1511  0.1684 -0.0264
  459loPI   C1B 7341  15.219   8.978   9.366 -0.2880 -0.0815 -0.1788
  459loPI   C2B 7342  15.220   8.798   8.962  0.0920  0.1042  0.1002
  459loPI   C3B 7343  15.059   8.625   8.593 -0.4273  0.0447  0.0024
  459loPI   C4B 7344  14.873   8.424   8.310  0.2662 -0.1902  0.2971
  460loPI    C1 7345  16.728   5.072  11.029 -0.2691  0.0789  0.1579
  460loPI    C2 7346  16.654   5.239  11.385  0.0098 -0.2127  0.3577
  460loPI    C3 7347  16.907   4.930  11.357  0.0544 -0.1412 -0.1075
  460loPI   PO4 7348  16.531   4.895  10.806  0.0362  0.2358 -0.0185
  460loPI   GL1 7349  16.480   4.839  10.491 -0.3494 -0.0547  0.0649
  460loPI   GL2 7350  16.746   4.771  10.300  0.1750  0.3549  0.0318
  460loPI   C1A 7351  16.258   4.855  10.113  0.0548  0.0284  0.3943
  460loPI   C2A 7352  16.050   4.912   9.744  0.1806 -0.1599 -0.0625
  460loPI   C3A 7353  16.153   4.990   9.337  0.2176 -0.0409 -0.0548
  460loPI   C4A 7354  16.174   4.923   8.966 -0.0217  0.0543  0.5563
  460loPI   C5A 7355  16.326   4.938   8.628  0.2548  0.1152 -0.0744
  460loPI   C6A 7356  16.488   4.811   8.208  0.2176  0.2670 -0.0105
  460loPI   C1B 7357  16.655   4.628   9.922  0.2106  0.0043  0.2581
  460loPI   C2B 7358  16.606   4.673   9.454  0.2856  0.0574 -0.0488
  460loPI   C3B 7359  16.615   4.657   9.125 -0.0722 -0.1764 -0.2640
  460loPI   C4B 7360  16.690   4.622   8.736 -0.0534  0.2418  0.0724
  461loPI    C1 7361   1.133   0.240  10.783 -0.1263  0.0403  0.0678
  461loPI    C2 7362   1.132  -0.132  10.929 -0.0884  0.0624  0.1243
  461loPI    C3 7363   1.170   0.180  11.176 -0.1298  0.1042  0.0781
  461loPI   PO4 7364   0.836   0.242  10.685  0.1702  0.0051  0.0138
  461loPI   GL1 7365   0.682   0.262  10.382 -0.0091 -0.3499 -0.0533
  461loPI   GL2 7366   0.327   0.439  10.325 -0.1070  0.4246 -0.0398
  461loPI   C1A 7367   0.802   0.615  10.026  0.2621  0.1653 -0.0721
  461loPI   C2A 7368   0.653   0.602   9.612  0.3266 -0.2299 -0.1527
  461loPI   C3A 7369   0.475   0.570   9.205 -0.1523 -0.0192  0.0335
  461loPI   C4A 7370   0.493   0.481   8.803  0.1414  0.2142  0.2569
  461loPI   C5A 7371   0.324   0.558   8.375  0.0484 -0.0311 -0.1737
  461loPI   C6A 7372   0.627   0.622   8.052  0.0816  0.1304 -0.0024
  461loPI   C1B 7373   0.503   0.209   9.912  0.1657 -0.3054  0.4472
  461loPI   C2B 7374   0.524   0.132   9.468  0.0717  0.4501  0.0028
  461loPI   C3B 7375   0.431   0.030   8.989  0.1044  0.5313  0.0880
  461loPI   C4B 7376   0.376   0.021   8.553 -0.0409  0.0108 -0.1391
  462loPI    C1 7377   3.731   4.344  11.012 -0.2450 -0.0796 -0.1840
  462loPI    C2 7378   3.843   4.640  11.257 -0.2411 -0.0521 -0.2190
  462loPI    C3 7379   3.563   4.380  11.373 -0.0037 -0.2377 -0.0530
  462loPI   PO4 7380   3.726   4.402  10.775  0.2507  0.0536  0.0090
  462loPI   GL1 7381   3.908   4.479  10.399 -0.1677 -0.0609  0.2020
  462loPI   GL2 7382   3.521   4.774  10.376 -0.4539 -0.0684  0.1849
  462loPI   C1A 7383   3.806   4.311   9.970  0.1839 -0.1649  0.3071
  462loPI   C2A 7384   3.814   4.377   9.481  0.1928  0.0730 -0.0917
  462loPI   C3A 7385   3.935   4.435   9.066  0.0591  0.1025 -0.2472
  462loPI   C4A 7386   3.972   4.599   8.708  0.1978  0.0304  0.0261
  462loPI   C5A 7387   4.016   4.499   8.270 -0.1720 -0.0743  0.2015
  462loPI   C6A 7388   4.167   4.178   7.960  0.2726  0.1126 -0.5399
  462loPI   C1B 7389   3.364   4.736   9.869  0.0522 -0.0155 -0.3705
  462loPI   C2B 7390   3.333   4.697   9.456 -0.3083 -0.0028  0.3161
  462loPI   C3B 7391   3.467   4.773   9.027 -0.2553  0.1411  0.0175
  462loPI   C4B 7392   3.536   4.875   8.594 -0.2901  0.1937 -0.3158
  463loPI    C1 7393   2.425  17.526  10.544 -0.1813 -0.1219  0.2022
  463loPI    C2 7394   2.687  17.429  10.831  0.1153  0.0330 -0.0100
  463loPI    C3 7395   2.329  17.250  10.817  0.2684 -0.2980  0.1917
  463loPI   PO4 7396   2.557  17.543  10.332  0.2732  0.1791 -0.4816
  463loPI   GL1 7397   2.417  17.580   9.904 -0.0879 -0.0582  0.1205
  463loPI   GL2 7398   2.562  17.786   9.804  0.2075 -0.0859  0.1649
  463loPI   C1A 7399   2.259  17.418   9.475 -0.0451 -0.1062 -0.2810
  463loPI   C2A 7400   2.130  17.389   9.094  0.0701  0.1154  0.2971
  463loPI   C3A 7401   1.831  17.326   8.739 -0.0923  0.0618 -0.1100
  463loPI   C4A 7402   1.744  17.508   8.360 -0.2079 -0.0548 -0.0350
  463loPI   C5A 7403   1.761  17.573   7.941 -0.0594  0.0118 -0.0014
  463loPI   C6A 7404   1.770  17.404   7.463  0.2057  0.3144 -0.0879
  463loPI   C1B 7405   2.367  17.885   9.434 -0.0324 -0.2216 -0.1099
  463loPI   C2B 7406   2.327  17.894   9.042  0.2310 -0.3202 -0.1256
  463loPI   C3B 7407   2.290  17.803   8.709 -0.1719  0.2695 -0.0802
  463loPI   C4B 7408   2.280  17.696   8.185 -0.4083 -0.0488 -0.0293
  464loPI    C1 7409  17.205  15.039  10.671 -0.0319  0.1418  0.0685
  464loPI    C2 7410  17.094  14.698  10.847  0.1844  0.3031  0.5335
  464loPI    C3 7411  17.481  14.767  10.770  0.0937  0.2301 -0.0349
  464loPI   PO4 7412  16.925  15.055  10.456 -0.2512  0.4949 -0.0884
  464loPI   GL1 7413  16.925  15.011  10.081 -0.2380 -0.2873  0.3462
  464loPI   GL2 7414  16.784  15.157   9.917 -0.0426 -0.0947  0.0672
  464loPI   C1A 7415  17.277  14.891   9.811 -0.1648  0.0244 -0.1394
  464loPI   C2A 7416  17.286  14.942   9.369  0.1944 -0.0128  0.1436
  464loPI   C3A 7417  17.269  14.960   8.927  0.0023 -0.0770  0.0304
  464loPI   C4A 7418  17.267  14.884   8.494 -0.0830  0.2823 -0.1647
  464loPI   C5A 7419  17.344  14.741   8.112 -0.2619  0.1035  0.0617
  464loPI   C6A 7420  17.511  14.394   7.900 -0.1685 -0.1766 -0.0062
  464loPI   C1B 7421  16.827  14.924   9.492  0.2277  0.1669  0.1217
  464loPI   C2B 7422  16.789  14.987   9.054 -0.0473 -0.1248 -0.1142
  464loPI   C3B 7423  16.805  15.176   8.647  0.0310  0.2933 -0.0158
  464loPI   C4B 7424  16.724  15.090   8.265  0.0541  0.0337 -0.0189
  465loPI    C1 7425  16.162   5.191  11.319  0.2870 -0.1208  0.2275
  465loPI    C2 7426  16.199   5.588  11.356 -0.2742 -0.0599  0.2247
  465loPI    C3 7427  16.254   5.351  11.674 -0.1670  0.0379  0.2799
  465loPI   PO4 7428  16.092   5.171  11.010  0.3676  0.0525 -0.1052
  465loPI   GL1 7429  16.039   5.143  10.587 -0.1210  0.0401  0.3139
  465loPI   GL2 7430  16.192   5.293  10.527 -0.1039  0.0685  0.5719
  465loPI   C1A 7431  15.800   5.017  10.284  0.0974 -0.0043  0.0138
  465loPI   C2A 7432  15.627   5.153   9.852 -0.2241 -0.0211  0.0238
  465loPI   C3A 7433  15.669   5.229   9.447 -0.0430  0.2287  0.3993
  465loPI   C4A 7434  15.768   5.194   9.030  0.3686  0.0770  0.1420
  465loPI   C5A 7435  15.862   5.129   8.558 -0.2269 -0.0918 -0.1797
  465loPI   C6A 7436  16.177   5.251   8.241  0.2341  0.3607 -0.0889
  465loPI   C1B 7437  16.007   5.519  10.195  0.1440  0.4600 -0.0303
  465loPI   C2B 7438  16.014   5.501   9.764 -0.1669  0.1522  0.0304
  465loPI   C3B 7439  16.112   5.543   9.362  0.0780  0.0444 -0.1419
  465loPI   C4B 7440  16.202   5.447   8.847  0.0925 -0.4780 -0.0625
  466loPI    C1 7441   9.751  11.486  10.470  0.0651 -0.2185 -0.1059
  466loPI    C2 7442  10.129  11.554  10.582 -0.0748  0.1253  0.1772
  466loPI    C3 7443   9.954  11.204  10.667  0.2134 -0.0818 -0.0608
  466loPI   PO4 7444   9.725  11.601  10.211 -0.0320  0.0501  0.2575
  466loPI   GL1 7445   9.426  11.704   9.880 -0.0977  0.0571 -0.1632
  466loPI   GL2 7446   9.109  11.591   9.925  0.2025 -0.1405  0.0158
  466loPI   C1A 7447   9.320  11.886   9.532 -0.2308  0.1034 -0.0808
  466loPI   C2A 7448   9.470  11.991   8.996 -0.2574  0.3869  0.0445
  466loPI   C3A 7449   9.536  12.029   8.590  0.1073  0.2062 -0.3193
  466loPI   C4A 7450   9.572  12.068   8.227 -0.2242  0.1958 -0.0803
  466loPI   C5A 7451   9.823  12.126   7.799 -0.3904  0.3497 -0.3196
  466loPI   C6A 7452  10.033  12.019   7.363 -0.0038  0.3605 -0.0146
  466loPI   C1B 7453   9.294  11.338   9.572 -0.0160  0.0285 -0.1630
  466loPI   C2B 7454   9.331  11.473   9.170  0.0869  0.0830 -0.3224
  466loPI   C3B 7455   9.367  11.535   8.808  0.2340  0.0418 -0.1739
  466loPI   C4B 7456   9.566  11.496   8.409 -0.1059  0.0196  0.2165
  467loPI    C1 7457  11.966  16.038  10.934 -0.1338 -0.0439  0.1150
  467loPI    C2 7458  11.721  15.819  10.706 -0.0833 -0.0466  0.0627
  467loPI    C3 7459  11.896  15.656  11.027  0.0880 -0.1329 -0.0733
  467loPI   PO4 7460  12.105  16.127  10.652  0.1162 -0.1844  0.0650
  467loPI   GL1 7461  12.372  16.099  10.324  0.1071 -0.0517  0.0517
  467loPI   GL2 7462  12.501  15.776  10.274 -0.1518  0.1874 -0.0635
  467loPI   C1A 7463  12.165  16.238  10.019 -0.2267  0.2708  0.1820
  467loPI   C2A 7464  12.174  16.225   9.676  0.0585 -0.0338 -0.0872
  467loPI   C3A 7465  12.197  16.183   9.233  0.0555  0.1583 -0.4261
  467loPI   C4A 7466  12.222  16.357   8.839  0.3462 -0.0773 -0.1101
  467loPI   C5A 7467  12.399  16.369   8.417  0.1049 -0.1680 -0.0870
  467loPI   C6A 7468  12.453  16.673   8.066 -0.1705  0.1111 -0.0596
  467loPI   C1B 7469  12.565  16.007   9.876  0.4067 -0.1717  0.0817
  467loPI   C2B 7470  12.668  16.025   9.458  0.0370 -0.0154  0.0647
  467loPI   C3B 7471  12.631  16.055   9.021  0.1119 -0.0454  0.1003
  467loPI   C4B 7472  12.771  16.035   8.566  0.2229  0.3635 -0.0965
  468loPI    C1 7473   4.696  10.124  10.961 -0.1550  0.1591  0.0954
  468loPI    C2 7474   4.594   9.763  11.101  0.1913 -0.0234 -0.1086
  468loPI    C3 7475   4.384  10.086  11.209 -0.0558 -0.2687  0.1635
  468loPI   PO4 7476   4.750  10.114  10.745  0.4462 -0.1756  0.0007
  468loPI   GL1 7477   4.851  10.131  10.298 -0.0942 -0.0730  0.2044
  468loPI   GL2 7478   4.889  10.533  10.301  0.3739 -0.0761 -0.1755
  468loPI   C1A 7479   4.804   9.761  10.037 -0.0999 -0.2182  0.1063
  468loPI   C2A 7480   4.768   9.769   9.642 -0.0488 -0.0855 -0.1221
  468loPI   C3A 7481   4.902   9.857   9.332 -0.2051  0.1610 -0.1597
  468loPI   C4A 7482   4.857   9.847   8.942 -0.2772 -0.0948 -0.1354
  468loPI   C5A 7483   4.916   9.757   8.483 -0.1067  0.3457 -0.1948
  468loPI   C6A 7484   5.083   9.835   8.029 -0.2330 -0.2165  0.1046
  468loPI   C1B 7485   4.794  10.311   9.885 -0.0352 -0.2300 -0.0038
  468loPI   C2B 7486   4.824  10.323   9.423 -0.2159  0.2199  0.0816
  468loPI   C3B 7487   4.895  10.402   9.038  0.4210  0.0805  0.0708
  468loPI   C4B 7488   4.923  10.320   8.668 -0.1321  0.0533  0.0042
  469loPI    C1 7489  17.816   1.156  11.046 -0.2267 -0.0806 -0.0480
  469loPI    C2 7490  17.530   1.300  11.285 -0.2205 -0.0628 -0.0513
  469loPI    C3 7491  17.689   1.533  11.002 -0.1575 -0.0526 -0.0076
  469loPI   PO4 7492  17.713   0.933  10.949 -0.0707  0.2104 -0.0738
  469loPI   GL1 7493  17.935   0.925  10.578 -0.2477 -0.2641 -0.2307
  469loPI   GL2 7494  18.242   0.962  10.475  0.1978 -0.2554  0.0262
  469loPI   C1A 7495  17.876   1.137  10.183 -0.1510  0.2007  0.2483
  469loPI   C2A 7496  17.760   1.156   9.821 -0.1970 -0.3261  0.0040
  469loPI   C3A 7497  17.817   1.137   9.412  0.0201  0.1883 -0.1175
  469loPI   C4A 7498  17.773   1.022   8.961 -0.1326  0.2377  0.1781
  469loPI   C5A 7499  17.679   1.042   8.526 -0.1701 -0.0667  0.1091
  469loPI   C6A 7500  17.257   1.172   8.429 -0.2293 -0.1380 -0.2076
  469loPI   C1B 7501  18.294   0.863   9.984 -0.3114  0.1801  0.2816
  469loPI   C2B 7502  18.375   0.878   9.408 -0.1563  0.0294 -0.1914
  469loPI   C3B 7503  18.180   0.759   8.982  0.1651  0.0841  0.1912
  469loPI   C4B 7504  18.089   0.754   8.520 -0.2386 -0.1217 -0.3976
  470loPI    C1 7505   8.250  12.165  10.375 -0.2221 -0.1327  0.0542
  470loPI    C2 7506   8.104  12.234  10.741 -0.1887  0.1080  0.0232
  470loPI    C3 7507   8.408  11.979  10.692 -0.2568  0.0014  0.1511
  470loPI   PO4 7508   8.386  12.339  10.302 -0.0671 -0.2738  0.0208
  470loPI   GL1 7509   8.494  12.388   9.885 -0.2082 -0.1827 -0.0657
  470loPI   GL2 7510   8.589  12.683   9.839  0.1031 -0.2020  0.0202
  470loPI   C1A 7511   8.491  12.394   9.412 -0.1887  0.0929 -0.0220
  470loPI   C2A 7512   8.549  12.455   9.029  0.0295  0.0337  0.0440
  470loPI   C3A 7513   8.631  12.491   8.725  0.3810  0.1616  0.2603
  470loPI   C4A 7514   8.446  12.463   8.270  0.1839 -0.1733 -0.1683
  470loPI   C5A 7515   8.212  12.523   7.915  0.0722 -0.0278 -0.1103
  470loPI   C6A 7516   8.062  12.244   7.580 -0.1663  0.0808  0.2279
  470loPI   C1B 7517   8.550  12.928   9.499  0.0272  0.1559  0.1498
  470loPI   C2B 7518   8.486  13.007   9.002  0.0938  0.1298 -0.4257
  470loPI   C3B 7519   8.566  13.179   8.526 -0.3676  0.3288 -0.0337
  470loPI   C4B 7520   8.641  13.340   8.151 -0.0317 -0.1987 -0.1275
  471loPI    C1 7521   5.352   5.238  10.740 -0.3614  0.1391  0.1797
  471loPI    C2 7522   5.300   5.332  11.125  0.0897 -0.0397  0.2905
  471loPI    C3 7523   5.637   5.437  10.938  0.0415 -0.2957  0.0540
  471loPI   PO4 7524   4.977   5.220  10.609  0.1388  0.0788 -0.2136
  471loPI   GL1 7525   4.595   5.494  10.422 -0.2508 -0.1743 -0.1332
  471loPI   GL2 7526   4.319   5.339  10.307 -0.1458 -0.0155  0.1459
  471loPI   C1A 7527   4.735   5.423   9.944 -0.2482 -0.1978  0.1155
  471loPI   C2A 7528   4.719   5.457   9.536 -0.3282 -0.1274  0.2921
  471loPI   C3A 7529   4.906   5.497   9.069  0.1025  0.0209  0.2862
  471loPI   C4A 7530   4.959   5.653   8.725  0.1264 -0.0273  0.2383
  471loPI   C5A 7531   4.853   5.405   8.396 -0.0943  0.0246 -0.1676
  471loPI   C6A 7532   4.354   5.372   8.254  0.0101  0.1669  0.0504
  471loPI   C1B 7533   4.295   5.283   9.885 -0.3817  0.5309  0.1473
  471loPI   C2B 7534   4.282   5.188   9.441 -0.0690  0.1472 -0.0931
  471loPI   C3B 7535   4.373   5.219   9.039 -0.2939 -0.1677 -0.0114
  471loPI   C4B 7536   4.510   5.248   8.702  0.3524 -0.2315 -0.1593
  472loPI    C1 7537  11.510   4.423  10.218  0.0246 -0.0123  0.0822
  472loPI    C2 7538  11.541   4.058  10.378 -0.3592 -0.1209 -0.0826
  472loPI    C3 7539  11.221   4.285  10.458 -0.1632  0.1476 -0.0489
  472loPI   PO4 7540  11.758   4.503  10.198  0.0401 -0.1609  0.2833
  472loPI   GL1 7541  12.010   4.460   9.758  0.1031  0.0037 -0.2770
  472loPI   GL2 7542  12.023   4.776   9.881  0.1050 -0.1683 -0.0596
  472loPI   C1A 7543  11.946   4.303   9.308  0.0978 -0.2401 -0.0791
  472loPI   C2A 7544  12.017   4.282   8.877 -0.0315  0.2835  0.0890
  472loPI   C3A 7545  11.935   4.324   8.458 -0.2035 -0.1867 -0.1542
  472loPI   C4A 7546  11.945   4.401   8.064 -0.2081 -0.0337 -0.0665
  472loPI   C5A 7547  11.798   4.617   7.718 -0.0018  0.2252  0.0961
  472loPI   C6A 7548  11.712   4.507   7.380 -0.0681 -0.1912 -0.0188
  472loPI   C1B 7549  11.994   4.834   9.473 -0.1592 -0.3765 -0.0037
  472loPI   C2B 7550  12.110   4.763   9.032  0.3759 -0.2387 -0.2310
  472loPI   C3B 7551  12.290   4.718   8.607  0.3726 -0.1949  0.0435
  472loPI   C4B 7552  12.469   4.627   8.076 -0.0503  0.0617 -0.0579
  473loPI    C1 7553  15.288   6.069  10.743  0.2998  0.0852  0.0699
  473loPI    C2 7554  15.641   5.883  10.772  0.2044 -0.1142 -0.0278
  473loPI    C3 7555  15.333   5.764  10.998  0.1742  0.0001 -0.0084
  473loPI   PO4 7556  15.261   6.156  10.534  0.0252  0.0675 -0.0832
  473loPI   GL1 7557  15.145   6.213  10.133  0.2617 -0.0076  0.3062
  473loPI   GL2 7558  15.380   6.329   9.978 -0.1481 -0.0813 -0.2539
  473loPI   C1A 7559  15.105   5.948   9.732 -0.2418 -0.2339 -0.0440
  473loPI   C2A 7560  15.069   5.914   9.302 -0.2239 -0.0962  0.0290
  473loPI   C3A 7561  15.194   5.921   8.898  0.1585  0.1854  0.0395
  473loPI   C4A 7562  15.168   6.025   8.417 -0.0964 -0.0548 -0.0372
  473loPI   C5A 7563  14.982   6.045   8.055  0.1233  0.1250 -0.0312
  473loPI   C6A 7564  14.685   5.725   7.911 -0.0427 -0.0256 -0.1285
  473loPI   C1B 7565  15.388   6.358   9.539  0.0239 -0.1600  0.0254
  473loPI   C2B 7566  15.683   6.287   9.176  0.1529  0.3433  0.1283
  473loPI   C3B 7567  15.702   6.138   8.794 -0.3065  0.1716 -0.1445
  473loPI   C4B 7568  15.748   6.184   8.374  0.0533  0.0801  0.0102
  474POPI    C1 7569  11.666  12.071  10.254 -0.0089 -0.0668 -0.0367
  474POPI    C2 7570  11.443  12.403  10.251  0.2288  0.0941 -0.1074
  474POPI    C3 7571  11.438  12.162  10.570  0.1386  0.2230 -0.0105
  474POPI   PO4 7572  11.864  12.142  10.262  0.0884 -0.0529 -0.0414
  474POPI   GL1 7573  11.910  12.411   9.939 -0.0163 -0.0620 -0.1380
  474POPI   GL2 7574  12.168  12.701   9.913  0.0655  0.0765  0.1413
  474POPI   C1A 7575  11.616  12.364   9.628  0.0423 -0.0509 -0.0012
  474POPI   D2A 7576  11.623  12.484   9.178 -0.0228  0.1716  0.1250
  474POPI   C3A 7577  11.695  12.636   8.726  0.2122  0.3653  0.3587
  474POPI   C4A 7578  11.774  13.002   8.452  0.1781  0.2536 -0.0084
  474POPI   C1B 7579  12.137  12.592   9.466  0.1402  0.1063  0.1254
  474POPI   C2B 7580  12.124  12.608   9.018  0.1024 -0.1613  0.1383
  474POPI   C3B 7581  12.169  12.704   8.587 -0.0023 -0.0551 -0.0322
  474POPI   C4B 7582  12.015  12.639   8.164 -0.5056  0.2083 -0.0875
  475POPI    C1 7583   3.273   0.262  10.670  0.0637 -0.1330 -0.0220
  475POPI    C2 7584   2.919   0.392  10.802  0.1121  0.1835 -0.1938
  475POPI    C3 7585   3.056   0.034  10.917 -0.4049 -0.0840 -0.3756
  475POPI   PO4 7586   3.246   0.280  10.453 -0.2080  0.0045  0.1303
  475POPI   GL1 7587   3.055   0.141  10.117  0.0502 -0.1049  0.1441
  475POPI   GL2 7588   2.972   0.480   9.861  0.1045 -0.0941  0.2832
  475POPI   C1A 7589   2.882  -0.092   9.774  0.2516 -0.2776 -0.3026
  475POPI   D2A 7590   2.941  -0.416   9.404  0.2439 -0.1473  0.1317
  475POPI   C3A 7591   2.815  -0.251   8.929 -0.0272  0.2597 -0.0147
  475POPI   C4A 7592   2.654  -0.145   8.558 -0.1689  0.1506  0.1224
  475POPI   C1B 7593   2.987   0.366   9.488  0.0392  0.0468 -0.3287
  475POPI   C2B 7594   3.050   0.259   9.139 -0.1598  0.0343  0.1747
  475POPI   C3B 7595   3.047   0.131   8.759  0.2330 -0.4551 -0.0306
  475POPI   C4B 7596   3.153   0.285   8.452  0.1026  0.1547  0.1452
  476POPI    C1 7597  15.336   5.014  11.128  0.3164  0.1458  0.3066
  476POPI    C2 7598  15.139   5.048  11.475  0.0647 -0.1168  0.1936
  476POPI    C3 7599  15.208   5.373  11.251  0.1744  0.0447  0.4575
  476POPI   PO4 7600  15.166   4.902  10.943  0.3110  0.1404 -0.1708
  476POPI   GL1 7601  14.804   5.114  10.583 -0.1333  0.4328 -0.2014
  476POPI   GL2 7602  14.469   5.108  10.447 -0.0928  0.1450 -0.0503
  476POPI   C1A 7603  14.869   5.182  10.156 -0.1119  0.0925 -0.2597
  476POPI   D2A 7604  14.612   5.190   9.868 -0.1389  0.2384  0.2660
  476POPI   C3A 7605  14.646   5.154   9.490  0.0760 -0.2819 -0.1077
  476POPI   C4A 7606  14.658   5.160   9.034 -0.1263 -0.4792 -0.1097
  476POPI   C1B 7607  14.485   4.765  10.088 -0.0849  0.1113  0.3112
  476POPI   C2B 7608  14.761   4.691   9.648 -0.0317 -0.0278 -0.0367
  476POPI   C3B 7609  14.759   4.677   9.170 -0.0461  0.1716  0.2550
  476POPI   C4B 7610  14.743   4.688   8.847 -0.2999 -0.0855  0.2715
  477POPI    C1 7611  13.664   3.387  10.810  0.0425 -0.1443 -0.0907
  477POPI    C2 7612  13.937   3.542  10.561  0.0373  0.3238  0.1830
  477POPI    C3 7613  13.945   3.636  10.950 -0.2831  0.0339  0.2644
  477POPI   PO4 7614  13.627   3.112  10.705 -0.1637  0.0134  0.0030
  477POPI   GL1 7615  13.729   3.117  10.282  0.2229  0.1593 -0.3203
  477POPI   GL2 7616  13.632   3.307  10.016  0.0709  0.3100 -0.1458
  477POPI   C1A 7617  13.950   2.967   9.997 -0.1031  0.1848 -0.1257
  477POPI   D2A 7618  14.164   2.771   9.589 -0.2060 -0.0378  0.1630
  477POPI   C3A 7619  14.235   2.823   9.163 -0.0088  0.1292  0.1826
  477POPI   C4A 7620  14.392   2.870   8.703 -0.5326  0.2664 -0.3093
  477POPI   C1B 7621  13.626   3.091   9.594 -0.2868 -0.2092 -0.0366
  477POPI   C2B 7622  13.645   3.065   9.216  0.2159  0.1437  0.0342
  477POPI   C3B 7623  13.904   3.134   8.847 -0.1354  0.0977  0.0090
  477POPI   C4B 7624  13.961   2.953   8.397 -0.2129  0.0821 -0.0834
  478POPI    C1 7625  10.692   7.030  10.323  0.1346 -0.0646  0.1278
  478POPI    C2 7626  10.650   6.767  10.622  0.2625 -0.0704  0.1416
  478POPI    C3 7627  10.872   7.095  10.674  0.0104  0.1001  0.1621
  478POPI   PO4 7628  10.708   6.823  10.146  0.1315  0.0639  0.0465
  478POPI   GL1 7629  10.903   6.978   9.746  0.1574  0.1549  0.1829
  478POPI   GL2 7630  11.191   6.937   9.746 -0.1621  0.1844 -0.0734
  478POPI   C1A 7631  10.784   7.060   9.312 -0.1295  0.1213 -0.0331
  478POPI   D2A 7632  10.665   6.961   8.968  0.1061 -0.2443 -0.0482
  478POPI   C3A 7633  10.786   6.778   8.505 -0.0947  0.2419 -0.2503
  478POPI   C4A 7634  10.858   6.528   8.184  0.1829 -0.3027 -0.1810
  478POPI   C1B 7635  11.293   6.948   9.334 -0.1576 -0.3163 -0.1847
  478POPI   C2B 7636  11.229   6.946   8.900 -0.1506 -0.0597 -0.0039
  478POPI   C3B 7637  11.364   6.888   8.488  0.0012 -0.2019 -0.0325
  478POPI   C4B 7638  11.317   6.807   7.910  0.3436  0.2686 -0.0172
  479POPI    C1 7639  15.482   0.648  11.058 -0.1635  0.3484  0.1482
  479POPI    C2 7640  15.771   0.856  11.242  0.1639 -0.0369  0.0845
  479POPI    C3 7641  15.571   0.572  11.441  0.0257  0.0317  0.0453
  479POPI   PO4 7642  15.548   0.557  10.786  0.3929 -0.1689  0.2302
  479POPI   GL1 7643  15.350   0.547  10.409 -0.3109 -0.1540 -0.3334
  479POPI   GL2 7644  15.455   0.911  10.453 -0.0785 -0.1303  0.0560
  479POPI   C1A 7645  15.361   0.473   9.924 -0.0589 -0.0839  0.1331
  479POPI   D2A 7646  15.433   0.436   9.478 -0.0923  0.1471  0.1504
  479POPI   C3A 7647  15.444   0.312   9.163  0.3039  0.1188  0.2387
  479POPI   C4A 7648  15.464   0.271   8.754 -0.0040  0.2070  0.2120
  479POPI   C1B 7649  15.530   0.920  10.041  0.1458 -0.1808  0.0393
  479POPI   C2B 7650  15.527   0.985   9.595  0.1361  0.3372 -0.0690
  479POPI   C3B 7651  15.475   0.923   9.122 -0.2151 -0.1321  0.2022
  479POPI   C4B 7652  15.521   1.000   8.687 -0.2260 -0.1865 -0.2011
  480POPI    C1 7653  16.635   1.900  10.638 -0.2549  0.3357 -0.3863
  480POPI    C2 7654  16.482   1.538  10.563  0.0496  0.0638  0.2250
  480POPI    C3 7655  16.257   1.865  10.512 -0.3307 -0.2291 -0.0379
  480POPI   PO4 7656  16.889   1.903  10.518  0.0796 -0.0662 -0.1072
  480POPI   GL1 7657  16.799   1.771  10.110  0.2763  0.2585 -0.3164
  480POPI   GL2 7658  16.439   1.731  10.057  0.0321 -0.1509  0.1998
  480POPI   C1A 7659  16.897   1.587   9.687  0.2202  0.1571 -0.3806
  480POPI   D2A 7660  16.862   1.671   9.187 -0.0953  0.0300 -0.2102
  480POPI   C3A 7661  16.867   1.685   8.673  0.0178  0.5789 -0.0676
  480POPI   C4A 7662  16.843   1.486   8.377  0.0712 -0.1395  0.4014
  480POPI   C1B 7663  16.497   1.810   9.600  0.0603 -0.2519 -0.2032
  480POPI   C2B 7664  16.342   1.939   9.258 -0.1755 -0.0550 -0.1203
  480POPI   C3B 7665  16.515   2.004   8.888  0.2553  0.1304 -0.1888
  480POPI   C4B 7666  16.463   1.910   8.514 -0.1286 -0.0223 -0.2161
  481POPI    C1 7667  12.608   6.912  10.495 -0.1517  0.2010  0.0220
  481POPI    C2 7668  12.229   6.844  10.387 -0.1515 -0.0100  0.1481
  481POPI    C3 7669  12.455   6.543  10.522 -0.0284  0.1702  0.3501
  481POPI   PO4 7670  12.674   7.091  10.359  0.0908  0.2860  0.0111
  481POPI   GL1 7671  12.546   7.142   9.969  0.2019 -0.0334 -0.1150
  481POPI   GL2 7672  12.602   6.770   9.940  0.0367 -0.1434  0.0239
  481POPI   C1A 7673  12.549   7.154   9.508 -0.0182  0.2201  0.0311
  481POPI   D2A 7674  12.914   7.320   9.198  0.3233 -0.1031  0.3427
  481POPI   C3A 7675  12.899   7.306   8.734 -0.1716 -0.2728 -0.1058
  481POPI   C4A 7676  13.000   7.158   8.397 -0.2876  0.2205  0.1867
  481POPI   C1B 7677  12.901   6.836   9.562  0.0278  0.4294  0.0842
  481POPI   C2B 7678  12.971   6.818   9.139 -0.0389  0.1885 -0.0288
  481POPI   C3B 7679  12.967   6.771   8.726 -0.0039 -0.2623  0.3180
  481POPI   C4B 7680  12.742   6.752   8.324 -0.3174  0.1923 -0.0795
  482POPI    C1 7681  14.512  12.234  10.252  0.3015  0.1192  0.3936
  482POPI    C2 7682  14.750  12.174   9.936 -0.1787  0.1051  0.0231
  482POPI    C3 7683  14.744  11.909  10.236 -0.0517 -0.1203 -0.1700
  482POPI   PO4 7684  14.309  12.320  10.122  0.0158  0.3214  0.1674
  482POPI   GL1 7685  14.089  12.540   9.801  0.1934  0.0881  0.1135
  482POPI   GL2 7686  13.981  12.921   9.778 -0.2381  0.4249  0.0058
  482POPI   C1A 7687  14.348  12.705   9.474 -0.1510  0.1384 -0.0690
  482POPI   D2A 7688  14.428  12.855   9.021  0.4661 -0.0256 -0.0248
  482POPI   C3A 7689  14.503  12.812   8.597 -0.0109 -0.0792  0.0341
  482POPI   C4A 7690  14.695  12.870   8.157  0.2080 -0.5150 -0.1125
  482POPI   C1B 7691  14.027  13.090   9.397  0.0129  0.1022  0.0898
  482POPI   C2B 7692  13.998  13.140   9.012  0.0024  0.2668 -0.1487
  482POPI   C3B 7693  14.131  13.121   8.555 -0.2305  0.1240 -0.0147
  482POPI   C4B 7694  13.922  13.162   8.134  0.1447  0.2855 -0.0706
  483POPI    C1 7695   2.659   0.510  10.390 -0.2341 -0.1803  0.0232
  483POPI    C2 7696   2.581   0.229  10.115  0.3811 -0.2749 -0.0695
  483POPI    C3 7697   2.670   0.123  10.491 -0.1649 -0.1581  0.1022
  483POPI   PO4 7698   2.842   0.643  10.307 -0.1627 -0.0504 -0.0308
  483POPI   GL1 7699   2.816   0.890   9.949 -0.0707 -0.1986 -0.1076
  483POPI   GL2 7700   2.788   1.255  10.027 -0.1820  0.0776 -0.1681
  483POPI   C1A 7701   2.877   0.952   9.534 -0.0721  0.2936  0.2218
  483POPI   D2A 7702   2.882   0.957   9.055  0.2400 -0.0177 -0.1248
  483POPI   C3A 7703   2.676   0.937   8.654  0.3598 -0.0154  0.0718
  483POPI   C4A 7704   2.654   1.015   8.206  0.1299  0.0029 -0.0111
  483POPI   C1B 7705   2.828   1.440   9.621  0.2327  0.2845 -0.0163
  483POPI   C2B 7706   2.883   1.390   9.276 -0.3481 -0.0361  0.4729
  483POPI   C3B 7707   2.823   1.433   8.784 -0.4104  0.0716 -0.1924
  483POPI   C4B 7708   2.790   1.478   8.370 -0.5085  0.0468  0.0361
  484POPI    C1 7709  12.625   9.643   9.981  0.3270 -0.0509 -0.0043
  484POPI    C2 7710  12.396   9.405  10.206  0.1162  0.1770  0.0263
  484POPI    C3 7711  12.696   9.609  10.373  0.0514  0.2337  0.0745
  484POPI   PO4 7712  12.568   9.621   9.641  0.2363  0.1242  0.0339
  484POPI   GL1 7713  12.715   9.604   9.351 -0.0098 -0.0646  0.3259
  484POPI   GL2 7714  12.542   9.540   9.147 -0.1033  0.1699 -0.4282
  484POPI   C1A 7715  12.983   9.443   8.965  0.0491  0.2567  0.0824
  484POPI   D2A 7716  12.911   9.483   8.505  0.4758  0.1509  0.3823
  484POPI   C3A 7717  13.300   9.597   8.312  0.3150  0.2742  0.2044
  484POPI   C4A 7718  13.382   9.902   8.055 -0.0263 -0.1407  0.1305
  484POPI   C1B 7719  12.513   9.604   8.701  0.0504  0.1323 -0.2847
  484POPI   C2B 7720  12.456   9.578   8.292  0.1387  0.1005  0.0239
  484POPI   C3B 7721  12.626   9.330   8.102  0.2612 -0.0897 -0.2017
  484POPI   C4B 7722  12.996   9.257   7.914  0.0453  0.0340  0.1520
  485POPI    C1 7723  18.135   4.512  10.964 -0.2395  0.1799  0.1036
  485POPI    C2 7724  18.103   4.113  10.965 -0.1126  0.1691  0.0593
  485POPI    C3 7725  18.107   4.315  11.311  0.0832  0.1096  0.0931
  485POPI   PO4 7726  18.247   4.553  10.736  0.0807  0.0643 -0.0723
  485POPI   GL1 7727  18.181   4.623  10.401 -0.0112 -0.0542  0.1586
  485POPI   GL2 7728  18.257   4.878  10.271  0.0516  0.1607  0.2230
  485POPI   C1A 7729  17.911   4.333  10.112 -0.2771 -0.3999 -0.1866
  485POPI   D2A 7730  17.835   4.357   9.608 -0.0971 -0.3155 -0.3889
  485POPI   C3A 7731  17.978   4.184   9.274  0.2639  0.0923 -0.0215
  485POPI   C4A 7732  18.048   4.227   8.845  0.3440  0.1226  0.1638
  485POPI   C1B 7733  18.330   4.543   9.917 -0.0879  0.0473 -0.1868
  485POPI   C2B 7734  18.359   4.492   9.423  0.1598  0.0800  0.2113
  485POPI   C3B 7735  18.438   4.393   9.052  0.2653 -0.0823  0.1225
  485POPI   C4B 7736  18.701   4.283   8.650  0.0032  0.3228 -0.2253
  486POPI    C1 7737  11.114   3.909  10.052 -0.1504 -0.2105  0.1035
  486POPI    C2 7738  10.721   3.832  10.052 -0.1382 -0.2931 -0.2585
  486POPI    C3 7739  10.911   3.906  10.396 -0.5252  0.0338 -0.1080
  486POPI   PO4 7740  11.193   4.097   9.965 -0.0383 -0.2636 -0.3907
  486POPI   GL1 7741  11.208   4.126   9.463 -0.0336  0.1212 -0.0270
  486POPI   GL2 7742  11.012   4.462   9.519  0.1121  0.4165 -0.1897
  486POPI   C1A 7743  11.387   4.223   9.064 -0.2277  0.0506 -0.3039
  486POPI   D2A 7744  11.461   4.170   8.687  0.3419  0.0591  0.2538
  486POPI   C3A 7745  11.475   4.246   8.337 -0.0410 -0.1608 -0.0538
  486POPI   C4A 7746  11.413   4.224   7.937  0.0355 -0.0928 -0.1490
  486POPI   C1B 7747  10.914   4.431   9.109  0.2094 -0.0606  0.4277
  486POPI   C2B 7748  11.062   4.481   8.705  0.2547  0.0546 -0.1106
  486POPI   C3B 7749  10.988   4.500   8.263 -0.1111  0.1992 -0.1768
  486POPI   C4B 7750  10.947   4.502   7.818  0.1092  0.3190 -0.2116
  487POPI    C1 7751  11.985   5.996  10.160  0.3673 -0.1522  0.1962
  487POPI    C2 7752  12.064   6.341  10.347  0.1168 -0.0804  0.1731
  487POPI    C3 7753  11.886   6.042  10.545  0.0867 -0.0981  0.1194
  487POPI   PO4 7754  12.177   5.900  10.068  0.1214 -0.2280  0.3746
  487POPI   GL1 7755  12.324   5.979   9.766  0.0155  0.0120  0.3605
  487POPI   GL2 7756  12.502   6.138   9.627 -0.0791 -0.4788 -0.1092
  487POPI   C1A 7757  12.147   5.745   9.371  0.1570  0.2281 -0.0608
  487POPI   D2A 7758  12.329   5.650   8.916  0.2783 -0.0253  0.0413
  487POPI   C3A 7759  12.574   5.412   8.598 -0.1757  0.1169 -0.1551
  487POPI   C4A 7760  12.563   5.043   8.385 -0.0011 -0.2727  0.2792
  487POPI   C1B 7761  12.485   6.080   9.151 -0.1525  0.1956 -0.1862
  487POPI   C2B 7762  12.475   6.086   8.781  0.1180  0.1705  0.4247
  487POPI   C3B 7763  12.463   5.897   8.389 -0.3414  0.2500  0.1042
  487POPI   C4B 7764  12.407   6.286   8.070 -0.3926 -0.0510 -0.0081
  488POPI    C1 7765  16.239   1.045  11.258  0.1166 -0.1079  0.0025
  488POPI    C2 7766  16.195   1.428  11.365 -0.0458 -0.0803 -0.1575
  488POPI    C3 7767  16.068   1.137  11.608  0.1745 -0.0374  0.0126
  488POPI   PO4 7768  16.283   1.105  10.970  0.1337 -0.3120  0.1572
  488POPI   GL1 7769  16.321   1.068  10.578 -0.0040 -0.1650  0.0356
  488POPI   GL2 7770  16.373   0.796  10.409  0.1594  0.2484  0.0232
  488POPI   C1A 7771  16.399   1.227  10.197 -0.4071 -0.0404 -0.1239
  488POPI   D2A 7772  16.460   1.294   9.736  0.0663  0.1694  0.0501
  488POPI   C3A 7773  16.439   1.385   9.323  0.0865 -0.0570  0.3201
  488POPI   C4A 7774  16.374   1.528   8.846  0.2283  0.0751 -0.0713
  488POPI   C1B 7775  16.431   0.790   9.988  0.0057 -0.0888 -0.1629
  488POPI   C2B 7776  16.416   0.799   9.576 -0.1765  0.3447  0.1685
  488POPI   C3B 7777  16.372   0.829   9.133 -0.0947 -0.1257  0.1090
  488POPI   C4B 7778  16.387   0.859   8.707 -0.3859 -0.2326 -0.2164
  489POPI    C1 7779   5.978   9.577  10.954  0.0895 -0.0153 -0.2550
  489POPI    C2 7780   6.364   9.473  10.943  0.1198  0.0691 -0.0270
  489POPI    C3 7781   6.243   9.772  11.181 -0.1301 -0.1483  0.1250
  489POPI   PO4 7782   5.860   9.260  10.824 -0.2123  0.0927 -0.1369
  489POPI   GL1 7783   5.739   9.172  10.357 -0.0498 -0.0450 -0.0139
  489POPI   GL2 7784   5.653   8.868  10.181 -0.2448 -0.3412 -0.0100
  489POPI   C1A 7785   5.778   9.248   9.895 -0.0547 -0.4672  0.0766
  489POPI   D2A 7786   5.842   9.231   9.456 -0.3754  0.1889 -0.0415
  489POPI   C3A 7787   5.708   9.243   9.102  0.0187 -0.2080  0.1205
  489POPI   C4A 7788   5.768   9.246   8.645 -0.0328  0.0531 -0.1540
  489POPI   C1B 7789   5.790   8.801   9.733 -0.1509 -0.0644  0.0634
  489POPI   C2B 7790   5.826   8.720   9.336 -0.2263  0.0095 -0.1884
  489POPI   C3B 7791   5.700   8.815   8.907  0.2624 -0.1012 -0.1764
  489POPI   C4B 7792   5.718   8.745   8.495  0.3187  0.0050  0.0677
  490POPI    C1 7793   3.732  16.216  10.276 -0.1836  0.0463 -0.1697
  490POPI    C2 7794   3.712  15.939  10.564 -0.0166 -0.1170 -0.3127
  490POPI    C3 7795   3.750  16.325  10.661  0.3661 -0.1984 -0.1166
  490POPI   PO4 7796   3.685  16.112  10.022  0.0811  0.1694 -0.0406
  490POPI   GL1 7797   3.579  16.182   9.601  0.1587 -0.0243  0.0245
  490POPI   GL2 7798   3.518  15.964   9.358 -0.2898  0.0535  0.0675
  490POPI   C1A 7799   3.904  16.265   9.131 -0.0474  0.3159 -0.3011
  490POPI   D2A 7800   3.945  16.247   8.680 -0.2916 -0.2481  0.0871
  490POPI   C3A 7801   4.016  16.002   8.320  0.1956  0.2835  0.0407
  490POPI   C4A 7802   4.068  15.928   8.014 -0.1285 -0.1578  0.1283
  490POPI   C1B 7803   3.547  15.934   8.921 -0.1581 -0.2041 -0.0892
  490POPI   C2B 7804   3.551  15.923   8.470  0.1269  0.1711 -0.3535
  490POPI   C3B 7805   3.146  16.109   8.215  0.0475  0.1112  0.0527
  490POPI   C4B 7806   2.987  15.944   7.767  0.1968 -0.0791  0.1224
  491POPI    C1 7807   0.658   2.792  11.161  0.1424  0.2448 -0.3971
  491POPI    C2 7808   0.859   3.020  11.422  0.1601 -0.1341 -0.0692
  491POPI    C3 7809   1.014   2.673  11.299  0.0646 -0.0490 -0.4439
  491POPI   PO4 7810   0.612   2.919  10.962  0.4640 -0.2392  0.2616
  491POPI   GL1 7811   0.597   2.778  10.516 -0.1256 -0.1438  0.0065
  491POPI   GL2 7812   0.939   3.061  10.484  0.1300  0.1454 -0.1721
  491POPI   C1A 7813   0.594   2.689  10.077 -0.0303  0.0802 -0.1506
  491POPI   D2A 7814   0.451   2.674   9.645  0.0374 -0.0989  0.1381
  491POPI   C3A 7815   0.566   2.599   9.301  0.1265 -0.0377  0.0177
  491POPI   C4A 7816   0.591   2.564   8.944 -0.0906  0.0941  0.1331
  491POPI   C1B 7817   1.103   2.967  10.088  0.0497  0.1343  0.0001
  491POPI   C2B 7818   1.045   2.920   9.646  0.0634  0.0002  0.0699
  491POPI   C3B 7819   0.959   2.874   9.190  0.3011  0.0464  0.2460
  491POPI   C4B 7820   1.050   2.722   8.763 -0.0802 -0.0260 -0.0434
  492POPI    C1 7821   9.954   1.294  10.462 -0.0251  0.0415  0.0084
  492POPI    C2 7822   9.937   1.631  10.677  0.2432  0.0026  0.0947
  492POPI    C3 7823  10.060   1.291  10.848 -0.0464 -0.1457  0.0135
  492POPI   PO4 7824   9.729   1.288  10.309 -0.1289  0.2189 -0.0076
  492POPI   GL1 7825   9.693   1.359   9.821 -0.1602 -0.2046  0.1492
  492POPI   GL2 7826   9.984   1.278   9.774 -0.1921  0.0533  0.0342
  492POPI   C1A 7827   9.483   1.217   9.503  0.0550 -0.0820 -0.1042
  492POPI   D2A 7828   9.382   1.355   9.148  0.0107  0.0077  0.0055
  492POPI   C3A 7829   9.539   1.325   8.675  0.3507  0.1850 -0.2745
  492POPI   C4A 7830   9.306   1.214   8.369 -0.0664  0.1498  0.0775
  492POPI   C1B 7831   9.956   1.208   9.406  0.3252  0.1660  0.0182
  492POPI   C2B 7832   9.898   1.145   8.931  0.0267  0.0410 -0.3691
  492POPI   C3B 7833  10.145   1.262   8.621 -0.2055  0.1906  0.1737
  492POPI   C4B 7834  10.464   1.121   8.329  0.1019 -0.0032 -0.1429
  493POPI    C1 7835   9.794  15.598  10.815  0.0470 -0.0099  0.1871
  493POPI    C2 7836   9.439  15.481  10.957 -0.0341  0.0441  0.0317
  493POPI    C3 7837   9.459  15.780  10.692  0.1014 -0.1501 -0.1808
  493POPI   PO4 7838   9.974  15.348  10.637 -0.1359  0.0323 -0.0174
  493POPI   GL1 7839   9.810  15.142  10.286  0.1207  0.0792 -0.2657
  493POPI   GL2 7840   9.544  15.353  10.407 -0.1573 -0.0147 -0.2001
  493POPI   C1A 7841   9.772  15.030   9.893  0.3100  0.2460  0.1720
  493POPI   D2A 7842   9.870  14.964   9.451 -0.1790 -0.0048  0.2891
  493POPI   C3A 7843   9.937  14.993   9.116  0.0946 -0.0539 -0.0609
  493POPI   C4A 7844   9.901  14.975   8.734 -0.0713  0.3852 -0.1277
  493POPI   C1B 7845   9.356  15.241  10.041 -0.1833 -0.0426 -0.2476
  493POPI   C2B 7846   9.323  15.212   9.613  0.2634  0.1957 -0.1317
  493POPI   C3B 7847   9.409  15.182   9.264  0.1248  0.1443 -0.1389
  493POPI   C4B 7848   9.475  15.282   8.799 -0.2575  0.1171 -0.1178
  494POPI    C1 7849   6.824   6.995  10.610 -0.0271 -0.1587  0.2062
  494POPI    C2 7850   6.689   7.268  10.868  0.0980  0.1619 -0.0595
  494POPI    C3 7851   7.045   7.096  10.928 -0.0017  0.0183  0.1336
  494POPI   PO4 7852   6.790   7.126  10.362 -0.0320  0.0368 -0.0638
  494POPI   GL1 7853   6.848   7.243  10.000  0.0400 -0.0946  0.4387
  494POPI   GL2 7854   6.510   7.203   9.921 -0.0705 -0.1781  0.0033
  494POPI   C1A 7855   7.044   7.289   9.548 -0.0632 -0.0539 -0.3479
  494POPI   D2A 7856   7.096   7.443   9.136  0.3282  0.2463 -0.2708
  494POPI   C3A 7857   7.094   7.531   8.706  0.0317  0.2058 -0.1307
  494POPI   C4A 7858   6.983   7.805   8.365 -0.2651  0.1232  0.0940
  494POPI   C1B 7859   6.584   7.113   9.528  0.2996  0.1888  0.0080
  494POPI   C2B 7860   6.612   7.075   9.131  0.0886 -0.1361  0.2723
  494POPI   C3B 7861   6.702   7.224   8.730  0.3674  0.0448 -0.0383
  494POPI   C4B 7862   6.629   7.294   8.318 -0.0612  0.3400 -0.1869
  495POPI    C1 7863  12.375  17.546  10.833 -0.0603  0.2362  0.3116
  495POPI    C2 7864  11.996  17.441  10.907 -0.0296  0.0789  0.2492
  495POPI    C3 7865  12.281  17.361  11.175  0.0316 -0.2109  0.1015
  495POPI   PO4 7866  12.251  17.620  10.508 -0.0038  0.4290  0.4676
  495POPI   GL1 7867  12.462  17.849  10.176 -0.1104  0.0669 -0.0826
  495POPI   GL2 7868  12.788  17.890  10.080 -0.1085  0.1276 -0.0244
  495POPI   C1A 7869  12.321  18.094   9.944 -0.0666  0.0222 -0.2649
  495POPI   D2A 7870  12.174  18.027   9.421 -0.0280  0.1290  0.1557
  495POPI   C3A 7871  12.348  17.994   9.092  0.1673  0.1640  0.0908
  495POPI   C4A 7872  12.343  17.913   8.701  0.2869  0.0019 -0.0969
  495POPI   C1B 7873  12.623  17.774   9.703  0.1388  0.1091  0.2447
  495POPI   C2B 7874  12.716  17.620   9.266 -0.1613 -0.1740 -0.0757
  495POPI   C3B 7875  12.728  17.705   8.895 -0.2141 -0.1519 -0.3189
  495POPI   C4B 7876  12.720  17.623   8.446 -0.0275 -0.3170 -0.1361
  496POPI    C1 7877   8.228  14.681  10.733 -0.0337 -0.1843 -0.0326
  496POPI    C2 7878   7.915  14.789  10.958 -0.0524  0.0471 -0.1666
  496POPI    C3 7879   8.125  14.462  11.051 -0.0666  0.1326  0.1792
  496POPI   PO4 7880   8.303  14.891  10.615  0.2639 -0.0907  0.1356
  496POPI   GL1 7881   8.589  14.838  10.315  0.1969 -0.1030  0.1948
  496POPI   GL2 7882   8.802  14.936  10.484  0.1206  0.1990  0.1251
  496POPI   C1A 7883   8.564  14.656   9.954  0.3949 -0.2970  0.1962
  496POPI   D2A 7884   8.523  14.355   9.555  0.1529 -0.1689 -0.3319
  496POPI   C3A 7885   8.553  14.565   9.170 -0.1109  0.1671 -0.1998
  496POPI   C4A 7886   8.675  14.733   8.758  0.1576 -0.1069  0.0152
  496POPI   C1B 7887   8.974  14.924  10.071 -0.3167  0.0754 -0.2138
  496POPI   C2B 7888   8.902  14.785   9.609  0.1994 -0.4757  0.1695
  496POPI   C3B 7889   9.031  14.844   9.142  0.2316  0.0451 -0.0466
  496POPI   C4B 7890   9.079  15.065   8.763  0.3417  0.0339 -0.0777
  497POPI    C1 7891  12.275  10.481   9.798 -0.1479  0.1722 -0.1960
  497POPI    C2 7892  12.030  10.788   9.876 -0.1233  0.1345  0.0383
  497POPI    C3 7893  12.276  10.651  10.160  0.0142  0.0305 -0.1283
  497POPI   PO4 7894  12.309  10.626   9.511 -0.0902 -0.0507 -0.3378
  497POPI   GL1 7895  12.307  10.617   9.143  0.0275 -0.1123 -0.2376
  497POPI   GL2 7896  12.061  10.702   9.086  0.0080  0.0383 -0.2699
  497POPI   C1A 7897  12.505  10.708   8.814  0.0815  0.1789 -0.1234
  497POPI   D2A 7898  12.353  10.718   8.319  0.2634 -0.0950 -0.2311
  497POPI   C3A 7899  12.494  10.721   7.864 -0.0861  0.5110 -0.1026
  497POPI   C4A 7900  12.726  10.968   7.511  0.0257  0.3557 -0.0407
  497POPI   C1B 7901  11.982  10.762   8.672  0.1616 -0.1110 -0.1356
  497POPI   C2B 7902  11.919  10.961   8.307  0.0249 -0.2909 -0.0239
  497POPI   C3B 7903  12.108  11.037   7.913 -0.1286 -0.2194  0.2112
  497POPI   C4B 7904  12.153  11.034   7.498  0.2127 -0.2261  0.0174
  498POPI    C1 7905   4.934   6.801  10.688 -0.0050 -0.0318  0.1039
  498POPI    C2 7906   5.245   6.954  10.887  0.0847  0.1257 -0.1523
  498POPI    C3 7907   4.873   7.071  10.977  0.1296  0.2497 -0.1257
  498POPI   PO4 7908   5.035   6.798  10.387  0.0463  0.0204  0.2617
  498POPI   GL1 7909   4.987   7.094  10.079 -0.1790  0.3616 -0.3788
  498POPI   GL2 7910   5.206   6.854   9.928  0.2502 -0.0667 -0.3175
  498POPI   C1A 7911   4.797   7.165   9.646 -0.1391  0.0475  0.1422
  498POPI   D2A 7912   4.721   7.211   9.300  0.1891  0.2702  0.1540
  498POPI   C3A 7913   4.915   7.088   8.932 -0.0348 -0.1776 -0.0134
  498POPI   C4A 7914   4.904   7.096   8.553 -0.0930  0.2927  0.1947
  498POPI   C1B 7915   5.173   6.911   9.455  0.0335  0.0188  0.0814
  498POPI   C2B 7916   5.331   6.842   9.058 -0.0972  0.3355  0.1755
  498POPI   C3B 7917   5.422   6.937   8.656  0.4078 -0.1076  0.1858
  498POPI   C4B 7918   5.344   6.839   8.314 -0.4546 -0.0701  0.1267
  499POPI    C1 7919   7.545   1.306  10.039 -0.0933 -0.0833  0.0213
  499POPI    C2 7920   7.449   0.926   9.958  0.0482 -0.1019 -0.0625
  499POPI    C3 7921   7.523   1.038  10.335 -0.0168 -0.1517 -0.0347
  499POPI   PO4 7922   7.693   1.372   9.903  0.4148 -0.0139  0.2383
  499POPI   GL1 7923   7.721   1.466   9.399 -0.0373 -0.1192 -0.0720
  499POPI   GL2 7924   7.891   1.696   9.469 -0.2390 -0.3579 -0.1963
  499POPI   C1A 7925   7.766   1.451   8.963  0.2047  0.1591 -0.0209
  499POPI   D2A 7926   7.654   1.407   8.507 -0.1478 -0.0330  0.0326
  499POPI   C3A 7927   7.483   1.353   8.076  0.2007  0.2296  0.2413
  499POPI   C4A 7928   7.275   1.542   7.658 -0.1116  0.0377  0.1896
  499POPI   C1B 7929   7.840   1.942   9.064  0.2261  0.2176 -0.0369
  499POPI   C2B 7930   7.799   1.873   8.664 -0.0878  0.1260  0.1399
  499POPI   C3B 7931   7.809   1.747   8.178  0.1598  0.2623 -0.0506
  499POPI   C4B 7932   7.840   1.842   7.780  0.1123 -0.1706  0.1315
  500POPI    C1 7933  16.330  14.877  10.502 -0.0551  0.1226  0.0483
  500POPI    C2 7934  16.294  14.486  10.425  0.0678  0.1204 -0.0006
  500POPI    C3 7935  16.024  14.670  10.656  0.0183  0.0035  0.0354
  500POPI   PO4 7936  16.444  14.964  10.275 -0.1489 -0.1184  0.1739
  500POPI   GL1 7937  16.371  14.804   9.895 -0.0886 -0.3301  0.3372
  500POPI   GL2 7938  16.592  14.669   9.888  0.1246 -0.2992 -0.0016
  500POPI   C1A 7939  16.312  14.890   9.511 -0.0575 -0.1622  0.0811
  500POPI   D2A 7940  16.246  14.910   9.116  0.1608 -0.2524  0.1884
  500POPI   C3A 7941  16.182  14.877   8.721 -0.1863 -0.0898  0.3446
  500POPI   C4A 7942  16.332  14.781   8.403  0.0788 -0.0293  0.1464
  500POPI   C1B 7943  16.514  14.456   9.597 -0.0214  0.0772  0.1726
  500POPI   C2B 7944  16.582  14.559   9.224  0.0921  0.2200 -0.0253
  500POPI   C3B 7945  16.690  14.621   8.709  0.1216 -0.0726  0.0505
  500POPI   C4B 7946  16.836  14.580   8.160 -0.0034 -0.0033 -0.0388
  501POPI    C1 7947  15.723  14.269  10.640 -0.0722  0.1621  0.3144
  501POPI    C2 7948  15.561  13.917  10.737  0.1189 -0.0126  0.0148
  501POPI    C3 7949  15.733  14.142  11.019 -0.1909 -0.0577  0.2454
  501POPI   PO4 7950  15.835  14.226  10.392  0.1367 -0.2114  0.1315
  501POPI   GL1 7951  15.920  14.491  10.087 -0.1712 -0.0513  0.1336
  501POPI   GL2 7952  15.948  14.787  10.135 -0.0891  0.0777  0.2291
  501POPI   C1A 7953  15.995  14.384   9.702  0.0160  0.1653  0.1182
  501POPI   D2A 7954  16.093  14.469   9.333  0.0640  0.2519  0.0088
  501POPI   C3A 7955  15.863  14.564   8.991 -0.0405 -0.1289 -0.0885
  501POPI   C4A 7956  15.859  14.513   8.554 -0.0284  0.0307  0.3913
  501POPI   C1B 7957  15.865  14.963   9.755 -0.2617  0.1630  0.4235
  501POPI   C2B 7958  15.883  15.215   9.441 -0.1324  0.1869 -0.1054
  501POPI   C3B 7959  15.844  15.241   9.049  0.3501 -0.0757  0.0617
  501POPI   C4B 7960  15.820  15.198   8.597 -0.2647 -0.1566  0.0401
  502POPI    C1 7961   8.522  17.926  10.216 -0.0082 -0.1093 -0.0266
  502POPI    C2 7962   8.272  17.986  10.522 -0.1211 -0.0788 -0.1244
  502POPI    C3 7963   8.394  17.616  10.434  0.1981 -0.0516  0.1815
  502POPI   PO4 7964   8.386  18.097   9.986 -0.1726  0.1318  0.2765
  502POPI   GL1 7965   8.618  18.228   9.589 -0.0878 -0.0583  0.0318
  502POPI   GL2 7966   8.484  17.913   9.491 -0.1418  0.1208 -0.0606
  502POPI   C1A 7967   8.526  18.366   9.138  0.1866  0.0323  0.3509
  502POPI   D2A 7968   8.425  18.388   8.757 -0.1405 -0.1237 -0.0722
  502POPI   C3A 7969   8.335  18.527   8.299 -0.0327 -0.1432 -0.2304
  502POPI   C4A 7970   8.574  18.466   7.857  0.0237 -0.1117 -0.2231
  502POPI   C1B 7971   8.491  17.900   9.056 -0.0269  0.1458 -0.1575
  502POPI   C2B 7972   8.442  17.931   8.527 -0.0573 -0.0713  0.2154
  502POPI   C3B 7973   8.390  18.084   8.098  0.0620  0.3760  0.2447
  502POPI   C4B 7974   8.619  18.044   7.712 -0.0128  0.1693  0.2483
  503POPI    C1 7975  13.375  10.614   9.963  0.1607 -0.0735 -0.2500
  503POPI    C2 7976  13.461  10.227  10.021 -0.0130 -0.0681  0.0663
  503POPI    C3 7977  13.155  10.396  10.217  0.0126  0.2116 -0.1289
  503POPI   PO4 7978  13.385  10.592   9.645  0.0734  0.1787 -0.2756
  503POPI   GL1 7979  13.294  10.643   9.248  0.1700 -0.1760  0.0780
  503POPI   GL2 7980  13.109  10.305   9.233 -0.1983  0.1934 -0.1741
  503POPI   C1A 7981  13.526  10.788   8.876 -0.2063 -0.2089  0.0732
  503POPI   D2A 7982  13.371  10.835   8.437  0.0009 -0.0726 -0.0062
  503POPI   C3A 7983  13.598  10.896   8.107  0.1486 -0.0567  0.0922
  503POPI   C4A 7984  13.903  11.137   7.717 -0.0720  0.0490 -0.1191
  503POPI   C1B 7985  12.889  10.435   8.931  0.0825 -0.2422  0.2736
  503POPI   C2B 7986  12.822  10.405   8.495 -0.1693  0.0315  0.0145
  503POPI   C3B 7987  12.857  10.447   8.092 -0.2641 -0.0294  0.0595
  503POPI   C4B 7988  12.868  10.475   7.672 -0.1766  0.0313  0.3358
  504POPI    C1 7989   6.328  12.230  10.497 -0.0733  0.1152  0.1619
  504POPI    C2 7990   6.096  11.965  10.686 -0.0425 -0.0953 -0.0902
  504POPI    C3 7991   6.492  11.912  10.676 -0.0655 -0.2334 -0.4358
  504POPI   PO4 7992   6.236  12.232  10.309 -0.1749 -0.2298 -0.2164
  504POPI   GL1 7993   6.286  12.003   9.898 -0.0564  0.4143  0.3297
  504POPI   GL2 7994   6.238  12.175   9.700  0.0159  0.1731 -0.1071
  504POPI   C1A 7995   6.624  11.961   9.530 -0.0105  0.3677 -0.0833
  504POPI   D2A 7996   6.736  11.900   9.009  0.1105  0.0663  0.0292
  504POPI   C3A 7997   6.679  12.026   8.588  0.2298  0.0486  0.0149
  504POPI   C4A 7998   6.818  12.007   8.173 -0.1494 -0.2459 -0.0428
  504POPI   C1B 7999   6.218  12.103   9.195  0.0924  0.0833 -0.2304
  504POPI   C2B 8000   6.238  12.216   8.821 -0.2971  0.1515 -0.0763
  504POPI   C3B 8001   6.217  12.190   8.394  0.0419 -0.0266  0.0407
  504POPI   C4B 8002   6.463  12.405   8.072 -0.3589 -0.1802  0.1872
  505POPI    C1 8003   4.662  14.893  10.690  0.0165 -0.1958  0.0983
  505POPI    C2 8004   5.002  15.100  10.730 -0.0577 -0.0666  0.0692
  505POPI    C3 8005   4.921  14.798  10.980  0.2035 -0.2758 -0.0919
  505POPI   PO4 8006   4.630  14.902  10.338 -0.0802 -0.0164 -0.1977
  505POPI   GL1 8007   4.660  15.053   9.933  0.0012 -0.0171 -0.2957
  505POPI   GL2 8008   4.689  15.290   9.773 -0.1224  0.0162 -0.1197
  505POPI   C1A 8009   4.766  14.825   9.658  0.3953  0.2161 -0.1003
  505POPI   D2A 8010   4.943  14.584   9.460  0.2663  0.0555  0.1225
  505POPI   C3A 8011   4.922  14.537   8.983  0.1132 -0.0413  0.1113
  505POPI   C4A 8012   4.865  14.537   8.568  0.0158 -0.3345  0.2113
  505POPI   C1B 8013   4.821  15.247   9.343  0.2565  0.0261  0.1182
  505POPI   C2B 8014   4.897  15.130   8.961  0.1291  0.2766  0.0278
  505POPI   C3B 8015   4.835  15.086   8.507  0.2577  0.0601  0.1799
  505POPI   C4B 8016   4.909  14.998   8.063  0.3101  0.2174 -0.0389
  506POPI    C1 8017  15.525   4.494  10.821  0.3952  0.1820  0.0717
  506POPI    C2 8018  15.332   4.673  10.519  0.0775 -0.1847  0.0503
  506POPI    C3 8019  15.613   4.872  10.722 -0.1332  0.2708 -0.0918
  506POPI   PO4 8020  15.525   4.205  10.704  0.3756  0.1862 -0.1930
  506POPI   GL1 8021  15.694   4.185  10.285  0.0244  0.4043  0.2032
  506POPI   GL2 8022  15.840   4.445  10.442  0.3690  0.1451  0.0780
  506POPI   C1A 8023  15.709   4.111   9.813 -0.1502 -0.0726 -0.0495
  506POPI   D2A 8024  15.772   4.266   9.350 -0.0707 -0.0277  0.1167
  506POPI   C3A 8025  15.658   4.270   8.949 -0.0135  0.1327  0.3044
  506POPI   C4A 8026  15.723   3.984   8.648 -0.1460 -0.0659 -0.2008
  506POPI   C1B 8027  15.740   4.611  10.036  0.2135  0.2737 -0.1559
  506POPI   C2B 8028  15.617   4.735   9.601 -0.1718  0.1850 -0.1931
  506POPI   C3B 8029  15.750   4.755   9.227  0.0410  0.1968 -0.0145
  506POPI   C4B 8030  15.655   4.718   8.778  0.2190 -0.1217  0.0806
  507POPI    C1 8031   8.622   3.169   9.984  0.0833 -0.0814  0.0047
  507POPI    C2 8032   8.524   3.354  10.325 -0.1303  0.1674 -0.1872
  507POPI    C3 8033   8.842   3.112  10.312 -0.2467 -0.0168  0.2426
  507POPI   PO4 8034   8.524   3.327   9.828 -0.1092  0.2765  0.1364
  507POPI   GL1 8035   8.597   3.477   9.449 -0.3742  0.3170  0.1923
  507POPI   GL2 8036   8.835   3.658   9.428  0.3295 -0.1086 -0.1182
  507POPI   C1A 8037   8.455   3.507   9.015  0.1324  0.1001  0.2551
  507POPI   D2A 8038   8.764   3.491   8.740  0.2288  0.1379 -0.0430
  507POPI   C3A 8039   8.861   3.451   8.408  0.2487  0.0207  0.0385
  507POPI   C4A 8040   8.852   3.692   8.137 -0.2118  0.0369  0.0990
  507POPI   C1B 8041   9.025   3.708   9.131  0.1072  0.3026  0.0184
  507POPI   C2B 8042   9.178   3.704   8.675 -0.1010  0.3634 -0.1909
  507POPI   C3B 8043   9.326   3.508   8.312  0.3024  0.0592  0.0410
  507POPI   C4B 8044   9.338   3.474   7.882 -0.2132 -0.0261  0.0708
  508POPI    C1 8045  11.305  16.822  11.190 -0.3726 -0.3251 -0.0853
  508POPI    C2 8046  11.678  16.817  11.334 -0.1945  0.3416 -0.4798
  508POPI    C3 8047  11.367  16.811  11.585  0.0698 -0.1897 -0.1449
  508POPI   PO4 8048  11.292  16.638  10.955  0.1949  0.2179  0.0528
  508POPI   GL1 8049  11.256  16.689  10.562 -0.1528  0.1504  0.1402
  508POPI   GL2 8050  11.040  16.952  10.401 -0.1195  0.2406 -0.1657
  508POPI   C1A 8051  11.212  16.484  10.146  0.0548 -0.2337 -0.1149
  508POPI   D2A 8052  11.288  16.498   9.754 -0.2848  0.1724 -0.2586
  508POPI   C3A 8053  11.266  16.440   9.339 -0.1048 -0.3471 -0.2161
  508POPI   C4A 8054  11.318  16.382   9.029 -0.0602 -0.0926 -0.1318
  508POPI   C1B 8055  10.981  17.075   9.969 -0.0320  0.0877 -0.2001
  508POPI   C2B 8056  11.260  17.040   9.734 -0.1915  0.1138 -0.3241
  508POPI   C3B 8057  11.272  16.932   9.291  0.1723 -0.2819  0.2887
  508POPI   C4B 8058  11.328  16.970   8.893 -0.2397 -0.0886 -0.1550
  509POPI    C1 8059  13.900  11.622   9.925  0.0098  0.0229  0.1671
  509POPI    C2 8060  13.874  11.227   9.865  0.0215  0.0586 -0.0843
  509POPI    C3 8061  13.836  11.376  10.234  0.0544 -0.1800  0.0175
  509POPI   PO4 8062  13.688  11.697   9.687 -0.2643 -0.2332  0.2207
  509POPI   GL1 8063  13.478  11.456   9.377 -0.3671 -0.2266 -0.1959
  509POPI   GL2 8064  13.338  11.192   9.244  0.2767  0.1337 -0.1945
  509POPI   C1A 8065  13.748  11.625   9.038  0.0442  0.3305  0.4063
  509POPI   D2A 8066  13.717  11.674   8.664 -0.0375 -0.0608  0.0685
  509POPI   C3A 8067  13.944  11.650   8.373  0.2320 -0.3165  0.0032
  509POPI   C4A 8068  13.831  11.857   7.877 -0.0161 -0.5298  0.1521
  509POPI   C1B 8069  13.444  11.271   8.819  0.0609  0.0597 -0.0351
  509POPI   C2B 8070  13.422  11.337   8.364  0.3234 -0.0202  0.2957
  509POPI   C3B 8071  13.592  11.416   7.999 -0.0302  0.1088 -0.2038
  509POPI   C4B 8072  13.426  11.207   7.618  0.0886 -0.3260  0.2194
  510POPI    C1 8073  14.695   6.738  10.747 -0.1285  0.0475  0.0108
  510POPI    C2 8074  14.407   6.492  10.876 -0.0525 -0.1283 -0.1503
  510POPI    C3 8075  14.709   6.592  11.119 -0.1113 -0.1520 -0.0671
  510POPI   PO4 8076  14.834   6.610  10.461  0.2214  0.1311  0.0344
  510POPI   GL1 8077  14.962   6.699  10.025  0.0203 -0.1675 -0.3306
  510POPI   GL2 8078  14.998   6.958  10.108  0.0816  0.0921 -0.1879
  510POPI   C1A 8079  15.044   6.765   9.668  0.2331  0.0045 -0.2643
  510POPI   D2A 8080  15.152   6.760   9.295  0.1813 -0.3039  0.1946
  510POPI   C3A 8081  15.201   6.489   9.092 -0.0106 -0.1673 -0.4509
  510POPI   C4A 8082  15.290   6.440   8.685 -0.0593 -0.1374 -0.2247
  510POPI   C1B 8083  15.215   7.245   9.945 -0.2340  0.1026 -0.2592
  510POPI   C2B 8084  15.426   7.207   9.591  0.1464 -0.0495 -0.0264
  510POPI   C3B 8085  15.606   7.216   9.131  0.1637 -0.3197  0.1252
  510POPI   C4B 8086  15.645   7.295   8.715 -0.0249  0.3563 -0.1996
  511POPI    C1 8087  17.252   2.167  10.857 -0.0145 -0.1815 -0.0877
  511POPI    C2 8088  17.361   1.912  11.145  0.0161 -0.1109 -0.0365
  511POPI    C3 8089  16.981   1.922  11.021 -0.0211 -0.0635  0.0807
  511POPI   PO4 8090  17.300   2.111  10.670 -0.1748 -0.2134  0.2473
  511POPI   GL1 8091  17.365   2.398  10.343  0.1225  0.0066 -0.1086
  511POPI   GL2 8092  17.056   2.284  10.234 -0.1708 -0.0126 -0.0136
  511POPI   C1A 8093  17.409   2.506   9.930 -0.3603  0.2518  0.0684
  511POPI   D2A 8094  17.435   2.521   9.492  0.0029  0.0510  0.1571
  511POPI   C3A 8095  17.440   2.431   9.164 -0.0052  0.3201  0.2522
  511POPI   C4A 8096  17.299   2.452   8.726 -0.0510  0.0151  0.3676
  511POPI   C1B 8097  16.915   2.118   9.789 -0.0786 -0.2080  0.0986
  511POPI   C2B 8098  16.835   2.138   9.376 -0.0099 -0.2270 -0.0449
  511POPI   C3B 8099  16.974   2.189   8.961  0.3255 -0.0294  0.0591
  511POPI   C4B 8100  16.894   2.171   8.577  0.0034  0.0979  0.1821
  512POPI    C1 8101   8.443   5.302  10.411 -0.1795  0.0467 -0.2212
  512POPI    C2 8102   8.408   5.124  10.767 -0.1369  0.0244 -0.2281
  512POPI    C3 8103   8.344   5.517  10.733  0.2830  0.1072 -0.1133
  512POPI   PO4 8104   8.291   5.221  10.233  0.1565  0.0686 -0.1705
  512POPI   GL1 8105   8.215   5.102   9.889 -0.2129 -0.1170  0.1382
  512POPI   GL2 8106   8.495   4.984   9.679 -0.0697  0.5792 -0.0160
  512POPI   C1A 8107   7.961   5.214   9.636  0.1400 -0.1503  0.2175
  512POPI   D2A 8108   7.980   5.259   9.171  0.1138 -0.1734  0.0181
  512POPI   C3A 8109   7.916   5.294   8.788  0.2200 -0.0037  0.1343
  512POPI   C4A 8110   8.009   5.483   8.314  0.4337 -0.1481  0.1224
  512POPI   C1B 8111   8.447   5.060   9.359  0.1742 -0.0954  0.1377
  512POPI   C2B 8112   8.426   4.962   8.932 -0.0300 -0.0536 -0.1781
  512POPI   C3B 8113   8.338   5.028   8.541  0.0147 -0.0692 -0.1358
  512POPI   C4B 8114   8.329   5.196   8.119 -0.1353 -0.3136  0.1351
  513POPI    C1 8115   5.709  12.206  10.498  0.2567 -0.0210 -0.0178
  513POPI    C2 8116   5.418  12.374  10.716  0.0105 -0.2499 -0.1650
  513POPI    C3 8117   5.800  12.417  10.826 -0.0753  0.0702  0.0193
  513POPI   PO4 8118   5.742  12.286  10.234  0.1941 -0.1126  0.0094
  513POPI   GL1 8119   5.849  12.405   9.868  0.0384 -0.2555 -0.0692
  513POPI   GL2 8120   6.146  12.628   9.963  0.2658  0.1718 -0.1422
  513POPI   C1A 8121   5.832  12.397   9.443 -0.1287 -0.0150 -0.3796
  513POPI   D2A 8122   5.727  12.435   9.012 -0.0907 -0.2450 -0.2047
  513POPI   C3A 8123   5.846  12.507   8.610 -0.1441  0.3436 -0.3602
  513POPI   C4A 8124   5.725  12.452   8.310  0.1769 -0.0165  0.0176
  513POPI   C1B 8125   6.193  12.724   9.598 -0.0848 -0.1879 -0.3345
  513POPI   C2B 8126   6.185  12.718   9.133  0.0206  0.0984 -0.2172
  513POPI   C3B 8127   6.355  12.770   8.718  0.2567  0.0704 -0.5651
  513POPI   C4B 8128   6.224  12.778   8.375  0.0906 -0.1763 -0.1417
  514POPI    C1 8129   6.646   7.914  10.821 -0.0216  0.0567 -0.1557
  514POPI    C2 8130   6.523   8.241  11.017  0.0808  0.0514 -0.0814
  514POPI    C3 8131   6.873   8.071  11.111  0.0848 -0.0088 -0.2028
  514POPI   PO4 8132   6.470   7.979  10.556  0.0558  0.0920 -0.2630
  514POPI   GL1 8133   6.330   7.915  10.137  0.2357 -0.0050 -0.1496
  514POPI   GL2 8134   6.610   7.679  10.127  0.3365 -0.3220  0.2164
  514POPI   C1A 8135   6.202   7.916   9.683  0.1900 -0.1361  0.1158
  514POPI   D2A 8136   6.231   7.846   9.264 -0.1760 -0.1036 -0.1462
  514POPI   C3A 8137   6.178   7.988   8.851 -0.4378 -0.4970 -0.1248
  514POPI   C4A 8138   6.141   8.071   8.404 -0.4408  0.1025  0.0175
  514POPI   C1B 8139   6.604   7.630   9.707  0.0930  0.0098  0.1137
  514POPI   C2B 8140   6.647   7.560   9.378  0.0149 -0.1745  0.1326
  514POPI   C3B 8141   6.685   7.685   9.011  0.3869  0.0204 -0.1000
  514POPI   C4B 8142   6.499   7.733   8.549  0.1545 -0.2242  0.0967
  515POPI    C1 8143  13.814  12.190  10.186  0.0294 -0.0868  0.0068
  515POPI    C2 8144  13.659  11.832  10.276  0.0654 -0.0321  0.2965
  515POPI    C3 8145  13.478  12.165  10.402  0.0803  0.0506  0.1030
  515POPI   PO4 8146  13.886  12.111   9.909 -0.0436  0.1148 -0.1904
  515POPI   GL1 8147  14.007  12.085   9.553 -0.0472 -0.0085 -0.0327
  515POPI   GL2 8148  14.278  12.171   9.511  0.1281 -0.0339 -0.3424
  515POPI   C1A 8149  14.001  12.075   9.087 -0.2336 -0.1265  0.2521
  515POPI   D2A 8150  14.051  12.122   8.566 -0.0554  0.0416  0.2152
  515POPI   C3A 8151  14.159  12.158   8.143  0.0364  0.0263 -0.3466
  515POPI   C4A 8152  14.198  12.212   7.727  0.2108  0.2302 -0.2228
  515POPI   C1B 8153  14.396  12.294   9.078  0.0775  0.3245  0.1876
  515POPI   C2B 8154  14.479  12.250   8.673 -0.0329 -0.1264 -0.0828
  515POPI   C3B 8155  14.539  12.422   8.311 -0.0817 -0.0693 -0.0497
  515POPI   C4B 8156  14.570  12.459   7.912 -0.2543  0.0899 -0.0384
  516POPI    C1 8157   6.457   0.093  10.362 -0.0774  0.2290 -0.1270
  516POPI    C2 8158   6.796  -0.054  10.516 -0.0579  0.1886 -0.2080
  516POPI    C3 8159   6.476   0.001  10.750 -0.0924 -0.0631 -0.1936
  516POPI   PO4 8160   6.521  -0.012  10.071  0.1025 -0.2877 -0.2920
  516POPI   GL1 8161   6.530  -0.375   9.794  0.1498  0.0349 -0.4101
  516POPI   GL2 8162   6.286  -0.364   9.612  0.3499  0.2333 -0.0101
  516POPI   C1A 8163   6.612  -0.278   9.262  0.0354 -0.2973 -0.0724
  516POPI   D2A 8164   6.440  -0.215   8.945 -0.0785  0.0010  0.0062
  516POPI   C3A 8165   6.168  -0.263   8.731 -0.0693 -0.1620 -0.0878
  516POPI   C4A 8166   6.046   0.007   8.376 -0.0786  0.1437  0.2056
  516POPI   C1B 8167   6.106  -0.484   9.266 -0.1500  0.2847  0.1630
  516POPI   C2B 8168   6.036  -0.707   8.973 -0.0667  0.0326  0.2121
  516POPI   C3B 8169   6.067  -0.704   8.612  0.0596 -0.2214  0.6238
  516POPI   C4B 8170   6.289  -0.483   8.320 -0.0429  0.2613  0.0085
  517POPI    C1 8171   0.049  16.401  10.765 -0.1821 -0.0620  0.0987
  517POPI    C2 8172   0.045  16.628  11.094  0.1977  0.0236  0.0487
  517POPI    C3 8173   0.037  16.229  11.126 -0.0114  0.0348  0.1519
  517POPI   PO4 8174   0.039  16.625  10.506 -0.1622  0.0445  0.2175
  517POPI   GL1 8175  -0.076  16.721  10.062 -0.2970 -0.1923  0.0724
  517POPI   GL2 8176  -0.228  16.466   9.973 -0.0424 -0.2393 -0.0985
  517POPI   C1A 8177   0.031  17.072   9.715  0.0334 -0.2000  0.0773
  517POPI   D2A 8178  -0.032  17.068   9.322 -0.2043  0.1187  0.2627
  517POPI   C3A 8179  -0.124  16.960   8.829  0.2681  0.2805 -0.1496
  517POPI   C4A 8180   0.105  16.909   8.523  0.2221  0.4170 -0.1002
  517POPI   C1B 8181   0.010  16.630   9.539  0.1066 -0.1365  0.0328
  517POPI   C2B 8182   0.024  16.553   9.095 -0.2095  0.0499 -0.1995
  517POPI   C3B 8183  -0.093  16.452   8.639 -0.3326  0.0864  0.2345
  517POPI   C4B 8184  -0.026  16.436   8.294 -0.1078  0.0516 -0.1150
  518POPI    C1 8185   7.518  16.764  10.521  0.2387  0.2808 -0.2243
  518POPI    C2 8186   7.127  16.802  10.594  0.2092 -0.2335 -0.0762
  518POPI    C3 8187   7.375  17.106  10.672 -0.1227  0.0039  0.0780
  518POPI   PO4 8188   7.528  16.706  10.323 -0.2387 -0.2203  0.2777
  518POPI   GL1 8189   7.705  16.844   9.922  0.2093 -0.0803 -0.1117
  518POPI   GL2 8190   8.038  16.763   9.961  0.1156  0.1215 -0.1486
  518POPI   C1A 8191   7.560  16.932   9.515 -0.2876  0.1734  0.3346
  518POPI   D2A 8192   7.616  16.770   9.094  0.2543  0.3035 -0.1500
  518POPI   C3A 8193   7.666  16.860   8.582 -0.1281  0.2833 -0.1855
  518POPI   C4A 8194   7.879  16.862   8.238 -0.0300  0.0335  0.0616
  518POPI   C1B 8195   8.010  16.572   9.533  0.0520  0.2596 -0.3888
  518POPI   C2B 8196   7.990  16.436   9.128 -0.3504  0.2408  0.0606
  518POPI   C3B 8197   8.148  16.513   8.674  0.0268  0.5422 -0.0644
  518POPI   C4B 8198   8.268  16.567   8.286  0.1149  0.2480 -0.0387
  519POPI    C1 8199   4.399   7.611  10.714 -0.0763  0.0411  0.0517
  519POPI    C2 8200   4.726   7.602  10.944 -0.1121  0.1256  0.1060
  519POPI    C3 8201   4.498   7.930  10.933 -0.2083  0.0586  0.0863
  519POPI   PO4 8202   4.425   7.596  10.452 -0.0927  0.1090  0.2636
  519POPI   GL1 8203   4.398   7.317  10.213  0.2213  0.1319 -0.1124
  519POPI   GL2 8204   4.407   7.077  10.008 -0.0016  0.2986 -0.0703
  519POPI   C1A 8205   4.396   7.491   9.792  0.0971  0.0231  0.0599
  519POPI   D2A 8206   4.376   7.597   9.349  0.5682  0.0972 -0.1332
  519POPI   C3A 8207   4.279   7.319   9.087 -0.0201 -0.0749  0.1140
  519POPI   C4A 8208   4.438   7.328   8.698 -0.2075 -0.0067  0.1028
  519POPI   C1B 8209   4.325   6.970   9.612  0.1024 -0.1417  0.1346
  519POPI   C2B 8210   4.243   6.715   9.289 -0.1499 -0.0104  0.0555
  519POPI   C3B 8211   4.351   6.838   8.906  0.0138 -0.3354  0.0131
  519POPI   C4B 8212   4.445   6.774   8.475 -0.1448 -0.0820  0.1699
  520POPI    C1 8213  17.484   5.207  10.807 -0.3076 -0.0105  0.0242
  520POPI    C2 8214  17.371   4.907  11.047  0.0005 -0.0417  0.1350
  520POPI    C3 8215  17.636   5.177  11.176  0.0682  0.0183 -0.1243
  520POPI   PO4 8216  17.515   5.113  10.474 -0.2866 -0.0264 -0.2316
  520POPI   GL1 8217  17.725   4.808  10.295 -0.0953 -0.0708  0.1575
  520POPI   GL2 8218  17.509   4.672  10.071  0.1920 -0.1177  0.1599
  520POPI   C1A 8219  17.929   4.816   9.834 -0.3354 -0.2387 -0.2543
  520POPI   D2A 8220  17.896   4.984   9.419 -0.0784  0.3243  0.1740
  520POPI   C3A 8221  17.954   4.763   8.987  0.1583  0.0712 -0.0267
  520POPI   C4A 8222  18.268   4.584   8.624 -0.1596  0.0303 -0.1280
  520POPI   C1B 8223  17.490   4.824   9.670 -0.0350 -0.0493  0.0151
  520POPI   C2B 8224  17.508   4.739   9.239  0.2077 -0.1626  0.2756
  520POPI   C3B 8225  17.538   4.499   8.954 -0.0225  0.1469  0.1620
  520POPI   C4B 8226  17.784   4.437   8.471  0.0294  0.2978  0.0273
  521POPI    C1 8227   9.176   1.278  10.173  0.2703 -0.2657  0.0055
  521POPI    C2 8228   9.152   1.317  10.571  0.2092  0.0378 -0.0255
  521POPI    C3 8229   9.282   0.974  10.411 -0.0075 -0.1768  0.2485
  521POPI   PO4 8230   9.258   1.496  10.096  0.1136 -0.0839 -0.2601
  521POPI   GL1 8231   9.313   1.712   9.733  0.0999  0.2130 -0.0274
  521POPI   GL2 8232   9.111   1.994   9.656  0.0294 -0.1545 -0.1067
  521POPI   C1A 8233   9.651   2.080   9.573  0.0552  0.3003 -0.1934
  521POPI   D2A 8234   9.710   2.428   9.329 -0.0272  0.0887 -0.2903
  521POPI   C3A 8235   9.749   2.290   8.954 -0.0793  0.0198  0.2098
  521POPI   C4A 8236   9.636   2.183   8.523 -0.2642 -0.3863  0.1021
  521POPI   C1B 8237   9.309   1.822   9.266 -0.0837 -0.0151 -0.1407
  521POPI   C2B 8238   9.358   1.859   8.791 -0.3260  0.1733 -0.2557
  521POPI   C3B 8239   9.333   1.804   8.353  0.1215  0.0283 -0.1693
  521POPI   C4B 8240   9.427   1.504   7.992 -0.0670 -0.4306  0.1360
  522POPI    C1 8241   9.853   0.321  10.573 -0.0759  0.1110  0.1639
  522POPI    C2 8242   9.545   0.556  10.472 -0.1851 -0.1632 -0.1601
  522POPI    C3 8243   9.480   0.214  10.670 -0.0529 -0.0537  0.0756
  522POPI   PO4 8244   9.998   0.370  10.362  0.0984 -0.2248  0.0732
  522POPI   GL1 8245  10.108   0.327   9.905 -0.3320  0.0364  0.0982
  522POPI   GL2 8246   9.832   0.335   9.883 -0.0495 -0.1198 -0.2509
  522POPI   C1A 8247  10.405   0.175   9.622  0.0701  0.0860  0.0328
  522POPI   D2A 8248  10.461   0.185   9.190 -0.1789 -0.0322 -0.2405
  522POPI   C3A 8249  10.539   0.551   8.948 -0.0972 -0.2061 -0.1332
  522POPI   C4A 8250  10.596   0.658   8.580  0.0660  0.0784  0.1350
  522POPI   C1B 8251   9.633   0.248   9.449  0.2914 -0.1117  0.2628
  522POPI   C2B 8252   9.455   0.289   9.099 -0.1366  0.0132 -0.0025
  522POPI   C3B 8253   9.339   0.127   8.805  0.1338 -0.0437  0.1839
  522POPI   C4B 8254   9.303  -0.135   8.454  0.1190 -0.0735 -0.1319
  523POPI    C1 8255  15.342  11.926  10.457 -0.0520 -0.2569 -0.1040
  523POPI    C2 8256  15.009  11.888  10.676  0.0567  0.0206  0.1170
  523POPI    C3 8257  15.334  12.056  10.836  0.2186 -0.0006 -0.1830
  523POPI   PO4 8258  15.257  11.937  10.234  0.0737 -0.2178  0.0112
  523POPI   GL1 8259  15.104  11.827   9.799  0.0682  0.2739  0.1017
  523POPI   GL2 8260  14.827  11.731   9.738 -0.3544 -0.1288 -0.2150
  523POPI   C1A 8261  15.254  11.781   9.389  0.0216  0.2417 -0.1765
  523POPI   D2A 8262  15.083  11.591   9.032  0.0418  0.0490 -0.4243
  523POPI   C3A 8263  15.232  11.570   8.665  0.2060  0.0899 -0.1748
  523POPI   C4A 8264  15.282  11.327   8.320  0.4341  0.3401  0.1514
  523POPI   C1B 8265  14.788  11.972   9.351  0.2209  0.0908  0.2314
  523POPI   C2B 8266  14.868  12.014   8.916  0.1359 -0.2130  0.0379
  523POPI   C3B 8267  14.944  12.056   8.518  0.0404 -0.3158  0.1457
  523POPI   C4B 8268  14.827  12.098   8.085  0.3083 -0.2117  0.2557
  524DPPI    C1 8269   6.893  12.709  10.855  0.1076 -0.1814  0.2321
  524DPPI    C2 8270   6.762  12.337  10.922 -0.3330 -0.0766 -0.0138
  524DPPI    C3 8271   6.607  12.644  11.127 -0.0147 -0.0182  0.1444
  524DPPI   PO4 8272   6.999  12.621  10.555  0.0103 -0.0065 -0.1038
  524DPPI   GL1 8273   7.130  12.908  10.121 -0.1637 -0.2309 -0.0375
  524DPPI   GL2 8274   7.509  12.836  10.220 -0.1845 -0.2208 -0.0160
  524DPPI   C1A 8275   7.242  12.787   9.765 -0.0506 -0.1559  0.1876
  524DPPI   C2A 8276   7.148  12.721   9.403 -0.1503 -0.0588  0.0989
  524DPPI   C3A 8277   7.211  12.699   8.914 -0.1060 -0.0208  0.0577
  524DPPI   C4A 8278   7.181  12.767   8.513  0.0013  0.1724  0.1167
  524DPPI   C1B 8279   7.661  13.129   9.817  0.1990  0.4119  0.1267
  524DPPI   C2B 8280   7.623  13.026   9.352 -0.2134  0.1025  0.2736
  524DPPI   C3B 8281   7.606  13.068   8.915 -0.0785  0.0291 -0.0412
  524DPPI   C4B 8282   7.716  13.027   8.489 -0.3018 -0.0399  0.0854
  525DPPI    C1 8283   2.867   3.195  10.732  0.2288  0.1604  0.1255
  525DPPI    C2 8284   2.832   2.843  10.918 -0.0485  0.1860  0.1253
  525DPPI    C3 8285   2.974   3.160  11.116  0.0098  0.1237  0.1843
  525DPPI   PO4 8286   2.680   3.149  10.555 -0.0884  0.2569 -0.3052
  525DPPI   GL1 8287   2.662   3.417  10.255  0.1616 -0.0090  0.3718
  525DPPI   GL2 8288   2.946   3.492   9.990  0.1842 -0.0990  0.2855
  525DPPI   C1A 8289   2.510   3.245   9.872 -0.0856  0.2595  0.3460
  525DPPI   C2A 8290   2.330   3.255   9.388  0.3764 -0.0235 -0.4338
  525DPPI   C3A 8291   2.410   3.314   8.943 -0.2135  0.1006 -0.2045
  525DPPI   C4A 8292   2.285   3.276   8.508 -0.0500  0.1828  0.1359
  525DPPI   C1B 8293   2.862   3.518   9.524  0.0071  0.1347  0.0106
  525DPPI   C2B 8294   2.898   3.511   9.173 -0.1690  0.0688 -0.3457
  525DPPI   C3B 8295   2.816   3.482   8.716 -0.0041 -0.1456  0.1019
  525DPPI   C4B 8296   2.962   3.472   8.326  0.1084 -0.1876 -0.5069
  526DPPI    C1 8297  17.074   7.929  10.489  0.0145 -0.0381  0.0537
  526DPPI    C2 8298  17.089   8.077  10.860 -0.1082  0.0733  0.0145
  526DPPI    C3 8299  17.218   8.296  10.551 -0.0802  0.0115 -0.0176
  526DPPI   PO4 8300  17.240   7.703  10.454  0.2686  0.1631  0.0671
  526DPPI   GL1 8301  17.391   7.758  10.039 -0.0546 -0.1443 -0.0473
  526DPPI   GL2 8302  17.690   7.595   9.921 -0.1423  0.0721 -0.1966
  526DPPI   C1A 8303  17.403   7.779   9.577  0.1346  0.0390  0.0990
  526DPPI   C2A 8304  17.479   7.812   9.128 -0.1552 -0.2398  0.3153
  526DPPI   C3A 8305  17.499   7.723   8.720  0.0624  0.3862  0.0803
  526DPPI   C4A 8306  17.379   7.831   8.443  0.0445  0.1816 -0.1775
  526DPPI   C1B 8307  17.865   7.527   9.466 -0.0345  0.0809  0.0578
  526DPPI   C2B 8308  18.018   7.478   9.037 -0.0872 -0.1202  0.0834
  526DPPI   C3B 8309  17.941   7.370   8.627  0.1188  0.1714 -0.1929
  526DPPI   C4B 8310  17.675   7.474   8.238 -0.4887  0.0954  0.0008
  527DPPI    C1 8311  17.938   7.823  10.690 -0.1272 -0.3296 -0.3851
  527DPPI    C2 8312  17.553   7.853  10.793 -0.0277  0.1052 -0.1118
  527DPPI    C3 8313  17.811   7.671  11.037 -0.0315 -0.0606 -0.2294
  527DPPI   PO4 8314  18.054   8.032  10.643 -0.3141 -0.0171 -0.0702
  527DPPI   GL1 8315  18.125   8.320  10.224 -0.0054  0.1022 -0.2630
  527DPPI   GL2 8316  18.048   8.597   9.976 -0.3086 -0.0190 -0.0005
  527DPPI   C1A 8317  17.918   8.135   9.861  0.0957  0.1612 -0.1898
  527DPPI   C2A 8318  18.002   8.034   9.398  0.1111  0.2572  0.2929
  527DPPI   C3A 8319  17.948   7.977   8.957  0.5462  0.1259  0.2887
  527DPPI   C4A 8320  17.916   7.843   8.581  0.0877  0.0126  0.3795
  527DPPI   C1B 8321  17.959   8.598   9.534  0.1248 -0.2057  0.3881
  527DPPI   C2B 8322  17.975   8.584   9.084  0.0994 -0.0670  0.0565
  527DPPI   C3B 8323  17.929   8.507   8.687 -0.0586  0.2028 -0.1777
  527DPPI   C4B 8324  17.958   8.534   8.308  0.0055 -0.2484 -0.0565
  528DPPI    C1 8325   0.502   3.414  11.421  0.1486 -0.0516 -0.0417
  528DPPI    C2 8326   0.357   3.041  11.427  0.1619 -0.0572 -0.0719
  528DPPI    C3 8327   0.201   3.320  11.667  0.2193 -0.1074  0.0242
  528DPPI   PO4 8328   0.546   3.434  11.060  0.2193  0.0531 -0.1276
  528DPPI   GL1 8329   0.494   3.391  10.605 -0.0261  0.0161 -0.1249
  528DPPI   GL2 8330   0.647   3.653  10.480 -0.2266 -0.2020  0.1334
  528DPPI   C1A 8331   0.602   3.189  10.166  0.0485 -0.1876 -0.0565
  528DPPI   C2A 8332   0.529   3.226   9.796 -0.0927  0.1922  0.1506
  528DPPI   C3A 8333   0.516   3.094   9.313 -0.4669  0.0378  0.0333
  528DPPI   C4A 8334   0.582   3.116   8.896 -0.3629  0.3089 -0.0581
  528DPPI   C1B 8335   0.595   3.731  10.083 -0.0420 -0.4081 -0.4300
  528DPPI   C2B 8336   0.546   3.713   9.639  0.1361 -0.1530 -0.2231
  528DPPI   C3B 8337   0.584   3.625   9.187 -0.2134 -0.1827  0.0520
  528DPPI   C4B 8338   0.553   3.644   8.801 -0.0874  0.1180  0.1256
  529DPPI    C1 8339   8.237   4.296  10.485 -0.2565 -0.1056  0.1078
  529DPPI    C2 8340   8.473   4.095  10.739 -0.1110 -0.4648 -0.2981
  529DPPI    C3 8341   8.090   4.164  10.833  0.0490 -0.2086  0.2016
  529DPPI   PO4 8342   8.273   4.187  10.227  0.1970  0.2556 -0.1377
  529DPPI   GL1 8343   8.239   4.289   9.853 -0.1023  0.0773 -0.1233
  529DPPI   GL2 8344   8.462   4.468   9.626  0.2073  0.0510  0.5204
  529DPPI   C1A 8345   8.015   4.289   9.448  0.0895  0.0383 -0.1422
  529DPPI   C2A 8346   8.083   4.244   9.025  0.0426  0.3378  0.2323
  529DPPI   C3A 8347   8.035   4.249   8.497  0.2025 -0.1924 -0.0148
  529DPPI   C4A 8348   8.041   4.282   8.023  0.0596 -0.0104 -0.0149
  529DPPI   C1B 8349   8.485   4.506   9.161 -0.4132 -0.3347 -0.1176
  529DPPI   C2B 8350   8.464   4.447   8.682 -0.0907  0.0898  0.0698
  529DPPI   C3B 8351   8.481   4.314   8.264 -0.0407 -0.0169  0.1603
  529DPPI   C4B 8352   8.406   3.947   8.087  0.1101  0.0582 -0.0265
  530DPPI    C1 8353   8.751   3.781   9.865 -0.0208  0.1294 -0.1677
  530DPPI    C2 8354   8.612   3.832  10.237 -0.1251  0.0871 -0.2004
  530DPPI    C3 8355   8.992   3.924  10.150 -0.0363 -0.1124 -0.0311
  530DPPI   PO4 8356   8.500   3.935   9.739  0.0241  0.0759 -0.1344
  530DPPI   GL1 8357   8.398   3.989   9.382 -0.0683 -0.0374 -0.0192
  530DPPI   GL2 8358   8.069   3.720   9.560 -0.2295  0.0835  0.0670
  530DPPI   C1A 8359   8.501   3.994   8.998 -0.0418  0.0105  0.0680
  530DPPI   C2A 8360   8.417   3.902   8.587  0.0399  0.2130 -0.1220
  530DPPI   C3A 8361   8.369   3.506   8.468 -0.0011 -0.1075 -0.0557
  530DPPI   C4A 8362   8.302   3.446   8.086 -0.0365  0.0265  0.0756
  530DPPI   C1B 8363   8.077   3.767   9.117 -0.0287 -0.0157 -0.2864
  530DPPI   C2B 8364   8.022   3.753   8.702  0.0438 -0.2802 -0.2227
  530DPPI   C3B 8365   7.945   3.792   8.303 -0.2998 -0.0542  0.3450
  530DPPI   C4B 8366   7.947   3.878   7.803 -0.1762 -0.2276  0.2419
  531DPPI    C1 8367   7.464   7.603  10.772  0.1695 -0.1689  0.2041
  531DPPI    C2 8368   7.405   7.885  11.049  0.0028  0.1600 -0.1556
  531DPPI    C3 8369   7.109   7.633  10.953  0.1814 -0.2122  0.2348
  531DPPI   PO4 8370   7.531   7.745  10.470 -0.0503  0.0498  0.4618
  531DPPI   GL1 8371   7.624   7.967  10.055  0.1133  0.3035  0.0285
  531DPPI   GL2 8372   7.674   8.232   9.946 -0.1188 -0.1007  0.1504
  531DPPI   C1A 8373   7.706   7.752   9.644 -0.2852  0.1041  0.1016
  531DPPI   C2A 8374   7.644   7.779   9.204  0.0530  0.3514  0.3366
  531DPPI   C3A 8375   7.604   7.752   8.673  0.0129  0.0906 -0.2105
  531DPPI   C4A 8376   7.465   7.617   8.313  0.2843 -0.1854 -0.0999
  531DPPI   C1B 8377   7.654   8.231   9.447 -0.0073  0.1394 -0.0792
  531DPPI   C2B 8378   7.556   8.232   8.993 -0.1454  0.1306 -0.0933
  531DPPI   C3B 8379   7.556   8.262   8.620 -0.3580 -0.2583  0.0406
  531DPPI   C4B 8380   7.473   8.122   8.260  0.0388  0.2884  0.0770
  532DPPI    C1 8381   2.174   0.554  10.566  0.1020 -0.2365 -0.1501
  532DPPI    C2 8382   2.153   0.313  10.884  0.1531 -0.4160 -0.2809
  532DPPI    C3 8383   2.398   0.629  10.889 -0.1379 -0.1876  0.0072
  532DPPI   PO4 8384   2.153   0.354  10.386  0.1968 -0.0834  0.2260
  532DPPI   GL1 8385   2.025   0.130  10.043 -0.0101 -0.1225 -0.3341
  532DPPI   GL2 8386   1.954   0.352   9.773 -0.1490 -0.0989 -0.2773
  532DPPI   C1A 8387   2.376   0.107   9.645 -0.2648  0.1023  0.1843
  532DPPI   C2A 8388   2.675   0.055   9.319  0.3131  0.0781  0.1421
  532DPPI   C3A 8389   2.597   0.308   8.957  0.0545  0.4123  0.2834
  532DPPI   C4A 8390   2.635   0.455   8.527  0.1979 -0.0389  0.1102
  532DPPI   C1B 8391   1.824   0.456   9.385  0.2993  0.2177  0.0193
  532DPPI   C2B 8392   1.797   0.419   8.937  0.2881  0.1535 -0.2369
  532DPPI   C3B 8393   1.869   0.448   8.454  0.2001  0.1567 -0.0856
  532DPPI   C4B 8394   1.693   0.429   7.982 -0.2712  0.1373  0.1081
  533DPPI    C1 8395  13.743   0.268  11.026 -0.0916 -0.0026  0.1948
  533DPPI    C2 8396  13.793   0.595  11.251  0.2155  0.0767  0.0169
  533DPPI    C3 8397  13.889   0.236  11.397  0.1618  0.0983  0.1061
  533DPPI   PO4 8398  13.648   0.369  10.799  0.0845  0.0873 -0.0623
  533DPPI   GL1 8399  13.681   0.546  10.435 -0.0063  0.0911 -0.2505
  533DPPI   GL2 8400  13.900   0.761  10.481 -0.3808 -0.2962 -0.2257
  533DPPI   C1A 8401  13.576   0.439  10.120  0.0788 -0.1379 -0.0945
  533DPPI   C2A 8402  13.676   0.398   9.794 -0.1167  0.5821 -0.1110
  533DPPI   C3A 8403  13.629   0.501   9.342  0.0938  0.0035  0.0975
  533DPPI   C4A 8404  13.665   0.581   8.934 -0.1137  0.1479 -0.0558
  533DPPI   C1B 8405  13.964   0.795  10.074  0.0878 -0.4076 -0.0467
  533DPPI   C2B 8406  13.983   0.810   9.658  0.0904  0.2264 -0.1088
  533DPPI   C3B 8407  14.065   0.745   9.219  0.0166  0.1818 -0.5399
  533DPPI   C4B 8408  14.139   0.751   8.695 -0.2779  0.0280  0.1106
  534DPPI    C1 8409  13.554   7.376  10.419  0.2545  0.0431 -0.3691
  534DPPI    C2 8410  13.288   7.511  10.152 -0.0334  0.0211 -0.0989
  534DPPI    C3 8411  13.313   7.681  10.514  0.0226 -0.2547  0.0293
  534DPPI   PO4 8412  13.767   7.415  10.364  0.1847 -0.0614  0.2024
  534DPPI   GL1 8413  13.879   7.465   9.897  0.1593 -0.3481  0.0635
  534DPPI   GL2 8414  13.677   7.318   9.901  0.0501  0.0245 -0.0306
  534DPPI   C1A 8415  13.746   7.453   9.457  0.1465 -0.0066 -0.0786
  534DPPI   C2A 8416  13.830   7.342   9.055 -0.0740 -0.0372 -0.0365
  534DPPI   C3A 8417  13.873   7.178   8.557  0.1041  0.0996  0.0328
  534DPPI   C4A 8418  13.996   6.980   8.114  0.0613 -0.0293 -0.2209
  534DPPI   C1B 8419  13.702   7.001   9.683  0.0390  0.1683 -0.1199
  534DPPI   C2B 8420  13.817   6.919   9.298  0.0019  0.1387 -0.2171
  534DPPI   C3B 8421  13.909   6.810   8.868  0.1930  0.0339  0.1798
  534DPPI   C4B 8422  13.924   6.590   8.439  0.1960  0.1309  0.0480
  535DPPI    C1 8423   7.869  11.258  10.849 -0.2041 -0.1278 -0.0883
  535DPPI    C2 8424   7.478  11.289  10.930 -0.1472  0.3102  0.0475
  535DPPI    C3 8425   7.748  11.347  11.220  0.0249  0.2343 -0.0952
  535DPPI   PO4 8426   7.818  11.245  10.568 -0.0428 -0.1684  0.0777
  535DPPI   GL1 8427   7.731  11.413  10.140  0.0725 -0.0561 -0.3384
  535DPPI   GL2 8428   7.410  11.537   9.959 -0.1240 -0.1612 -0.3155
  535DPPI   C1A 8429   7.943  11.212   9.840 -0.1459  0.3738  0.0805
  535DPPI   C2A 8430   8.008  11.144   9.337 -0.0214  0.1505 -0.0814
  535DPPI   C3A 8431   8.113  11.160   8.892  0.4118  0.4818 -0.0719
  535DPPI   C4A 8432   8.096  11.248   8.495 -0.2691  0.3918 -0.2028
  535DPPI   C1B 8433   7.544  11.366   9.594  0.0759  0.0146 -0.4110
  535DPPI   C2B 8434   7.556  11.352   9.243  0.1320  0.0170 -0.0057
  535DPPI   C3B 8435   7.627  11.448   8.848  0.0154 -0.2969 -0.0945
  535DPPI   C4B 8436   7.568  11.475   8.509  0.3781 -0.1404  0.2138
  536DPPI    C1 8437   4.148  18.013  10.489 -0.0787  0.0064  0.0747
  536DPPI    C2 8438   4.204  17.650  10.647  0.0205 -0.0109  0.0007
  536DPPI    C3 8439   3.911  17.885  10.785 -0.1169 -0.1634 -0.0276
  536DPPI   PO4 8440   4.089  17.996  10.252  0.1448  0.0347 -0.1052
  536DPPI   GL1 8441   4.212  17.953   9.831 -0.2537  0.3824  0.1173
  536DPPI   GL2 8442   4.402  17.674   9.795  0.1879  0.0699 -0.0132
  536DPPI   C1A 8443   4.275  18.047   9.376  0.1004 -0.2397  0.0736
  536DPPI   C2A 8444   4.331  17.929   8.943  0.4875  0.0493 -0.1102
  536DPPI   C3A 8445   4.166  17.760   8.564  0.0069 -0.0344 -0.2021
  536DPPI   C4A 8446   4.366  17.258   8.376  0.1229 -0.0596  0.4265
  536DPPI   C1B 8447   4.397  17.558   9.350  0.1091 -0.1107  0.1566
  536DPPI   C2B 8448   4.486  17.425   8.892  0.0427 -0.1970 -0.0591
  536DPPI   C3B 8449   4.826  17.229   8.657 -0.3007 -0.2384  0.1012
  536DPPI   C4B 8450   4.780  17.009   8.228  0.0118 -0.0621 -0.0908
  537DPPI    C1 8451   8.648   9.891  10.796 -0.0406 -0.0219 -0.3026
  537DPPI    C2 8452   8.987  10.045  10.941 -0.1646  0.0548 -0.0883
  537DPPI    C3 8453   8.858   9.690  11.071  0.0168 -0.1434 -0.4340
  537DPPI   PO4 8454   8.800   9.941  10.512  0.0835 -0.1503  0.0633
  537DPPI   GL1 8455   8.609   9.621  10.172 -0.1194 -0.0452 -0.4822
  537DPPI   GL2 8456   8.574  10.053  10.031 -0.1803  0.0093 -0.2204
  537DPPI   C1A 8457   8.529   9.629   9.763 -0.2394 -0.2536  0.1438
  537DPPI   C2A 8458   8.536   9.762   9.287  0.0117 -0.0812  0.1466
  537DPPI   C3A 8459   8.604   9.759   8.919 -0.0212  0.2005 -0.0895
  537DPPI   C4A 8460   8.598   9.874   8.538 -0.2091  0.1219  0.1008
  537DPPI   C1B 8461   8.534  10.156   9.597  0.1404  0.1829 -0.2914
  537DPPI   C2B 8462   8.580  10.349   9.170 -0.3066 -0.2780 -0.1297
  537DPPI   C3B 8463   8.521  10.405   8.774 -0.1991  0.1778 -0.0027
  537DPPI   C4B 8464   8.552  10.406   8.315  0.0916 -0.0715 -0.1089
  538DPPI    C1 8465   2.704   8.894  10.621  0.0895 -0.0363 -0.0765
  538DPPI    C2 8466   2.994   8.981  10.360 -0.0481  0.2427 -0.1407
  538DPPI    C3 8467   3.000   9.141  10.727  0.2344 -0.2783  0.0941
  538DPPI   PO4 8468   2.639   8.655  10.572 -0.1819 -0.3430 -0.2502
  538DPPI   GL1 8469   2.651   8.292  10.205  0.0908 -0.2876  0.2041
  538DPPI   GL2 8470   2.890   8.490  10.174 -0.1641 -0.4367 -0.1269
  538DPPI   C1A 8471   2.558   7.954   9.953  0.2628 -0.0205 -0.3438
  538DPPI   C2A 8472   2.439   7.948   9.520 -0.1101  0.0090  0.0156
  538DPPI   C3A 8473   2.519   7.979   9.176 -0.1275  0.0345 -0.2184
  538DPPI   C4A 8474   2.528   7.776   8.773 -0.2077 -0.0430 -0.0523
  538DPPI   C1B 8475   2.912   8.771   9.879 -0.2107  0.0107  0.1449
  538DPPI   C2B 8476   2.633   8.913   9.629 -0.0817  0.0781 -0.0025
  538DPPI   C3B 8477   2.619   9.011   9.190  0.0000  0.0978 -0.1319
  538DPPI   C4B 8478   2.450   9.002   8.732 -0.1803  0.0196 -0.4056
  539DPPI    C1 8479   2.329  16.440  10.608 -0.1673 -0.2901  0.0435
  539DPPI    C2 8480   2.151  16.760  10.768 -0.0421 -0.0336 -0.3174
  539DPPI    C3 8481   1.968  16.405  10.778 -0.0647 -0.0162  0.3272
  539DPPI   PO4 8482   2.368  16.530  10.363 -0.3049  0.0991  0.3181
  539DPPI   GL1 8483   2.358  16.328  10.019  0.3592  0.1346 -0.5049
  539DPPI   GL2 8484   2.388  16.040   9.901 -0.0431 -0.0302  0.0763
  539DPPI   C1A 8485   2.194  16.428   9.601 -0.2515  0.3637  0.0493
  539DPPI   C2A 8486   2.168  16.480   9.187  0.1302 -0.3118  0.1096
  539DPPI   C3A 8487   2.283  16.503   8.813  0.0772 -0.1577  0.0360
  539DPPI   C4A 8488   2.156  16.631   8.380 -0.2630  0.2314 -0.2659
  539DPPI   C1B 8489   2.491  16.000   9.406 -0.0384  0.0439 -0.1250
  539DPPI   C2B 8490   2.549  16.075   8.997 -0.1149 -0.1519 -0.2344
  539DPPI   C3B 8491   2.554  15.897   8.586  0.1548 -0.0404  0.1411
  539DPPI   C4B 8492   2.718  15.853   8.151  0.1039 -0.0113  0.2811
  540DPPI    C1 8493   3.616  10.234  10.857  0.0088 -0.0751  0.1373
  540DPPI    C2 8494   3.845  10.040  11.121 -0.1807 -0.2085  0.2058
  540DPPI    C3 8495   3.636   9.834  10.849  0.1855 -0.0633 -0.1967
  540DPPI   PO4 8496   3.689  10.499  10.686  0.4848  0.3217  0.1128
  540DPPI   GL1 8497   3.569  10.444  10.264  0.0620  0.1216  0.1544
  540DPPI   GL2 8498   3.402  10.310   9.991  0.1605 -0.3996  0.2802
  540DPPI   C1A 8499   3.871  10.518   9.846 -0.1034  0.0309 -0.0026
  540DPPI   C2A 8500   3.927  10.510   9.491 -0.3583  0.0132 -0.3692
  540DPPI   C3A 8501   3.914  10.340   9.022  0.0761 -0.1397  0.0145
  540DPPI   C4A 8502   3.837  10.382   8.574  0.3345  0.4100  0.1416
  540DPPI   C1B 8503   3.173  10.079   9.663  0.0900 -0.0005 -0.1509
  540DPPI   C2B 8504   3.185  10.093   9.267 -0.1211 -0.1152  0.3843
  540DPPI   C3B 8505   3.513  10.086   8.883 -0.1830  0.1270 -0.1559
  540DPPI   C4B 8506   3.386  10.124   8.445 -0.4213  0.0540 -0.3272
  541DPPI    C1 8507   8.603   8.061  10.595  0.1052 -0.1181  0.1528
  541DPPI    C2 8508   8.978   8.152  10.699 -0.0373  0.2200  0.3894
  541DPPI    C3 8509   8.726   8.441  10.586 -0.2157 -0.0101  0.1871
  541DPPI   PO4 8510   8.618   7.870  10.398 -0.4746 -0.2868  0.0131
  541DPPI   GL1 8511   8.402   7.799   9.999  0.2211 -0.1083  0.1257
  541DPPI   GL2 8512   8.696   7.824   9.901 -0.1747  0.1151  0.3440
  541DPPI   C1A 8513   8.150   8.014   9.853  0.0194  0.2391  0.0306
  541DPPI   C2A 8514   8.133   8.024   9.473 -0.1766  0.1618 -0.3124
  541DPPI   C3A 8515   8.001   8.053   9.071  0.0728 -0.1084 -0.0793
  541DPPI   C4A 8516   8.016   8.119   8.566  0.3130  0.3018 -0.0904
  541DPPI   C1B 8517   8.572   7.728   9.479  0.1023 -0.1882 -0.3974
  541DPPI   C2B 8518   8.422   7.759   9.053  0.1059  0.2162  0.0182
  541DPPI   C3B 8519   8.411   7.831   8.727  0.2796 -0.1014  0.1792
  541DPPI   C4B 8520   8.329   7.720   8.347 -0.0016 -0.0174 -0.1347
  542DPPI    C1 8521   7.935   0.831  10.038  0.0573  0.1657 -0.1502
  542DPPI    C2 8522   7.692   0.531  10.143  0.0668  0.1481 -0.1788
  542DPPI    C3 8523   7.942   0.688  10.412 -0.0902  0.2747 -0.1047
  542DPPI   PO4 8524   7.964   0.769   9.797 -0.1159 -0.0213 -0.0643
  542DPPI   GL1 8525   7.735   0.945   9.409 -0.1459 -0.0161 -0.0492
  542DPPI   GL2 8526   8.099   0.930   9.387 -0.1749  0.1861 -0.5379
  542DPPI   C1A 8527   7.665   0.881   9.008  0.0401  0.1269 -0.1181
  542DPPI   C2A 8528   7.575   0.898   8.542  0.0505 -0.0399 -0.3234
  542DPPI   C3A 8529   7.693   0.862   8.137  0.2061  0.0468  0.0989
  542DPPI   C4A 8530   7.629   0.882   7.789  0.1771 -0.1136 -0.2589
  542DPPI   C1B 8531   8.140   1.040   9.027 -0.3356 -0.0557 -0.0746
  542DPPI   C2B 8532   8.017   1.134   8.665 -0.3437 -0.2816 -0.0935
  542DPPI   C3B 8533   7.998   1.298   8.222  0.0558  0.2580 -0.1011
  542DPPI   C4B 8534   8.097   1.448   7.833 -0.1313  0.1719 -0.3560
  543DPPI    C1 8535   0.856  11.892  10.675  0.1018 -0.0909 -0.0806
  543DPPI    C2 8536   0.543  11.711  10.846  0.2098  0.0403  0.2642
  543DPPI    C3 8537   0.764  11.971  11.056  0.4717  0.0501 -0.0155
  543DPPI   PO4 8538   0.703  12.021  10.449 -0.0098  0.0822  0.2394
  543DPPI   GL1 8539   0.894  12.234   9.988  0.1273 -0.2135  0.2396
  543DPPI   GL2 8540   0.586  12.143   9.883  0.2622  0.0414 -0.0805
  543DPPI   C1A 8541   0.814  12.259   9.457  0.1193 -0.1147 -0.1560
  543DPPI   C2A 8542   0.837  12.297   8.957  0.0152  0.2024  0.3127
  543DPPI   C3A 8543   0.624  12.411   8.593  0.0824 -0.0926  0.2418
  543DPPI   C4A 8544   0.721  12.244   8.191 -0.0625  0.2338  0.1357
  543DPPI   C1B 8545   0.343  11.928   9.619  0.0285  0.2672 -0.4789
  543DPPI   C2B 8546   0.480  11.981   9.260  0.2156 -0.1375  0.0955
  543DPPI   C3B 8547   0.344  12.090   8.833 -0.0467 -0.2678  0.1050
  543DPPI   C4B 8548   0.196  12.087   8.432 -0.3145 -0.2222  0.0288
  544DPPI    C1 8549   9.702   9.140  10.418  0.2092 -0.1282  0.1243
  544DPPI    C2 8550   9.535   9.235  10.770  0.0407 -0.0291  0.0193
  544DPPI    C3 8551   9.563   8.851  10.658  0.1160 -0.0624  0.1502
  544DPPI   PO4 8552   9.555   9.198  10.256  0.0327 -0.0100  0.0959
  544DPPI   GL1 8553   9.505   9.212   9.942 -0.2098 -0.0745  0.0242
  544DPPI   GL2 8554   9.494   8.875   9.734  0.2642  0.4218  0.1468
  544DPPI   C1A 8555   9.429   9.364   9.521 -0.3544 -0.0998  0.0395
  544DPPI   C2A 8556   9.427   9.402   9.086 -0.1312 -0.0118 -0.0068
  544DPPI   C3A 8557   9.449   9.378   8.664  0.1037 -0.3651  0.1688
  544DPPI   C4A 8558   9.453   9.384   8.177  0.0196 -0.0634 -0.0335
  544DPPI   C1B 8559   9.444   8.914   9.245  0.0496 -0.2211 -0.1203
  544DPPI   C2B 8560   9.493   8.864   8.692  0.2132  0.0488  0.1281
  544DPPI   C3B 8561   9.395   8.844   8.300  0.1298  0.1873 -0.1586
  544DPPI   C4B 8562   9.198   8.611   8.015 -0.0853  0.1553  0.3383
  545DPPI    C1 8563  18.098  12.248  11.016 -0.1414 -0.1290 -0.0269
  545DPPI    C2 8564  18.392  12.010  11.147 -0.0033  0.0910  0.0704
  545DPPI    C3 8565  18.018  11.958  11.280  0.0369 -0.0306  0.1379
  545DPPI   PO4 8566  18.168  12.322  10.692  0.3078 -0.0212  0.0087
  545DPPI   GL1 8567  18.073  12.108  10.248  0.0521  0.0818  0.1752
  545DPPI   GL2 8568  17.786  11.872  10.180 -0.0089 -0.0837  0.0493
  545DPPI   C1A 8569  18.166  12.266   9.848 -0.1952 -0.2015  0.0329
  545DPPI   C2A 8570  18.024  12.338   9.429  0.1566  0.0157  0.2250
  545DPPI   C3A 8571  17.979  12.274   8.977  0.0391 -0.2772 -0.0691
  545DPPI   C4A 8572  18.011  12.287   8.613 -0.0745 -0.3328 -0.2319
  545DPPI   C1B 8573  17.711  12.000   9.726  0.1043 -0.2623 -0.0905
  545DPPI   C2B 8574  17.529  12.011   9.342 -0.1195 -0.1904  0.2776
  545DPPI   C3B 8575  17.600  12.005   8.858 -0.3095 -0.1265  0.3841
  545DPPI   C4B 8576  17.497  12.082   8.412 -0.0027  0.2254  0.2656
  546DPPI    C1 8577  14.400   3.708  10.596  0.1186 -0.0932 -0.1372
  546DPPI    C2 8578  14.404   3.817  10.981 -0.1337 -0.0332 -0.1499
  546DPPI    C3 8579  14.687   3.951  10.732  0.1707 -0.2644  0.0646
  546DPPI   PO4 8580  14.509   3.461  10.576  0.1456 -0.3717 -0.2139
  546DPPI   GL1 8581  14.420   3.411  10.226  0.0503 -0.2898  0.0941
  546DPPI   GL2 8582  14.160   3.405  10.127  0.0728  0.0371 -0.2162
  546DPPI   C1A 8583  14.620   3.509   9.847  0.0548 -0.4461  0.3495
  546DPPI   C2A 8584  14.656   3.573   9.382 -0.1281 -0.1265 -0.3351
  546DPPI   C3A 8585  14.766   3.520   8.910 -0.1642 -0.0946 -0.1207
  546DPPI   C4A 8586  14.846   3.708   8.558 -0.2845  0.0969 -0.0801
  546DPPI   C1B 8587  14.089   3.373   9.764 -0.1907  0.0275  0.4489
  546DPPI   C2B 8588  14.135   3.385   9.321  0.3043  0.0522 -0.0354
  546DPPI   C3B 8589  14.325   3.323   8.977 -0.2535 -0.1917 -0.0106
  546DPPI   C4B 8590  14.392   3.326   8.601  0.1238  0.1220 -0.1283
  547DPPI    C1 8591  11.725   6.637  10.167  0.0811  0.2274 -0.0645
  547DPPI    C2 8592  11.505   6.414  10.415 -0.0925  0.0060 -0.4086
  547DPPI    C3 8593  11.671   6.753  10.546 -0.1703 -0.1102  0.0084
  547DPPI   PO4 8594  11.446   6.560   9.923  0.1276  0.3501 -0.2004
  547DPPI   GL1 8595  11.383   6.398   9.534 -0.0686 -0.1878  0.0092
  547DPPI   GL2 8596  11.334   6.067   9.639  0.1143  0.1516  0.0325
  547DPPI   C1A 8597  11.449   6.488   9.179 -0.0884 -0.2446 -0.4543
  547DPPI   C2A 8598  11.456   6.471   8.747  0.0754  0.2884 -0.2507
  547DPPI   C3A 8599  11.406   6.435   8.299  0.0851  0.1447 -0.0828
  547DPPI   C4A 8600  11.212   6.232   7.929  0.0075 -0.0521  0.0068
  547DPPI   C1B 8601  11.232   6.039   9.174  0.3034  0.0515 -0.0289
  547DPPI   C2B 8602  11.421   5.878   8.728 -0.1677  0.0448  0.2255
  547DPPI   C3B 8603  11.601   5.935   8.260 -0.3995  0.0717 -0.2739
  547DPPI   C4B 8604  11.561   5.756   7.789  0.1119 -0.1870 -0.0827
  548DPPI    C1 8605   9.259   5.532  10.261  0.1150  0.2069  0.0935
  548DPPI    C2 8606   8.906   5.453  10.431  0.0929  0.1304  0.0129
  548DPPI    C3 8607   9.015   5.832  10.364 -0.0348  0.1497 -0.0897
  548DPPI   PO4 8608   9.234   5.307  10.108 -0.1031 -0.0709 -0.3872
  548DPPI   GL1 8609   9.440   5.560   9.793 -0.0504 -0.1860  0.1025
  548DPPI   GL2 8610   9.502   5.267   9.689 -0.1104 -0.0976  0.0470
  548DPPI   C1A 8611   9.375   5.687   9.403  0.0640  0.0618 -0.1343
  548DPPI   C2A 8612   9.352   5.600   8.957  0.0220  0.0605 -0.3966
  548DPPI   C3A 8613   9.324   5.626   8.573  0.2988 -0.1270  0.2679
  548DPPI   C4A 8614   9.263   5.464   8.191  0.1131 -0.0776  0.2580
  548DPPI   C1B 8615   9.335   5.158   9.219  0.2697 -0.1052  0.1179
  548DPPI   C2B 8616   9.280   5.111   8.678 -0.0738 -0.1559 -0.0378
  548DPPI   C3B 8617   9.249   4.945   8.348  0.3288 -0.1941 -0.3250
  548DPPI   C4B 8618   9.088   4.819   7.939 -0.1733  0.0190 -0.0956
  549DPPI    C1 8619   5.990  10.166  10.823 -0.1478 -0.0007 -0.1604
  549DPPI    C2 8620   5.684   9.980  11.001  0.0463 -0.1154  0.0590
  549DPPI    C3 8621   5.690  10.379  10.982 -0.0600 -0.1084  0.1573
  549DPPI   PO4 8622   6.050  10.006  10.617 -0.2505  0.1543 -0.0075
  549DPPI   GL1 8623   6.301  10.241  10.295  0.0497 -0.0055 -0.0854
  549DPPI   GL2 8624   6.459   9.949  10.293 -0.0018  0.4328  0.3209
  549DPPI   C1A 8625   6.564  10.597  10.031  0.2616  0.1003 -0.1877
  549DPPI   C2A 8626   6.738  10.807   9.571  0.0560  0.4026 -0.1982
  549DPPI   C3A 8627   6.743  10.814   9.132  0.2334  0.1102 -0.3427
  549DPPI   C4A 8628   6.673  10.857   8.779  0.2124  0.0320 -0.0326
  549DPPI   C1B 8629   6.286  10.072   9.869  0.2378  0.0125 -0.2696
  549DPPI   C2B 8630   6.298   9.961   9.386  0.3585 -0.2126  0.0972
  549DPPI   C3B 8631   6.156  10.058   8.978  0.1427 -0.0913  0.2546
  549DPPI   C4B 8632   6.228  10.045   8.506  0.2825  0.0687 -0.2189
  550DPPI    C1 8633  10.526   8.979   9.848 -0.2477 -0.2722  0.1252
  550DPPI    C2 8634  10.851   8.749   9.878 -0.0684 -0.0220  0.1309
  550DPPI    C3 8635  10.819   9.079  10.101 -0.1960  0.1090 -0.0790
  550DPPI   PO4 8636  10.329   8.808   9.845  0.1237 -0.0825 -0.0404
  550DPPI   GL1 8637  10.262   8.519   9.543  0.3739  0.0352 -0.3185
  550DPPI   GL2 8638  10.518   8.771   9.366  0.1674 -0.0479 -0.0573
  550DPPI   C1A 8639   9.984   8.576   9.210 -0.1506 -0.2390 -0.1669
  550DPPI   C2A 8640   9.902   8.566   8.837  0.2017 -0.1198  0.1308
  550DPPI   C3A 8641   9.894   8.428   8.405 -0.0354 -0.0393  0.3610
  550DPPI   C4A 8642   9.913   8.215   8.010  0.1460  0.1608 -0.3926
  550DPPI   C1B 8643  10.429   8.733   8.943  0.0412  0.0820  0.1000
  550DPPI   C2B 8644  10.309   8.662   8.556 -0.0655  0.0158  0.0239
  550DPPI   C3B 8645  10.295   8.599   8.181  0.2009  0.0118  0.0507
  550DPPI   C4B 8646  10.532   8.623   7.810  0.1750  0.1242 -0.0952
  551DPPI    C1 8647   8.532  13.334  10.717  0.1078  0.1052  0.0405
  551DPPI    C2 8648   8.781  13.051  10.853  0.0650 -0.0229 -0.1455
  551DPPI    C3 8649   8.923  13.412  10.757  0.1656 -0.0682 -0.1681
  551DPPI   PO4 8650   8.370  13.187  10.452  0.2768 -0.0087 -0.1326
  551DPPI   GL1 8651   8.420  13.151  10.058 -0.0210 -0.1023 -0.0074
  551DPPI   GL2 8652   8.097  13.197  10.047  0.0914 -0.1021 -0.1852
  551DPPI   C1A 8653   8.633  13.382   9.651  0.1160  0.2064 -0.0773
  551DPPI   C2A 8654   8.541  13.459   9.276 -0.0170 -0.2154 -0.3910
  551DPPI   C3A 8655   8.458  13.603   8.863 -0.0678 -0.2397 -0.4834
  551DPPI   C4A 8656   8.562  13.790   8.457  0.1271  0.0550  0.1395
  551DPPI   C1B 8657   8.128  13.219   9.625  0.2309  0.1864  0.2812
  551DPPI   C2B 8658   8.029  13.269   9.250 -0.2821 -0.0812 -0.0469
  551DPPI   C3B 8659   8.077  13.327   8.776  0.0239 -0.0277 -0.1639
  551DPPI   C4B 8660   8.110  13.438   8.422 -0.0082 -0.1095 -0.2033
  552DPPI    C1 8661  16.153   3.697  10.861  0.0130 -0.0061 -0.1430
  552DPPI    C2 8662  16.052   4.058  10.723  0.0165  0.0259 -0.0624
  552DPPI    C3 8663  15.797   3.854  10.953  0.0492  0.0141 -0.0366
  552DPPI   PO4 8664  16.249   3.557  10.630 -0.0782  0.1571  0.2546
  552DPPI   GL1 8665  16.400   3.775  10.363 -0.0774  0.1900  0.1511
  552DPPI   GL2 8666  16.217   3.907  10.282  0.0960 -0.0116  0.0151
  552DPPI   C1A 8667  16.624   3.637   9.997 -0.0811 -0.1570  0.1022
  552DPPI   C2A 8668  16.484   3.720   9.559  0.0924  0.0346  0.0110
  552DPPI   C3A 8669  16.491   3.607   9.200  0.0190  0.0252 -0.3282
  552DPPI   C4A 8670  16.533   3.588   8.802 -0.2207 -0.0467 -0.0057
  552DPPI   C1B 8671  16.143   3.873   9.903 -0.1057  0.3226  0.2871
  552DPPI   C2B 8672  16.059   3.894   9.445  0.2114  0.1053 -0.3465
  552DPPI   C3B 8673  16.108   3.896   8.948 -0.1375 -0.0647  0.1462
  552DPPI   C4B 8674  16.243   3.951   8.536 -0.3285 -0.0902  0.1530
  553DPPI    C1 8675   8.749   7.084  10.401 -0.0801  0.1221 -0.0989
  553DPPI    C2 8676   8.667   6.756  10.615 -0.0541  0.1805  0.0011
  553DPPI    C3 8677   8.920   7.031  10.759 -0.0209  0.2107 -0.1138
  553DPPI   PO4 8678   8.684   7.034  10.166 -0.0614 -0.0760  0.0424
  553DPPI   GL1 8679   8.779   6.794   9.748 -0.0496 -0.3154 -0.2739
  553DPPI   GL2 8680   9.010   6.518   9.729  0.1219 -0.1033 -0.2567
  553DPPI   C1A 8681   8.456   6.730   9.509  0.0790  0.0607 -0.0276
  553DPPI   C2A 8682   8.481   6.706   9.134  0.0405  0.2371 -0.0748
  553DPPI   C3A 8683   8.387   6.635   8.713  0.0577 -0.1728  0.3174
  553DPPI   C4A 8684   8.374   6.601   8.333 -0.1193  0.0467 -0.1164
  553DPPI   C1B 8685   8.837   6.438   9.340  0.1825  0.0371 -0.0017
  553DPPI   C2B 8686   8.910   6.424   8.874 -0.1436  0.1074 -0.0405
  553DPPI   C3B 8687   8.769   6.331   8.446 -0.0474  0.0346  0.1094
  553DPPI   C4B 8688   8.753   6.350   7.998  0.3045  0.3105  0.1011
  554PYPI    C1 8689  10.411  10.404  10.282  0.0113  0.2588  0.0095
  554PYPI    C2 8690  10.543  10.030  10.333 -0.2516  0.1821  0.1432
  554PYPI    C3 8691  10.509  10.275  10.648 -0.4336  0.1977  0.1127
  554PYPI   PO4 8692  10.395  10.307   9.972  0.1019  0.0823 -0.0126
  554PYPI   GL1 8693  10.168  10.416   9.621  0.1065 -0.0341 -0.0644
  554PYPI   GL2 8694  10.367  10.690   9.533  0.2970  0.0073 -0.0280
  554PYPI   C1A 8695  10.006  10.636   9.214 -0.1108  0.2165  0.2146
  554PYPI   C2A 8696   9.906  10.734   8.785  0.0225  0.1770 -0.1878
  554PYPI   D3A 8697   9.939  10.678   8.362 -0.0199 -0.0805 -0.3523
  554PYPI   C4A 8698  10.150  10.894   7.962  0.1144 -0.3303 -0.0057
  554PYPI   C1B 8699  10.454  10.740   9.133 -0.3760  0.2181 -0.1720
  554PYPI   C2B 8700  10.368  10.725   8.661 -0.0162 -0.0320 -0.0115
  554PYPI   C3B 8701  10.496  10.903   8.372 -0.0084 -0.2660  0.1182
  554PYPI   C4B 8702  10.609  10.996   7.945  0.0921 -0.1155  0.1595
  555PYPI    C1 8703  12.441   5.509  10.657  0.0257  0.2748 -0.0133
  555PYPI    C2 8704  12.096   5.634  10.496  0.1080  0.4543 -0.0523
  555PYPI    C3 8705  12.211   5.772  10.854  0.0853  0.3083  0.0117
  555PYPI   PO4 8706  12.590   5.511  10.408  0.2387 -0.0759  0.0587
  555PYPI   GL1 8707  12.458   5.388  10.044  0.0138  0.0683 -0.3120
  555PYPI   GL2 8708  12.717   5.194   9.968 -0.0839 -0.2633 -0.0938
  555PYPI   C1A 8709  12.325   5.142   9.670  0.0259  0.0340 -0.1189
  555PYPI   C2A 8710  12.449   5.148   9.246  0.2392 -0.0846  0.1982
  555PYPI   D3A 8711  12.534   5.000   8.930  0.0260  0.1099 -0.1526
  555PYPI   C4A 8712  12.943   5.170   8.918  0.1733  0.1235 -0.1711
  555PYPI   C1B 8713  12.868   5.129   9.511 -0.1252  0.0817  0.1672
  555PYPI   C2B 8714  12.970   4.752   9.251 -0.1581  0.1018  0.3231
  555PYPI   C3B 8715  13.046   4.651   8.854 -0.0693 -0.3683  0.3034
  555PYPI   C4B 8716  12.992   4.876   8.456 -0.2231  0.1765  0.1516
  556PYPI    C1 8717  10.459   1.732  10.535 -0.0009  0.0804  0.0774
  556PYPI    C2 8718  10.735   1.793  10.818  0.0801 -0.1371  0.0465
  556PYPI    C3 8719  10.347   1.825  10.908  0.1092 -0.0638  0.1473
  556PYPI   PO4 8720  10.602   1.837  10.317  0.0004  0.0718  0.0788
  556PYPI   GL1 8721  10.673   1.556   9.871  0.0060 -0.0072  0.0877
  556PYPI   GL2 8722  10.930   1.882   9.864  0.4362  0.2323 -0.2102
  556PYPI   C1A 8723  10.503   1.378   9.548 -0.2028  0.1886 -0.2482
  556PYPI   C2A 8724  10.359   1.347   9.186 -0.1757 -0.1350 -0.1695
  556PYPI   D3A 8725  10.456   1.010   8.919  0.2378 -0.1739 -0.1170
  556PYPI   C4A 8726  10.085   0.738   8.739 -0.0185 -0.1171  0.1186
  556PYPI   C1B 8727  10.936   1.654   9.478  0.0094 -0.2091 -0.2642
  556PYPI   C2B 8728  10.887   1.539   9.053  0.3040 -0.1278  0.1602
  556PYPI   C3B 8729  10.879   1.357   8.634 -0.3455 -0.0243 -0.0147
  556PYPI   C4B 8730  10.899   1.568   8.275 -0.4261  0.0941 -0.1430
  557PYPI    C1 8731   1.500   9.885  10.739  0.0862  0.0087  0.1419
  557PYPI    C2 8732   1.564   9.576  10.494  0.1384  0.0158  0.1465
  557PYPI    C3 8733   1.852   9.695  10.744  0.1877  0.1888  0.0097
  557PYPI   PO4 8734   1.446  10.105  10.528 -0.0971  0.1126  0.2172
  557PYPI   GL1 8735   1.328  10.440  10.197  0.1485 -0.1752  0.4282
  557PYPI   GL2 8736   1.300  10.720  10.101 -0.2004  0.0603  0.1137
  557PYPI   C1A 8737   1.169  10.352   9.752  0.2961  0.0168  0.0518
  557PYPI   C2A 8738   1.179  10.467   9.390  0.0653  0.2123  0.0756
  557PYPI   D3A 8739   1.188  10.434   8.983  0.2006 -0.3252 -0.1837
  557PYPI   C4A 8740   1.054  10.443   8.570 -0.0512 -0.4350 -0.2724
  557PYPI   C1B 8741   1.223  10.857   9.681  0.1727 -0.2341 -0.0404
  557PYPI   C2B 8742   1.167  10.981   9.234 -0.0608 -0.2578  0.1158
  557PYPI   C3B 8743   1.065  10.899   8.842  0.0788 -0.3501  0.0471
  557PYPI   C4B 8744   0.830  10.881   8.368 -0.1756  0.0949  0.0203
  558PYPI    C1 8745  13.151   3.508  10.808  0.2675 -0.2345  0.1479
  558PYPI    C2 8746  12.972   3.504  11.166 -0.0721  0.1139 -0.0105
  558PYPI    C3 8747  13.335   3.667  11.125 -0.0140  0.0347  0.1814
  558PYPI   PO4 8748  13.117   3.268  10.684  0.2356  0.2078 -0.0786
  558PYPI   GL1 8749  13.235   2.983  10.303  0.1707  0.1685 -0.1807
  558PYPI   GL2 8750  13.419   2.690  10.484 -0.0961  0.0594  0.0616
  558PYPI   C1A 8751  13.218   2.863   9.936  0.2381 -0.1153  0.0056
  558PYPI   C2A 8752  13.236   2.847   9.480  0.2047  0.0243  0.1838
  558PYPI   D3A 8753  13.248   2.847   9.029  0.3196 -0.0628 -0.1589
  558PYPI   C4A 8754  13.461   2.838   8.608 -0.2114 -0.0359 -0.0341
  558PYPI   C1B 8755  13.627   2.583  10.193  0.0299  0.0991 -0.0439
  558PYPI   C2B 8756  13.665   2.572   9.669  0.1432 -0.3841  0.4365
  558PYPI   C3B 8757  13.768   2.576   9.191  0.0277  0.1426 -0.4504
  558PYPI   C4B 8758  13.877   2.604   8.823 -0.0726  0.0299 -0.3092
  559PYPI    C1 8759  16.999   5.465  10.930 -0.0845 -0.0139  0.0712
  559PYPI    C2 8760  17.343   5.630  11.049 -0.0235 -0.0531 -0.0484
  559PYPI    C3 8761  17.141   5.388  11.296  0.1390 -0.1925 -0.0502
  559PYPI   PO4 8762  17.033   5.623  10.660 -0.0840  0.1722 -0.2551
  559PYPI   GL1 8763  17.215   5.477  10.223  0.0283  0.0844 -0.0327
  559PYPI   GL2 8764  16.987   5.587  10.068 -0.3555 -0.2202  0.1007
  559PYPI   C1A 8765  17.145   5.019  10.041 -0.1889 -0.0727 -0.0149
  559PYPI   C2A 8766  17.007   4.943   9.612  0.1417 -0.0865  0.1414
  559PYPI   D3A 8767  17.043   4.955   9.215 -0.0645 -0.1297 -0.3546
  559PYPI   C4A 8768  17.096   4.798   8.903 -0.0493 -0.0803  0.1056
  559PYPI   C1B 8769  16.981   5.414   9.572  0.0650  0.1256 -0.2171
  559PYPI   C2B 8770  17.029   5.478   9.199  0.2042  0.2557  0.2390
  559PYPI   C3B 8771  17.099   5.275   8.771 -0.4708  0.1069  0.0501
  559PYPI   C4B 8772  16.910   4.944   8.466 -0.0961 -0.2237 -0.2087
  560PYPI    C1 8773   3.214   9.626  10.760 -0.0671  0.1411 -0.1882
  560PYPI    C2 8774   3.440   9.357  10.951 -0.1346  0.1471 -0.0997
  560PYPI    C3 8775   3.252   9.643  11.158 -0.3954  0.0144 -0.1484
  560PYPI   PO4 8776   3.168   9.548  10.474 -0.0653 -0.1888 -0.2402
  560PYPI   GL1 8777   2.806   9.514  10.271  0.0919  0.1233  0.0245
  560PYPI   GL2 8778   2.590   9.696  10.060 -0.3149  0.1283  0.0672
  560PYPI   C1A 8779   2.936   9.280   9.964  0.1170 -0.1660 -0.1852
  560PYPI   C2A 8780   2.942   9.238   9.512  0.0511 -0.0619  0.0617
  560PYPI   D3A 8781   3.105   9.197   9.173 -0.3292  0.1109  0.0292
  560PYPI   C4A 8782   3.411   8.981   9.094  0.2332  0.2519  0.1054
  560PYPI   C1B 8783   2.861   9.699   9.742 -0.4787  0.0126 -0.0045
  560PYPI   C2B 8784   2.893   9.652   9.246 -0.3291  0.2219  0.2772
  560PYPI   C3B 8785   2.933   9.765   8.790  0.1809 -0.0269  0.1608
  560PYPI   C4B 8786   3.022   9.811   8.326 -0.2750 -0.1570  0.0601
  561PYPI    C1 8787   8.595   0.385  10.144  0.1662 -0.0857  0.0692
  561PYPI    C2 8788   8.444   0.729  10.007  0.0973 -0.1932 -0.1286
  561PYPI    C3 8789   8.616   0.716  10.368 -0.2048 -0.0277  0.0247
  561PYPI   PO4 8790   8.688   0.305   9.974 -0.0597 -0.0091  0.3214
  561PYPI   GL1 8791   8.760   0.491   9.620 -0.1263  0.1462 -0.0136
  561PYPI   GL2 8792   8.498   0.589   9.515  0.0545 -0.1918  0.0665
  561PYPI   C1A 8793   8.988   0.371   9.265  0.0880 -0.1875  0.2735
  561PYPI   C2A 8794   8.918   0.395   8.792 -0.1730 -0.1121 -0.0817
  561PYPI   D3A 8795   9.178   0.437   8.426 -0.4142  0.0370  0.3357
  561PYPI   C4A 8796   9.321   0.748   8.182 -0.1375  0.0603 -0.1200
  561PYPI   C1B 8797   8.573   0.624   9.037  0.2500 -0.0843  0.0712
  561PYPI   C2B 8798   8.458   0.734   8.607  0.0821  0.1061  0.0801
  561PYPI   C3B 8799   8.176   0.815   8.254  0.3763 -0.2242  0.1928
  561PYPI   C4B 8800   8.109   0.818   7.864  0.1568  0.0184 -0.0788
  562PYPI    C1 8801   3.173   8.685  10.782  0.0090 -0.0332  0.3313
  562PYPI    C2 8802   3.494   8.540  10.972  0.2888  0.0837 -0.0403
  562PYPI    C3 8803   3.336   8.890  11.085  0.1241 -0.1002  0.3156
  562PYPI   PO4 8804   3.322   8.602  10.527  0.2128  0.1508  0.0808
  562PYPI   GL1 8805   3.398   8.729  10.155  0.3280 -0.2450  0.1310
  562PYPI   GL2 8806   3.685   8.751  10.123 -0.2501  0.0004  0.0156
  562PYPI   C1A 8807   3.440   8.538   9.782 -0.2279  0.2294  0.1796
  562PYPI   C2A 8808   3.398   8.456   9.287 -0.0808 -0.2339  0.3962
  562PYPI   D3A 8809   3.364   8.475   8.877 -0.1080  0.0167 -0.0613
  562PYPI   C4A 8810   3.394   8.258   8.541 -0.1153 -0.0467  0.1753
  562PYPI   C1B 8811   3.908   8.493   9.775  0.2102 -0.1606 -0.1683
  562PYPI   C2B 8812   3.898   8.379   9.371 -0.0159 -0.1424  0.3693
  562PYPI   C3B 8813   3.843   8.266   9.005 -0.0229 -0.2436  0.0540
  562PYPI   C4B 8814   3.864   8.002   8.722  0.0046  0.0078 -0.1988
  563PYPI    C1 8815   9.269   7.340  10.384  0.0901  0.0137  0.2828
  563PYPI    C2 8816   8.969   7.436  10.137  0.3308  0.1038  0.0204
  563PYPI    C3 8817   9.148   7.721  10.354  0.4005  0.0934 -0.0231
  563PYPI   PO4 8818   9.233   7.047  10.317 -0.0853 -0.0905  0.0670
  563PYPI   GL1 8819   9.373   6.851   9.884  0.0851 -0.1285 -0.3581
  563PYPI   GL2 8820   9.156   7.062   9.798 -0.3062  0.0699 -0.1590
  563PYPI   C1A 8821   9.417   6.745   9.457  0.2321 -0.0021  0.5669
  563PYPI   C2A 8822   9.417   6.766   9.125  0.2561  0.0362 -0.1962
  563PYPI   D3A 8823   9.286   6.618   8.683 -0.1735  0.1179 -0.1378
  563PYPI   C4A 8824   9.259   6.663   8.298  0.1447  0.3363  0.3157
  563PYPI   C1B 8825   9.045   7.016   9.325  0.0136  0.2443 -0.0956
  563PYPI   C2B 8826   9.018   6.928   8.924  0.1088 -0.0923  0.1968
  563PYPI   C3B 8827   8.809   6.902   8.616 -0.0361 -0.4139  0.1170
  563PYPI   C4B 8828   8.797   6.782   8.221 -0.3318 -0.2608 -0.1102
  564PYPI    C1 8829  17.078  11.449  10.569  0.0091 -0.0404 -0.0054
  564PYPI    C2 8830  16.699  11.510  10.682  0.0089 -0.0629  0.0065
  564PYPI    C3 8831  16.999  11.649  10.906  0.0056  0.1018 -0.0896
  564PYPI   PO4 8832  17.030  11.176  10.379 -0.1289 -0.2431  0.0058
  564PYPI   GL1 8833  17.085  11.115   9.957 -0.3088 -0.1580 -0.0913
  564PYPI   GL2 8834  17.336  11.019  10.066 -0.1843 -0.1829 -0.1143
  564PYPI   C1A 8835  17.266  11.280   9.672 -0.0225  0.2916  0.2020
  564PYPI   C2A 8836  17.165  11.308   9.219 -0.0555  0.5559 -0.0170
  564PYPI   D3A 8837  17.072  11.315   8.862  0.0763 -0.0762  0.2585
  564PYPI   C4A 8838  16.724  11.507   8.664 -0.2482 -0.1837 -0.0041
  564PYPI   C1B 8839  17.259  10.662   9.696 -0.1332 -0.0669  0.0056
  564PYPI   C2B 8840  17.214  10.733   9.242  0.1836 -0.2932 -0.2874
  564PYPI   C3B 8841  17.017  10.727   8.833  0.0975 -0.0195  0.0320
  564PYPI   C4B 8842  16.946  10.695   8.419  0.0750  0.2135 -0.0066
  565PYPI    C1 8843   1.943  11.285  10.684  0.1354  0.2240  0.1208
  565PYPI    C2 8844   2.040  11.637  10.848 -0.0535  0.2994  0.0727
  565PYPI    C3 8845   1.951  11.325  11.082  0.2552  0.2417  0.1171
  565PYPI   PO4 8846   2.102  11.256  10.458  0.0905  0.1052 -0.0401
  565PYPI   GL1 8847   2.071  11.127  10.123 -0.1701  0.0545 -0.2526
  565PYPI   GL2 8848   2.160  11.481   9.925 -0.0673  0.0554 -0.2161
  565PYPI   C1A 8849   2.098  10.928   9.683  0.1028  0.0376  0.0685
  565PYPI   C2A 8850   2.056  10.962   9.231 -0.1278  0.0290 -0.2546
  565PYPI   D3A 8851   2.068  10.996   8.740  0.1347 -0.1147 -0.4420
  565PYPI   C4A 8852   1.917  10.758   8.417  0.1042 -0.0117 -0.2225
  565PYPI   C1B 8853   2.075  11.416   9.499  0.0674  0.0957 -0.3836
  565PYPI   C2B 8854   2.077  11.480   9.078 -0.1897 -0.4727 -0.4612
  565PYPI   C3B 8855   2.122  11.481   8.565  0.1488 -0.0451  0.1705
  565PYPI   C4B 8856   1.923  11.282   8.306  0.1757 -0.0404  0.2060
  566PYPI    C1 8857  15.408  11.479  10.700  0.2478 -0.0864 -0.0346
  566PYPI    C2 8858  15.708  11.626  10.920  0.0801  0.0553  0.1026
  566PYPI    C3 8859  15.345  11.582  11.081 -0.0071  0.0134 -0.1018
  566PYPI   PO4 8860  15.550  11.267  10.499  0.2032  0.1294  0.0390
  566PYPI   GL1 8861  15.645  11.348  10.013  0.1569 -0.1532  0.1391
  566PYPI   GL2 8862  15.956  11.218  10.132  0.1502  0.0804 -0.2953
  566PYPI   C1A 8863  15.552  11.429   9.543 -0.2770  0.0855 -0.1293
  566PYPI   C2A 8864  15.518  11.345   9.071 -0.2629  0.0127  0.0104
  566PYPI   D3A 8865  15.646  11.232   8.622 -0.0303 -0.2343 -0.2603
  566PYPI   C4A 8866  15.679  10.985   8.217  0.3029 -0.1941 -0.2202
  566PYPI   C1B 8867  16.003  11.417   9.690 -0.3247 -0.1202 -0.1054
  566PYPI   C2B 8868  16.032  11.325   9.219  0.0055 -0.1132 -0.3250
  566PYPI   C3B 8869  16.231  11.262   8.805  0.1065  0.0266 -0.0278
  566PYPI   C4B 8870  16.178  11.428   8.364  0.0298  0.1657 -0.0391
  567PYPI    C1 8871   6.063   5.579  10.699 -0.0814  0.0732 -0.1825
  567PYPI    C2 8872   6.087   5.208  10.846  0.0659  0.0966 -0.1458
  567PYPI    C3 8873   6.385   5.467  10.907  0.0672  0.1498 -0.3679
  567PYPI   PO4 8874   5.912   5.484  10.490 -0.5443 -0.0341  0.0660
  567PYPI   GL1 8875   5.785   5.224  10.090  0.1206  0.2535 -0.4690
  567PYPI   GL2 8876   5.791   5.519   9.891  0.2009 -0.2456 -0.0359
  567PYPI   C1A 8877   6.202   5.236   9.759  0.2591 -0.0829 -0.1483
  567PYPI   C2A 8878   6.232   5.334   9.292 -0.3686  0.0376 -0.0560
  567PYPI   D3A 8879   6.235   5.331   8.845 -0.1102  0.0731  0.1863
  567PYPI   C4A 8880   6.310   5.404   8.476 -0.0316  0.1537 -0.0164
  567PYPI   C1B 8881   5.741   5.563   9.462 -0.0748  0.0034 -0.1180
  567PYPI   C2B 8882   5.789   5.544   9.079  0.0083  0.0878 -0.0164
  567PYPI   C3B 8883   5.837   5.612   8.661  0.0007  0.1344 -0.1401
  567PYPI   C4B 8884   5.886   5.655   8.194  0.0274 -0.0343  0.0880
  568PYPI    C1 8885  16.453  14.020  10.554 -0.3140 -0.0912  0.0064
  568PYPI    C2 8886  16.484  13.931  10.943 -0.1508 -0.2858 -0.0493
  568PYPI    C3 8887  16.202  14.186  10.818  0.1615  0.2332  0.2697
  568PYPI   PO4 8888  16.631  14.085  10.429 -0.4297  0.2081  0.1449
  568PYPI   GL1 8889  16.769  14.188   9.991 -0.0303 -0.0110  0.1845
  568PYPI   GL2 8890  17.022  14.437   9.859 -0.1596  0.1855 -0.0671
  568PYPI   C1A 8891  16.790  14.019   9.596  0.2010  0.3144 -0.2339
  568PYPI   C2A 8892  16.778  14.087   9.274 -0.1384 -0.2223 -0.0056
  568PYPI   D3A 8893  16.562  14.168   8.934  0.2346 -0.0266  0.1088
  568PYPI   C4A 8894  16.218  14.324   8.856 -0.1011 -0.1375  0.0485
  568PYPI   C1B 8895  17.041  14.453   9.448 -0.0613 -0.1223 -0.2759
  568PYPI   C2B 8896  17.109  14.452   9.032 -0.1308  0.1377  0.0370
  568PYPI   C3B 8897  17.242  14.415   8.686  0.0376 -0.0120 -0.1076
  568PYPI   C4B 8898  17.222  14.257   8.270  0.4150  0.1070 -0.0691
  569PYPI    C1 8899   5.152  13.880  10.544 -0.1728 -0.2255 -0.0048
  569PYPI    C2 8900   5.235  13.711  10.897  0.1551 -0.3072 -0.1178
  569PYPI    C3 8901   5.137  14.098  10.878  0.4111 -0.2323  0.0361
  569PYPI   PO4 8902   5.349  13.701  10.278 -0.3141 -0.1006 -0.2045
  569PYPI   GL1 8903   5.473  13.897   9.995  0.2161 -0.0135 -0.1614
  569PYPI   GL2 8904   5.729  13.651   9.903 -0.1673  0.0420 -0.2769
  569PYPI   C1A 8905   5.339  13.832   9.540 -0.1580  0.0062  0.1050
  569PYPI   C2A 8906   5.284  13.832   9.107 -0.3471 -0.2582  0.0205
  569PYPI   D3A 8907   5.396  13.785   8.673 -0.5625 -0.0292 -0.4137
  569PYPI   C4A 8908   5.330  13.705   8.320  0.2092  0.3257  0.0946
  569PYPI   C1B 8909   5.761  13.462   9.517  0.2572 -0.0483 -0.1509
  569PYPI   C2B 8910   5.768  13.618   9.223 -0.0570 -0.0039 -0.0687
  569PYPI   C3B 8911   5.820  13.500   8.808  0.0295 -0.0222  0.2497
  569PYPI   C4B 8912   5.780  13.439   8.336 -0.0246 -0.3224 -0.2046
  570PYPI    C1 8913   6.292  10.858  10.699  0.2517 -0.1059 -0.0521
  570PYPI    C2 8914   6.409  10.476  10.709  0.0485 -0.1652  0.1338
  570PYPI    C3 8915   6.137  10.609  10.970  0.0222  0.0758 -0.0134
  570PYPI   PO4 8916   6.162  10.926  10.404  0.1001  0.1070  0.3859
  570PYPI   GL1 8917   6.276  10.996   9.976 -0.0065 -0.0611  0.4577
  570PYPI   GL2 8918   5.955  10.996   9.870  0.0151 -0.3787  0.1205
  570PYPI   C1A 8919   6.295  11.048   9.410  0.0009 -0.0311  0.3866
  570PYPI   C2A 8920   6.268  11.087   8.949  0.0854  0.2017  0.2801
  570PYPI   D3A 8921   6.216  11.214   8.578  0.0432 -0.1051  0.1642
  570PYPI   C4A 8922   6.229  11.220   8.102  0.1103 -0.1235 -0.0879
  570PYPI   C1B 8923   5.750  10.876   9.455  0.0040 -0.0650 -0.0491
  570PYPI   C2B 8924   5.832  10.823   8.963  0.0658 -0.1136 -0.1710
  570PYPI   C3B 8925   5.815  10.811   8.569  0.1725 -0.3099 -0.1880
  570PYPI   C4B 8926   5.836  10.885   8.196  0.0828  0.1346 -0.2721
  571PYPI    C1 8927   6.845   5.040  10.447  0.1158  0.2060  0.1583
  571PYPI    C2 8928   6.939   4.697  10.630 -0.0788  0.0124 -0.0960
  571PYPI    C3 8929   7.047   5.047  10.793 -0.0662 -0.1595  0.2767
  571PYPI   PO4 8930   6.705   4.919  10.268 -0.0022  0.0754 -0.1522
  571PYPI   GL1 8931   6.536   4.864   9.940 -0.1951  0.0706 -0.3461
  571PYPI   GL2 8932   6.266   4.734   9.887  0.2334  0.2409  0.0445
  571PYPI   C1A 8933   6.577   5.061   9.522  0.1115 -0.2289  0.3105
  571PYPI   C2A 8934   6.589   5.043   9.055  0.1926  0.5398 -0.0208
  571PYPI   D3A 8935   6.692   5.122   8.728 -0.2131 -0.0075  0.2889
  571PYPI   C4A 8936   6.693   5.243   8.280 -0.1920  0.2100  0.1285
  571PYPI   C1B 8937   6.238   4.727   9.452 -0.1456  0.0296  0.0146
  571PYPI   C2B 8938   6.137   4.817   9.029  0.2961  0.0861 -0.0719
  571PYPI   C3B 8939   6.262   4.916   8.580  0.1140 -0.0464  0.2578
  571PYPI   C4B 8940   6.292   4.973   8.101  0.2938  0.0453 -0.0741
  572PYPI    C1 8941   4.197  16.601  10.539  0.1093 -0.2570 -0.1169
  572PYPI    C2 8942   4.236  16.219  10.650  0.1427 -0.1684  0.1843
  572PYPI    C3 8943   4.206  16.506  10.928  0.4316  0.0815 -0.0359
  572PYPI   PO4 8944   4.181  16.489  10.266  0.1733  0.0472 -0.0900
  572PYPI   GL1 8945   4.085  16.278   9.900  0.3092 -0.0682 -0.0171
  572PYPI   GL2 8946   3.873  16.527   9.802 -0.0764 -0.1507 -0.0999
  572PYPI   C1A 8947   4.248  16.286   9.530  0.2774  0.2699 -0.2684
  572PYPI   C2A 8948   4.373  16.004   9.188  0.1370 -0.1904 -0.2503
  572PYPI   D3A 8949   4.396  15.927   8.776  0.0110 -0.1941  0.2428
  572PYPI   C4A 8950   4.538  15.827   8.369  0.2062 -0.2378 -0.0323
  572PYPI   C1B 8951   3.956  16.652   9.368  0.2720  0.2090 -0.2981
  572PYPI   C2B 8952   3.857  16.688   8.923 -0.0463 -0.0144  0.0014
  572PYPI   C3B 8953   3.679  16.689   8.475 -0.0570  0.0446  0.0106
  572PYPI   C4B 8954   3.529  16.566   8.128 -0.0686  0.0327  0.2851
  573PYPI    C1 8955   1.395  12.769  10.664 -0.2080 -0.0441  0.3051
  573PYPI    C2 8956   1.480  12.394  10.774 -0.0169 -0.0855  0.0271
  573PYPI    C3 8957   1.696  12.698  10.919  0.0276 -0.1108  0.0141
  573PYPI   PO4 8958   1.151  12.758  10.569  0.0116 -0.1158  0.1144
  573PYPI   GL1 8959   1.125  12.730  10.125  0.0078  0.2725  0.0181
  573PYPI   GL2 8960   1.068  13.041  10.024  0.1267  0.1047 -0.0347
  573PYPI   C1A 8961   1.187  12.625   9.675 -0.2227  0.0009 -0.0254
  573PYPI   C2A 8962   1.255  12.708   9.348 -0.1199  0.3563 -0.1890
  573PYPI   D3A 8963   1.270  12.548   8.883  0.1223 -0.0389 -0.2441
  573PYPI   C4A 8964   1.064  12.458   8.468 -0.0762 -0.2914 -0.1876
  573PYPI   C1B 8965   1.193  13.106   9.591 -0.0938 -0.0253 -0.3765
  573PYPI   C2B 8966   1.310  13.180   9.164 -0.1975  0.1473  0.0207
  573PYPI   C3B 8967   1.205  13.061   8.795 -0.2524 -0.2738  0.0709
  573PYPI   C4B 8968   1.158  13.039   8.361  0.2837 -0.0921 -0.3017
  574ERGO   ROH 8969  14.245   3.914  10.153  0.1118  0.1984 -0.1978
  574ERGO    R1 8970  14.208   3.983   9.881  0.1038  0.1329 -0.2141
  574ERGO    R2 8971  14.405   3.952   9.691  0.0476 -0.0577 -0.2443
  574ERGO    R3 8972  14.213   3.810   9.561 -0.0694  0.0224 -0.1590
  574ERGO    R4 8973  14.353   3.958   9.349 -0.0033 -0.1466 -0.2378
  574ERGO    R5 8974  14.139   3.958   9.387  0.0011  0.0107 -0.2003
  574ERGO    C1 8975  14.143   3.829   9.028 -0.1428 -0.1231 -0.1539
  574ERGO    C2 8976  14.372   3.825   8.753 -0.0743 -0.2630 -0.1471
  575ERGO   ROH 8977   5.460   2.067   9.445  0.1560 -0.0791 -0.1957
  575ERGO    R1 8978   5.340   2.109   9.192  0.2591  0.1441 -0.2102
  575ERGO    R2 8979   5.481   2.202   8.974  0.5397 -0.3909 -0.2724
  575ERGO    R3 8980   5.381   1.979   8.855 -0.1416 -0.1788 -0.1429
  575ERGO    R4 8981   5.389   2.180   8.641  0.4771 -0.3058 -0.2613
  575ERGO    R5 8982   5.216   2.062   8.702  0.0999  0.2420 -0.1921
  575ERGO    C1 8983   5.242   1.958   8.336 -0.1990 -0.0571 -0.1331
  575ERGO    C2 8984   5.216   1.950   8.041 -0.1289 -0.3508  0.4201
  576ERGO   ROH 8985  18.159   7.281   6.570 -0.2965 -0.0503 -0.0374
  576ERGO    R1 8986  18.269   7.403   6.800 -0.1359 -0.1302 -0.0729
  576ERGO    R2 8987  18.118   7.553   6.976  0.0206 -0.0757  0.0002
  576ERGO    R3 8988  18.221   7.382   7.160  0.0134 -0.1366 -0.0493
  576ERGO    R4 8989  18.174   7.633   7.307  0.2789 -0.0648 -0.0434
  576ERGO    R5 8990  18.362   7.520   7.296  0.2030 -0.2089 -0.1525
  576ERGO    C1 8991  18.304   7.518   7.674  0.4225 -0.1155 -0.1152
  576ERGO    C2 8992  18.044   7.555   7.842 -0.4171 -0.2420  0.1383
  577ERGO   ROH 8993  17.673   0.039  10.329  0.2085  0.0495 -0.0924
  577ERGO    R1 8994  17.801   0.097  10.084 -0.0413  0.2810 -0.1683
  577ERGO    R2 8995  17.874  -0.099   9.904  0.4369  0.3842 -0.0718
  577ERGO    R3 8996  17.729   0.051   9.730 -0.0464 -0.1069 -0.1274
  577ERGO    R4 8997  17.909  -0.107   9.560  0.7709  0.6043 -0.0507
  577ERGO    R5 8998  17.885   0.110   9.558 -0.0893  0.5678  0.0141
  577ERGO    C1 8999  17.793   0.029   9.197  0.5117  0.2715 -0.0905
  577ERGO    C2 9000  17.745  -0.056   8.781 -0.2423 -0.1593  0.0991
  578ERGO   ROH 9001   1.250   5.795  10.355 -0.1899  0.0056 -0.0048
  578ERGO    R1 9002   1.158   5.639  10.137 -0.0600  0.0099 -0.0627
  578ERGO    R2 9003   0.982   5.737   9.949 -0.0793 -0.0438 -0.0638
  578ERGO    R3 9004   1.173   5.656   9.774 -0.0056  0.1115 -0.0578
  578ERGO    R4 9005   0.938   5.717   9.607 -0.0612 -0.0659 -0.0655
  578ERGO    R5 9006   1.052   5.530   9.609  0.0911  0.0173 -0.0652
  578ERGO    C1 9007   1.093   5.630   9.243  0.0185  0.0671 -0.0609
  578ERGO    C2 9008   1.132   5.622   8.927 -0.0370 -0.0393  0.1766
  579ERGO   ROH 9009   3.319   8.248  10.123 -0.0799  0.0295 -0.0092
  579ERGO    R1 9010   3.144   8.139   9.928 -0.0568  0.0420 -0.0372
  579ERGO    R2 9011   3.014   8.294   9.740 -0.0458  0.0556 -0.0338
  579ERGO    R3 9012   3.130   8.122   9.565 -0.0218  0.0789 -0.0404
  579ERGO    R4 9013   2.944   8.279   9.402  0.1949  0.2837 -0.0968
  579ERGO    R5 9014   2.954   8.062   9.415  0.0506  0.2693 -0.2060
  579ERGO    C1 9015   3.013   8.108   9.041  0.3577  0.4384 -0.1395
  579ERGO    C2 9016   2.958   8.123   8.722  0.1796 -0.3380  0.3304
  580ERGO   ROH 9017  17.269   2.815   6.655  0.0564  0.1307  0.0234
  580ERGO    R1 9018  17.356   2.832   6.923  0.2084 -0.1535 -0.0047
  580ERGO    R2 9019  17.185   2.893   7.131  0.4128  0.0931  0.0892
  580ERGO    R3 9020  17.282   2.662   7.237  0.0111 -0.1487 -0.0456
  580ERGO    R4 9021  17.176   2.810   7.467  0.5168  0.0539  0.0836
  580ERGO    R5 9022  17.377   2.728   7.447  0.3391 -0.3825 -0.1072
  580ERGO    C1 9023  17.261   2.544   7.761  0.2003 -0.1959 -0.0462
  580ERGO    C2 9024  17.003   2.543   8.128 -0.0067  0.0172 -0.0052
  581ERGO   ROH 9025  12.823   5.727  10.081  0.0862 -0.0669  0.1648
  581ERGO    R1 9026  12.858   5.649   9.811 -0.0602 -0.0713  0.1461
  581ERGO    R2 9027  12.645   5.604   9.640 -0.1527  0.0743  0.2174
  581ERGO    R3 9028  12.775   5.785   9.484 -0.0933  0.0046  0.1866
  581ERGO    R4 9029  12.679   5.581   9.297 -0.2505  0.0659  0.2082
  581ERGO    R5 9030  12.884   5.652   9.317 -0.2090 -0.0484  0.1564
  581ERGO    C1 9031  12.821   5.736   8.950 -0.2516 -0.0045  0.1741
  581ERGO    C2 9032  12.861   5.807   8.694  0.2980 -0.2769 -0.0653
  582ERGO   ROH 9033   9.094   3.231   9.106 -0.0275 -0.0233  0.0961
  582ERGO    R1 9034   9.133   3.046   8.895 -0.3026 -0.0218  0.0402
  582ERGO    R2 9035   8.946   3.008   8.694 -0.2440  0.5306 -0.1400
  582ERGO    R3 9036   9.158   3.061   8.532  0.0324  0.1031  0.0662
  582ERGO    R4 9037   8.950   2.964   8.351  0.0902  0.3244 -0.1131
  582ERGO    R5 9038   9.153   2.887   8.368 -0.0451  0.0142  0.1655
  582ERGO    C1 9039   9.152   2.987   8.000  0.5442 -0.1970  0.0962
  582ERGO    C2 9040   9.070   3.063   7.760  0.0076  0.0311  0.0549
  583ERGO   ROH 9041  11.490   4.662   9.723 -0.1727  0.1113  0.0252
  583ERGO    R1 9042  11.528   4.578   9.455  0.0655  0.0170  0.0850
  583ERGO    R2 9043  11.385   4.686   9.244  0.0947 -0.2073 -0.0556
  583ERGO    R3 9044  11.633   4.731   9.143  0.1193 -0.0340  0.0786
  583ERGO    R4 9045  11.458   4.722   8.908  0.2369 -0.0185 -0.0062
  583ERGO    R5 9046  11.639   4.605   8.940  0.2810  0.0612  0.0236
  583ERGO    C1 9047  11.733   4.785   8.618  0.3430  0.2540  0.1486
  583ERGO    C2 9048  11.623   4.715   8.289 -0.1116  0.0378  0.4291
  584ERGO   ROH 9049  17.401   0.817   6.763  0.0178 -0.1404  0.0123
  584ERGO    R1 9050  17.486   0.904   7.018 -0.0856 -0.0180  0.0069
  584ERGO    R2 9051  17.312   0.938   7.230 -0.1525 -0.0582 -0.0368
  584ERGO    R3 9052  17.485   0.771   7.357 -0.0810  0.0750  0.0425
  584ERGO    R4 9053  17.353   0.917   7.573 -0.3908 -0.1295 -0.0109
  584ERGO    R5 9054  17.568   0.899   7.541 -0.3486  0.0959  0.1480
  584ERGO    C1 9055  17.540   0.749   7.891 -0.4626 -0.0460  0.0786
  584ERGO    C2 9056  17.516   0.647   8.215 -0.3446 -0.0934  0.2153
  585ERGO   ROH 9057   1.718  15.390   9.864  0.0161 -0.0337 -0.0675
  585ERGO    R1 9058   1.621  15.461   9.608 -0.0874 -0.1217 -0.0526
  585ERGO    R2 9059   1.788  15.512   9.395 -0.1662  0.0700 -0.0634
  585ERGO    R3 9060   1.637  15.323   9.271  0.0227 -0.0833 -0.0660
  585ERGO    R4 9061   1.783  15.458   9.054 -0.2818  0.2516 -0.0916
  585ERGO    R5 9062   1.567  15.429   9.067 -0.2462 -0.0621  0.0268
  585ERGO    C1 9063   1.639  15.249   8.739 -0.1717  0.2135 -0.1104
  585ERGO    C2 9064   1.811  15.255   8.337  0.1459  0.1636  0.0769
  586ERGO   ROH 9065  16.419   5.413   6.632 -0.1430  0.3299 -0.0484
  586ERGO    R1 9066  16.533   5.331   6.878 -0.2528  0.1569 -0.0543
  586ERGO    R2 9067  16.771   5.434   6.973 -0.0369 -0.2737 -0.1158
  586ERGO    R3 9068  16.622   5.489   7.194  0.1027  0.0499 -0.0963
  586ERGO    R4 9069  16.901   5.511   7.284  0.1679 -0.1814 -0.2212
  586ERGO    R5 9070  16.744   5.388   7.374  0.0661  0.0492 -0.0693
  586ERGO    C1 9071  16.836   5.607   7.673  0.4183  0.1761 -0.2642
  586ERGO    C2 9072  17.070   5.721   7.932  0.0280  0.1762  0.1614
  587ERGO   ROH 9073  12.690  10.071   9.254 -0.2267 -0.1283  0.1174
  587ERGO    R1 9074  12.509  10.035   9.039 -0.2191 -0.0276  0.0922
  587ERGO    R2 9075  12.425  10.245   8.880 -0.0761  0.0247  0.0698
  587ERGO    R3 9076  12.514  10.087   8.678 -0.1332 -0.0373  0.0942
  587ERGO    R4 9077  12.378  10.309   8.544  0.3822  0.2462  0.0412
  587ERGO    R5 9078  12.340  10.096   8.514  0.0543  0.3242 -0.0866
  587ERGO    C1 9079  12.435  10.198   8.158  0.5955  0.3168  0.0476
  587ERGO    C2 9080  12.437  10.206   7.811 -0.1262  0.0583 -0.2069
  588ERGO   ROH 9081   6.119   1.228   9.600 -0.1231  0.1424 -0.0026
  588ERGO    R1 9082   6.204   1.299   9.339  0.0434 -0.1296 -0.0270
  588ERGO    R2 9083   6.207   1.120   9.129 -0.3374 -0.2193  0.0345
  588ERGO    R3 9084   6.056   1.310   9.007  0.0701  0.0715 -0.0330
  588ERGO    R4 9085   6.213   1.189   8.790 -0.2513 -0.4134 -0.0048
  588ERGO    R5 9086   6.201   1.401   8.838  0.2498 -0.3492 -0.1169
  588ERGO    C1 9087   6.075   1.408   8.478  0.1813 -0.2535 -0.0910
  588ERGO    C2 9088   6.025   1.558   8.149  0.1842 -0.0642 -0.2197
  589ERGO   ROH 9089  16.700  16.194   6.287  0.1126 -0.0626  0.0480
  589ERGO    R1 9090  16.791  16.339   6.512  0.1146 -0.0901  0.0652
  589ERGO    R2 9091  16.662  16.563   6.608  0.1942 -0.0178  0.0087
  589ERGO    R3 9092  16.662  16.425   6.841  0.0544 -0.0023  0.0186
  589ERGO    R4 9093  16.658  16.707   6.922  0.3985  0.0103 -0.0004
  589ERGO    R5 9094  16.800  16.555   6.988  0.2263 -0.1553 -0.0053
  589ERGO    C1 9095  16.656  16.660   7.325  0.3860  0.0410  0.0036
  589ERGO    C2 9096  16.561  16.703   7.703 -0.1036 -0.0429  0.4226
  590ERGO   ROH 9097  12.686   0.174   9.972 -0.0627  0.0894 -0.1383
  590ERGO    R1 9098  12.751   0.199   9.698 -0.1864  0.1964 -0.1603
  590ERGO    R2 9099  12.851  -0.012   9.549  0.1413  0.3549 -0.1851
  590ERGO    R3 9100  12.642   0.048   9.385 -0.0224 -0.0111 -0.1184
  590ERGO    R4 9101  12.865  -0.006   9.203  0.0105  0.3794 -0.1896
  590ERGO    R5 9102  12.740   0.173   9.206 -0.3024  0.1616 -0.1527
  590ERGO    C1 9103  12.677   0.055   8.849 -0.2193  0.0498 -0.1295
  590ERGO    C2 9104  12.763  -0.026   8.442 -0.1866  0.1355 -0.2595
  591ERGO   ROH 9105  16.015   7.783   6.378 -0.0948 -0.1133  0.0386
  591ERGO    R1 9106  16.217   7.845   6.568 -0.0374 -0.0335 -0.0471
  591ERGO    R2 9107  16.158   7.931   6.824  0.0385  0.0103 -0.0419
  591ERGO    R3 9108  16.318   7.723   6.895  0.1040  0.0551 -0.0580
  591ERGO    R4 9109  16.256   7.858   7.147 -0.0392 -0.0630 -0.0350
  591ERGO    R5 9110  16.454   7.809   7.072  0.0055  0.0495  0.0181
  591ERGO    C1 9111  16.462   7.619   7.402 -0.0231 -0.0637 -0.0461
  591ERGO    C2 9112  16.631   7.598   7.721  0.0957 -0.2804 -0.0909
  592ERGO   ROH 9113   3.467  16.884   9.738 -0.0946  0.0103 -0.0279
  592ERGO    R1 9114   3.507  16.690   9.535 -0.0845  0.1429 -0.1546
  592ERGO    R2 9115   3.301  16.535   9.435 -0.0569  0.1214 -0.1776
  592ERGO    R3 9116   3.387  16.633   9.196 -0.1724  0.2943 -0.1499
  592ERGO    R4 9117   3.200  16.419   9.126  0.2528 -0.0715 -0.2119
  592ERGO    R5 9118   3.405  16.440   9.056  0.2402  0.3248 -0.1512
  592ERGO    C1 9119   3.221  16.444   8.721  0.3247 -0.0215 -0.2058
  592ERGO    C2 9120   3.128  16.628   8.488 -0.0161  0.0650 -0.1860
  593ERGO   ROH 9121  11.840   6.300   9.796  0.1830  0.3333 -0.0312
  593ERGO    R1 9122  11.933   6.195   9.550  0.2085  0.1969  0.0360
  593ERGO    R2 9123  11.762   6.120   9.346  0.2233 -0.0504  0.1132
  593ERGO    R3 9124  11.916   6.289   9.199  0.1134 -0.0781 -0.0363
  593ERGO    R4 9125  11.770   6.131   9.001 -0.1136 -0.0527  0.1026
  593ERGO    R5 9126  11.986   6.158   9.011 -0.0945 -0.0928 -0.1072
  593ERGO    C1 9127  11.918   6.296   8.661 -0.4130 -0.0800 -0.0440
  593ERGO    C2 9128  12.002   6.243   8.304 -0.2764 -0.1333  0.1385
  594ERGO   ROH 9129  15.733  10.829   9.862  0.3074 -0.0337 -0.0466
  594ERGO    R1 9130  15.658  10.807   9.590  0.1481  0.0751 -0.0122
  594ERGO    R2 9131  15.773  10.960   9.391  0.2048 -0.0191 -0.0483
  594ERGO    R3 9132  15.820  10.717   9.277 -0.0991 -0.0558 -0.1068
  594ERGO    R4 9133  15.720  10.883   9.058  0.0553  0.1138 -0.0569
  594ERGO    R5 9134  15.643  10.689   9.119 -0.1644  0.1875 -0.0834
  594ERGO    C1 9135  15.734  10.611   8.757 -0.3171  0.1568 -0.1168
  594ERGO    C2 9136  15.738  10.568   8.399  0.1731 -0.2125  0.0069
  595ERGO   ROH 9137  14.755  12.484   9.337  0.1214  0.1212  0.0221
  595ERGO    R1 9138  14.842  12.592   9.090 -0.0258  0.0672 -0.0546
  595ERGO    R2 9139  15.057  12.489   8.951  0.1186  0.2595  0.0214
  595ERGO    R3 9140  14.877  12.474   8.747  0.1349 -0.1328  0.0277
  595ERGO    R4 9141  15.137  12.505   8.615  0.0811  0.4052  0.0187
  595ERGO    R5 9142  14.960  12.628   8.584 -0.1878  0.0377  0.0147
  595ERGO    C1 9143  15.015  12.500   8.229  0.0745  0.1218  0.0230
  595ERGO    C2 9144  15.194  12.413   7.940 -0.3022  0.2320 -0.1752
  596ERGO   ROH 9145   8.430   5.487   9.758 -0.2207  0.0431 -0.0284
  596ERGO    R1 9146   8.326   5.558   9.504 -0.0859  0.1319 -0.0599
  596ERGO    R2 9147   8.473   5.701   9.318  0.0774  0.0439 -0.0025
  596ERGO    R3 9148   8.410   5.492   9.156 -0.0127  0.0963 -0.0355
  596ERGO    R4 9149   8.462   5.715   8.973  0.0787  0.1033 -0.0000
  596ERGO    R5 9150   8.283   5.590   8.979  0.0268  0.1778 -0.0182
  596ERGO    C1 9151   8.396   5.526   8.620 -0.0049  0.1870 -0.0295
  596ERGO    C2 9152   8.470   5.658   8.354 -0.1707  0.1225  0.0785
  597ERGO   ROH 9153   1.092   8.338   9.943  0.0560  0.0288  0.0551
  597ERGO    R1 9154   1.018   8.301   9.672 -0.0045 -0.0186  0.0772
  597ERGO    R2 9155   1.125   8.453   9.467 -0.1408  0.0303  0.0381
  597ERGO    R3 9156   1.187   8.210   9.363 -0.0459  0.0566  0.0332
  597ERGO    R4 9157   1.146   8.382   9.130  0.1499  0.1033  0.0387
  597ERGO    R5 9158   1.049   8.191   9.168  0.1224  0.0946 -0.0891
  597ERGO    C1 9159   1.217   8.112   8.835  0.4082  0.1707  0.0344
  597ERGO    C2 9160   1.100   8.072   8.576 -0.1559 -0.0585  0.2492
  598ERGO   ROH 9161   3.531  15.681   9.753 -0.0413  0.0828  0.1540
  598ERGO    R1 9162   3.507  15.498   9.539  0.1665 -0.0013  0.2017
  598ERGO    R2 9163   3.319  15.527   9.338  0.0443 -0.3376  0.2683
  598ERGO    R3 9164   3.537  15.511   9.176  0.0122 -0.0308  0.1857
  598ERGO    R4 9165   3.310  15.453   9.000 -0.0150  0.0282  0.1847
  598ERGO    R5 9166   3.488  15.330   9.027  0.0716  0.0971 -0.0004
  598ERGO    C1 9167   3.510  15.395   8.652 -0.0797  0.5291  0.0585
  598ERGO    C2 9168   3.588  15.339   8.340  0.0806  0.1522 -0.1844
  599ERGO   ROH 9169  16.429   8.428   9.797 -0.1747 -0.0508  0.0091
  599ERGO    R1 9170  16.446   8.318   9.537 -0.0521 -0.0550  0.0198
  599ERGO    R2 9171  16.341   8.445   9.315 -0.0285 -0.1060 -0.0122
  599ERGO    R3 9172  16.594   8.414   9.218  0.0114 -0.0169  0.0585
  599ERGO    R4 9173  16.426   8.451   8.980  0.0839  0.1311  0.0173
  599ERGO    R5 9174  16.565   8.287   9.017  0.0890  0.1131 -0.0424
  599ERGO    C1 9175  16.712   8.426   8.694  0.1869  0.3530  0.1009
  599ERGO    C2 9176  16.669   8.537   8.290 -0.0775  0.1205  0.0145
  600ERGO   ROH 9177  14.208   1.150  10.491  0.0853 -0.1496  0.0841
  600ERGO    R1 9178  14.373   1.157  10.261  0.1781 -0.1888  0.1477
  600ERGO    R2 9179  14.482   0.929  10.148 -0.1137 -0.2578 -0.0109
  600ERGO    R3 9180  14.361   1.022   9.923  0.0933  0.1174  0.0251
  600ERGO    R4 9181  14.596   0.877   9.826 -0.1014 -0.1748 -0.0197
  600ERGO    R5 9182  14.542   1.082   9.778  0.2330 -0.0459  0.1288
  600ERGO    C1 9183  14.548   0.934   9.427  0.1001  0.2258  0.0091
  600ERGO    C2 9184  14.589   0.962   9.102 -0.1107 -0.2929  0.1204
  601ERGO   ROH 9185   9.554  18.052   9.713  0.0750 -0.2250  0.1346
  601ERGO    R1 9186   9.580  17.923   9.462  0.0735 -0.0613  0.0494
  601ERGO    R2 9187   9.394  17.952   9.260 -0.0099 -0.0562  0.1300
  601ERGO    R3 9188   9.612  18.025   9.114 -0.1026  0.1633  0.0958
  601ERGO    R4 9189   9.451  17.860   8.932  0.0884 -0.1137  0.1626
  601ERGO    R5 9190   9.662  17.832   8.982  0.1329  0.1683  0.1686
  601ERGO    C1 9191   9.689  17.875   8.604  0.0585  0.0588  0.1496
  601ERGO    C2 9192   9.880  17.926   8.330  0.0421  0.1348  0.1664
  602ERGO   ROH 9193  17.596   8.938  10.050  0.0261 -0.2862  0.0841
  602ERGO    R1 9194  17.528   8.792   9.817  0.0946 -0.1954  0.0081
  602ERGO    R2 9195  17.335   8.878   9.638  0.0656 -0.1872  0.0535
  602ERGO    R3 9196  17.536   8.849   9.458  0.0774 -0.0108  0.0340
  602ERGO    R4 9197  17.293   8.860   9.296  0.0722  0.1391  0.0312
  602ERGO    R5 9198  17.446   8.705   9.290  0.0810  0.1419 -0.1087
  602ERGO    C1 9199  17.458   8.822   8.927  0.0869  0.4949 -0.0001
  602ERGO    C2 9200  17.668   8.924   8.583  0.1570 -0.1878  0.0938
  603ERGO   ROH 9201   8.133   2.578   6.052  0.1317 -0.1624 -0.1531
  603ERGO    R1 9202   8.050   2.458   6.295  0.2423 -0.0887 -0.0787
  603ERGO    R2 9203   8.200   2.473   6.526  0.2254  0.2015 -0.0849
  603ERGO    R3 9204   7.969   2.571   6.631  0.1284  0.0475 -0.1505
  603ERGO    R4 9205   8.117   2.468   6.862  0.1984  0.2753 -0.0896
  603ERGO    R5 9206   7.913   2.417   6.806  0.2456  0.0726 -0.0887
  603ERGO    C1 9207   7.852   2.556   7.155  0.0917  0.1737 -0.1540
  603ERGO    C2 9208   7.565   2.559   7.349 -0.0644 -0.0554 -0.0324
  604ERGO   ROH 9209   5.321   2.952  10.016 -0.3063 -0.0520 -0.1354
  604ERGO    R1 9210   5.369   3.122   9.796  0.0818 -0.0502 -0.0550
  604ERGO    R2 9211   5.496   3.036   9.566 -0.1183 -0.2362 -0.0913
  604ERGO    R3 9212   5.273   3.134   9.445  0.0965  0.3403 -0.0518
  604ERGO    R4 9213   5.469   3.102   9.228 -0.0975 -0.5066 -0.1490
  604ERGO    R5 9214   5.358   3.284   9.277  0.4854 -0.0841 -0.2622
  604ERGO    C1 9215   5.244   3.233   8.917  0.1163 -0.1228 -0.1454
  604ERGO    C2 9216   5.384   3.227   8.674 -0.2731 -0.0714 -0.3977
  605ERGO   ROH 9217   9.002   8.986   9.616  0.2156 -0.0196  0.0289
  605ERGO    R1 9218   8.910   9.012   9.350  0.1511 -0.1591  0.0366
  605ERGO    R2 9219   8.963   9.234   9.195 -0.2450 -0.0469  0.0490
  605ERGO    R3 9220   9.060   9.050   9.021  0.0696  0.1295  0.0307
  605ERGO    R4 9221   8.946   9.260   8.851 -0.3464 -0.0750  0.0516
  605ERGO    R5 9222   8.900   9.047   8.842  0.0434 -0.1633  0.0564
  605ERGO    C1 9223   9.027   9.101   8.487 -0.1102  0.0742  0.0360
  605ERGO    C2 9224   9.012   9.162   8.221 -0.2770  0.2221 -0.0671
  606ERGO   ROH 9225   9.007   5.317   9.631 -0.0804  0.0200  0.1190
  606ERGO    R1 9226   8.845   5.335   9.399 -0.0726 -0.0118  0.1122
  606ERGO    R2 9227   8.907   5.499   9.186 -0.1332  0.0534  0.1498
  606ERGO    R3 9228   8.884   5.269   9.044 -0.0214  0.0704  0.1009
  606ERGO    R4 9229   8.883   5.482   8.842 -0.3591  0.1403  0.1585
  606ERGO    R5 9230   8.734   5.325   8.865 -0.2032 -0.0085  0.2211
  606ERGO    C1 9231   8.847   5.255   8.507 -0.3856  0.2069  0.1177
  606ERGO    C2 9232   8.802   5.258   8.178 -0.0223 -0.2649 -0.0916
  607ERGO   ROH 9233   3.177   0.448   6.346  0.2564  0.0853  0.0362
  607ERGO    R1 9234   3.040   0.544   6.574 -0.1036 -0.1537 -0.0720
  607ERGO    R2 9235   2.902   0.377   6.746  0.3103 -0.4521 -0.0223
  607ERGO    R3 9236   3.059   0.494   6.934 -0.0780  0.1284 -0.0303
  607ERGO    R4 9237   2.836   0.380   7.085  0.2283 -0.5490 -0.0362
  607ERGO    R5 9238   2.905   0.587   7.092 -0.4227 -0.2993 -0.0923
  607ERGO    C1 9239   2.945   0.491   7.459 -0.1840 -0.0606 -0.0518
  607ERGO    C2 9240   2.904   0.335   7.851 -0.0514 -0.0860  0.0309
  608ERGO   ROH 9241   7.951   0.405   9.431 -0.1563  0.1389 -0.0508
  608ERGO    R1 9242   7.873   0.475   9.168  0.0079  0.2391 -0.0732
  608ERGO    R2 9243   8.048   0.588   8.985  0.2403 -0.0991 -0.0601
  608ERGO    R3 9244   7.968   0.380   8.830 -0.1076  0.0156 -0.0462
  608ERGO    R4 9245   7.980   0.608   8.647  0.3937 -0.0216 -0.0880
  608ERGO    R5 9246   7.810   0.476   8.678  0.1191  0.3007 -0.1177
  608ERGO    C1 9247   7.866   0.425   8.304  0.1565  0.1313 -0.0911
  608ERGO    C2 9248   7.926   0.374   7.906  0.0488 -0.2096  0.1296
  609ERGO   ROH 9249   0.314  13.610   6.668  0.1116 -0.0296 -0.1112
  609ERGO    R1 9250   0.221  13.703   6.919 -0.0294 -0.0436 -0.1576
  609ERGO    R2 9251   0.190  13.535   7.137  0.0176 -0.0231 -0.1354
  609ERGO    R3 9252   0.349  13.718   7.259 -0.1443  0.1109 -0.1200
  609ERGO    R4 9253   0.221  13.572   7.479  0.0312 -0.0669 -0.1318
  609ERGO    R5 9254   0.224  13.788   7.451 -0.1878 -0.0555 -0.0854
  609ERGO    C1 9255   0.390  13.765   7.793 -0.1129  0.0333 -0.1153
  609ERGO    C2 9256   0.428  13.952   7.952  0.1489 -0.2363 -0.1874
  610ERGO   ROH 9257   0.323   3.436   6.789  0.0570  0.2511  0.0164
  610ERGO    R1 9258   0.321   3.339   7.055  0.1285  0.1145 -0.0311
  610ERGO    R2 9259   0.549   3.251   7.183  0.1987  0.2261 -0.0713
  610ERGO    R3 9260   0.474   3.432   7.372  0.0530  0.0765  0.0160
  610ERGO    R4 9261   0.580   3.205   7.525 -0.0938 -0.0540 -0.0781
  610ERGO    R5 9262   0.385   3.299   7.550 -0.1073 -0.0629 -0.1660
  610ERGO    C1 9263   0.527   3.349   7.900 -0.4008 -0.3576  0.0000
  610ERGO    C2 9264   0.544   3.459   8.268 -0.1498  0.2182 -0.1583
  611ERGO   ROH 9265   8.622  15.452   6.583 -0.1648 -0.0559  0.0328
  611ERGO    R1 9266   8.796  15.299   6.746 -0.1144 -0.0420 -0.0089
  611ERGO    R2 9267   8.925  15.404   6.967 -0.0025 -0.0094 -0.0945
  611ERGO    R3 9268   8.809  15.194   7.094  0.0291  0.0360  0.0120
  611ERGO    R4 9269   9.004  15.298   7.286  0.0692  0.1341 -0.0635
  611ERGO    R5 9270   8.988  15.092   7.216  0.0653  0.0978  0.0206
  611ERGO    C1 9271   8.942  15.039   7.591  0.1406  0.2602  0.0545
  611ERGO    C2 9272   8.976  15.020   7.877  0.2480 -0.0209  0.0412
  612ERGO   ROH 9273   4.627   0.112   9.638 -0.3502 -0.0041 -0.0407
  612ERGO    R1 9274   4.715   0.178   9.377 -0.1100 -0.0419  0.0278
  612ERGO    R2 9275   4.733  -0.008   9.174 -0.0815 -0.0390  0.0289
  612ERGO    R3 9276   4.575   0.169   9.041  0.1338  0.0761 -0.0794
  612ERGO    R4 9277   4.719   0.024   8.830 -0.0458 -0.2381  0.0074
  612ERGO    R5 9278   4.709   0.240   8.856  0.2226 -0.2055 -0.1289
  612ERGO    C1 9279   4.562   0.209   8.505  0.1772 -0.2459 -0.1070
  612ERGO    C2 9280   4.522   0.176   8.189  0.0112 -0.1051  0.2290
  613ERGO   ROH 9281   8.942   4.205   9.535 -0.3616 -0.3255  0.0071
  613ERGO    R1 9282   8.868   4.187   9.263 -0.1879 -0.2954 -0.0440
  613ERGO    R2 9283   8.961   4.364   9.071 -0.2258 -0.1451  0.0703
  613ERGO    R3 9284   9.038   4.135   8.945  0.0458 -0.0383  0.0362
  613ERGO    R4 9285   8.939   4.308   8.730 -0.2161 -0.1504  0.0708
  613ERGO    R5 9286   8.875   4.104   8.773  0.0543 -0.2365  0.0653
  613ERGO    C1 9287   8.999   4.061   8.415  0.0445 -0.0533  0.0391
  613ERGO    C2 9288   9.252   3.994   8.203 -0.4884  0.0232  0.2849
  614ERGO   ROH 9289  18.179   6.260  10.282  0.0342  0.0260  0.0761
  614ERGO    R1 9290  18.186   6.332  10.008 -0.0526 -0.0172  0.0628
  614ERGO    R2 9291  18.421   6.393   9.877 -0.1143  0.1267  0.0232
  614ERGO    R3 9292  18.337   6.201   9.704  0.0013  0.0367  0.0652
  614ERGO    R4 9293  18.475   6.398   9.536 -0.2244  0.1515  0.0054
  614ERGO    R5 9294  18.272   6.322   9.508 -0.1695 -0.0324  0.0753
  614ERGO    C1 9295  18.427   6.221   9.175 -0.1801  0.0815  0.0345
  614ERGO    C2 9296  18.408   6.045   8.861  0.2294  0.1140  0.0062
  615ERGO   ROH 9297   8.512  15.992  10.160  0.1328  0.1360 -0.1350
  615ERGO    R1 9298   8.629  15.886   9.925  0.0372 -0.0062 -0.1199
  615ERGO    R2 9299   8.509  15.688   9.774 -0.1250  0.0534 -0.0677
  615ERGO    R3 9300   8.542  15.866   9.572 -0.0002 -0.0171 -0.1107
  615ERGO    R4 9301   8.498  15.609   9.438 -0.2667 -0.0111 -0.0491
  615ERGO    R5 9302   8.665  15.745   9.406 -0.1435 -0.1696 -0.1113
  615ERGO    C1 9303   8.523  15.731   9.052 -0.2320 -0.1147 -0.0785
  615ERGO    C2 9304   8.577  15.824   8.730 -0.2206 -0.1740 -0.0731
  616ERGO   ROH 9305  14.067   4.360  10.198  0.0767  0.0585  0.0158
  616ERGO    R1 9306  14.106   4.469   9.939  0.0803  0.0649  0.0188
  616ERGO    R2 9307  14.346   4.449   9.803  0.0327 -0.0775 -0.0480
  616ERGO    R3 9308  14.189   4.342   9.608 -0.0911  0.0487 -0.0188
  616ERGO    R4 9309  14.432   4.427   9.469 -0.0794 -0.0821 -0.0768
  616ERGO    R5 9310  14.228   4.481   9.418 -0.0610  0.0528 -0.0089
  616ERGO    C1 9311  14.335   4.314   9.092 -0.2610  0.0338 -0.0661
  616ERGO    C2 9312  14.294   4.424   8.714 -0.0155 -0.1581  0.1223
  617ERGO   ROH 9313   7.716   5.725  10.082 -0.2749 -0.3576 -0.1292
  617ERGO    R1 9314   7.566   5.903   9.921 -0.2461 -0.2243 -0.0104
  617ERGO    R2 9315   7.681   6.061   9.725 -0.2185 -0.1002  0.1043
  617ERGO    R3 9316   7.495   5.944   9.566 -0.2271  0.0350  0.0136
  617ERGO    R4 9317   7.631   6.138   9.392 -0.0435 -0.0199  0.0952
  617ERGO    R5 9318   7.416   6.122   9.427 -0.0669  0.1032  0.0083
  617ERGO    C1 9319   7.427   6.073   9.049  0.0503  0.1537  0.0047
  617ERGO    C2 9320   7.578   6.146   8.787  0.0651 -0.2370  0.3375
  618ERGO   ROH 9321   4.767   1.224   9.626 -0.0158 -0.0221  0.1684
  618ERGO    R1 9322   4.820   1.321   9.365 -0.0857 -0.0105  0.1590
  618ERGO    R2 9323   4.910   1.157   9.161  0.0395  0.0337  0.1800
  618ERGO    R3 9324   4.695   1.258   9.029 -0.0360 -0.1416  0.1641
  618ERGO    R4 9325   4.867   1.150   8.818 -0.0294 -0.1794  0.1910
  618ERGO    R5 9326   4.786   1.352   8.829 -0.1221 -0.2105  0.0919
  618ERGO    C1 9327   4.640   1.240   8.495 -0.1404 -0.4680  0.1823
  618ERGO    C2 9328   4.584   1.076   8.247  0.0836 -0.0960  0.2270
  619ERGO   ROH 9329  10.594   8.145   9.454 -0.0098 -0.0857 -0.0148
  619ERGO    R1 9330  10.416   8.060   9.251 -0.0090  0.0231 -0.0630
  619ERGO    R2 9331  10.311   8.233   9.063  0.1402  0.0919 -0.0902
  619ERGO    R3 9332  10.414   8.053   8.887  0.0833  0.0332 -0.0629
  619ERGO    R4 9333  10.238   8.221   8.725  0.1229  0.0446 -0.0843
  619ERGO    R5 9334  10.234   8.004   8.738  0.0669  0.0515 -0.0447
  619ERGO    C1 9335  10.293   8.046   8.364  0.0595 -0.0380 -0.0552
  619ERGO    C2 9336  10.362   7.949   8.126  0.3765 -0.0743  0.1532
  620ERGO   ROH 9337   6.950   6.530  10.347 -0.5000 -0.1105  0.0639
  620ERGO    R1 9338   6.836   6.483  10.092 -0.4020 -0.0408  0.0064
  620ERGO    R2 9339   6.606   6.611  10.007 -0.3120  0.0576 -0.0871
  620ERGO    R3 9340   6.762   6.680   9.795 -0.1886  0.0168 -0.0112
  620ERGO    R4 9341   6.524   6.557   9.675 -0.1235 -0.0098 -0.1239
  620ERGO    R5 9342   6.732   6.502   9.638 -0.0985 -0.0171  0.0069
  620ERGO    C1 9343   6.623   6.591   9.284  0.1021 -0.0872 -0.0741
  620ERGO    C2 9344   6.664   6.641   8.919 -0.4045 -0.1603 -0.0393
  621ERGO   ROH 9345  12.481  11.092   9.330  0.0247 -0.1133 -0.0478
  621ERGO    R1 9346  12.394  11.125   9.063  0.0435 -0.0692 -0.0480
  621ERGO    R2 9347  12.448  11.352   8.915  0.0260 -0.0332  0.0060
  621ERGO    R3 9348  12.550  11.173   8.738  0.0639  0.0190 -0.0263
  621ERGO    R4 9349  12.451  11.394   8.572 -0.0430  0.0037  0.0091
  621ERGO    R5 9350  12.400  11.183   8.551  0.0288 -0.0155 -0.0029
  621ERGO    C1 9351  12.548  11.250   8.206 -0.0475  0.0742 -0.0194
  621ERGO    C2 9352  12.547  11.265   7.922 -0.0501  0.0442 -0.1049
  622ERGO   ROH 9353  12.574  15.367   9.982  0.0906 -0.0966  0.0156
  622ERGO    R1 9354  12.631  15.512   9.745  0.0637 -0.0451  0.0402
  622ERGO    R2 9355  12.796  15.412   9.547  0.0556  0.0058  0.0081
  622ERGO    R3 9356  12.582  15.464   9.388  0.0407  0.0237  0.0341
  622ERGO    R4 9357  12.809  15.448   9.203  0.0029 -0.0934 -0.0045
  622ERGO    R5 9358  12.667  15.613   9.220  0.0531 -0.0472 -0.0231
  622ERGO    C1 9359  12.616  15.518   8.854 -0.0418 -0.1344  0.0125
  622ERGO    C2 9360  12.742  15.436   8.478 -0.2807  0.1450 -0.0910
  623ERGO   ROH 9361  12.860   9.109   9.320 -0.0146  0.4719 -0.0956
  623ERGO    R1 9362  12.789   8.959   9.091  0.1742  0.1150  0.0712
  623ERGO    R2 9363  12.685   9.075   8.863 -0.1657 -0.2932  0.0018
  623ERGO    R3 9364  12.891   8.945   8.742  0.0455 -0.0003  0.0383
  623ERGO    R4 9365  12.721   9.037   8.521 -0.0465 -0.2510  0.0099
  623ERGO    R5 9366  12.790   8.833   8.556  0.2421 -0.1518  0.0235
  623ERGO    C1 9367  12.936   8.893   8.209  0.2211  0.0487  0.0487
  623ERGO    C2 9368  12.940   8.736   7.862  0.0592 -0.1941 -0.1101
  624ERGO   ROH 9369  14.706   2.399  10.207 -0.2232  0.1535  0.0340
  624ERGO    R1 9370  14.574   2.413   9.957 -0.0597  0.2401 -0.0480
  624ERGO    R2 9371  14.614   2.621   9.778  0.2491  0.1731 -0.0585
  624ERGO    R3 9372  14.673   2.420   9.606  0.1580  0.0878  0.0080
  624ERGO    R4 9373  14.645   2.656   9.436  0.1670  0.0283 -0.0820
  624ERGO    R5 9374  14.541   2.467   9.412  0.1160  0.0399  0.0228
  624ERGO    C1 9375  14.718   2.487   9.075  0.0338 -0.1361 -0.0332
  624ERGO    C2 9376  14.727   2.508   8.756  0.2057 -0.0198  0.2990
  625ERGO   ROH 9377   1.924   8.724  10.155 -0.3377  0.0106  0.0066
  625ERGO    R1 9378   1.910   8.812   9.886 -0.2874 -0.0137 -0.0039
  625ERGO    R2 9379   2.131   8.905   9.748 -0.2730  0.0302  0.0487
  625ERGO    R3 9380   2.058   8.715   9.568 -0.1778 -0.0021  0.0429
  625ERGO    R4 9381   2.173   8.929   9.406 -0.3118  0.0736  0.0468
  625ERGO    R5 9382   1.977   8.839   9.380 -0.2626 -0.0370  0.0559
  625ERGO    C1 9383   2.128   8.765   9.038 -0.2452  0.0687  0.0404
  625ERGO    C2 9384   2.082   8.659   8.606 -0.2692  0.2570 -0.2695
  626ERGO   ROH 9385   2.020   2.625  10.390 -0.1392  0.0496  0.2120
  626ERGO    R1 9386   2.070   2.478  10.153 -0.0118  0.1035  0.2044
  626ERGO    R2 9387   1.867   2.381   9.992  0.0665 -0.1031  0.2217
  626ERGO    R3 9388   2.001   2.518   9.799 -0.0894  0.0415  0.2133
  626ERGO    R4 9389   1.793   2.371   9.654  0.0383 -0.1449  0.2291
  626ERGO    R5 9390   2.006   2.368   9.612  0.0339  0.0643  0.2015
  626ERGO    C1 9391   1.876   2.493   9.277 -0.1246 -0.0334  0.2254
  626ERGO    C2 9392   1.965   2.529   9.017  0.0927 -0.3863 -0.2937
  627ERGO   ROH 9393   3.375  10.852   9.905  0.1226  0.0422 -0.0274
  627ERGO    R1 9394   3.505  10.802   9.658  0.0888  0.0536 -0.0461
  627ERGO    R2 9395   3.468  10.569   9.515  0.0832  0.0552 -0.0397
  627ERGO    R3 9396   3.404  10.741   9.314  0.0436  0.0507 -0.0330
  627ERGO    R4 9397   3.479  10.493   9.178  0.0566  0.0588 -0.0428
  627ERGO    R5 9398   3.561  10.691   9.140  0.0323  0.0690 -0.0503
  627ERGO    C1 9399   3.425  10.609   8.793  0.0040  0.0567 -0.0383
  627ERGO    C2 9400   3.422  10.596   8.402 -0.0662 -0.0417 -0.1620
  628ERGO   ROH 9401  15.248   8.461   6.143 -0.3633 -0.4218 -0.0033
  628ERGO    R1 9402  15.161   8.393   6.403 -0.2326 -0.2923  0.0754
  628ERGO    R2 9403  15.337   8.341   6.610 -0.1303 -0.1641  0.0190
  628ERGO    R3 9404  15.193   8.533   6.738 -0.0878 -0.1120 -0.0110
  628ERGO    R4 9405  15.360   8.413   6.947 -0.1354 -0.1501  0.0161
  628ERGO    R5 9406  15.143   8.437   6.952 -0.1336 -0.0867 -0.0066
  628ERGO    C1 9407  15.238   8.634   7.264 -0.0986 -0.0930 -0.0137
  628ERGO    C2 9408  15.292   8.754   7.592 -0.4234  0.1898  0.0335
  629ERGO   ROH 9409   2.977   4.974  10.241 -0.0659  0.0735  0.1275
  629ERGO    R1 9410   2.883   4.987   9.974  0.0247  0.1771  0.0993
  629ERGO    R2 9411   2.950   5.192   9.802  0.2746  0.1235  0.1269
  629ERGO    R3 9412   3.030   4.988   9.642  0.1275  0.0516  0.1439
  629ERGO    R4 9413   2.945   5.199   9.457 -0.0524 -0.0388  0.1255
  629ERGO    R5 9414   2.876   4.992   9.459 -0.0459 -0.0390  0.2867
  629ERGO    C1 9415   3.016   5.011   9.105 -0.3810 -0.2009  0.1407
  629ERGO    C2 9416   3.063   5.007   8.795 -0.0752 -0.0826 -0.2003
  630ERGO   ROH 9417   0.370   4.680   7.401  0.1217  0.0735 -0.0118
  630ERGO    R1 9418   0.297   4.668   7.675 -0.0496  0.1406 -0.0524
  630ERGO    R2 9419   0.058   4.559   7.761 -0.0025 -0.0612 -0.1560
  630ERGO    R3 9420   0.221   4.408   7.918  0.0547  0.1839  0.0254
  630ERGO    R4 9421  -0.047   4.372   8.032  0.0041 -0.1251 -0.1982
  630ERGO    R5 9422   0.132   4.436   8.139 -0.1685  0.1289 -0.0587
  630ERGO    C1 9423   0.044   4.122   8.337  0.0616  0.0677 -0.0524
  630ERGO    C2 9424  -0.174   3.928   8.447  0.0327 -0.1566 -0.0149
  631ERGO   ROH 9425   2.714  14.978   9.816  0.1539 -0.1992  0.0902
  631ERGO    R1 9426   2.557  14.948   9.582  0.0862 -0.3895  0.1586
  631ERGO    R2 9427   2.582  15.116   9.364 -0.3307 -0.2458  0.2134
  631ERGO    R3 9428   2.619  14.882   9.230  0.0330 -0.1311  0.0986
  631ERGO    R4 9429   2.582  15.082   9.020 -0.0769 -0.0546  0.1912
  631ERGO    R5 9430   2.471  14.897   9.042  0.1293 -0.2044  0.0157
  631ERGO    C1 9431   2.616  14.844   8.694  0.4124  0.1644  0.0704
  631ERGO    C2 9432   2.658  14.799   8.270  0.0197  0.2308 -0.3099
  632ERGO   ROH 9433   3.778  17.680   9.945 -0.1174 -0.0881  0.0962
  632ERGO    R1 9434   3.769  17.780   9.680 -0.0881 -0.0636  0.1049
  632ERGO    R2 9435   3.926  17.680   9.477 -0.1259 -0.0994  0.0961
  632ERGO    R3 9436   3.688  17.649   9.350 -0.1373 -0.0091  0.0944
  632ERGO    R4 9437   3.887  17.641   9.136 -0.1281 -0.1677  0.1035
  632ERGO    R5 9438   3.713  17.772   9.146 -0.0633 -0.0731  0.0629
  632ERGO    C1 9439   3.640  17.591   8.818 -0.1402 -0.1225  0.1062
  632ERGO    C2 9440   3.644  17.554   8.596 -0.1661 -0.3166  0.0741
  633ERGO   ROH 9441   4.684   6.657   9.899  0.0815 -0.1721 -0.0959
  633ERGO    R1 9442   4.788   6.593   9.644  0.0760 -0.1988 -0.0903
  633ERGO    R2 9443   4.636   6.475   9.446  0.0332 -0.0797 -0.1224
  633ERGO    R3 9444   4.721   6.687   9.299  0.1787 -0.1123 -0.0886
  633ERGO    R4 9445   4.695   6.466   9.106 -0.4719  0.0514 -0.2228
  633ERGO    R5 9446   4.872   6.590   9.139 -0.2042 -0.2646 -0.3790
  633ERGO    C1 9447   4.809   6.659   8.769 -0.6294  0.0971 -0.2496
  633ERGO    C2 9448   4.917   6.610   8.467  0.2530 -0.0561  0.1213
  634ERGO   ROH 9449   1.540   9.895  10.073 -0.0515 -0.4639 -0.2253
  634ERGO    R1 9450   1.538  10.075   9.855 -0.1642 -0.3676 -0.1494
  634ERGO    R2 9451   1.761  10.119   9.696 -0.1306 -0.0294 -0.0363
  634ERGO    R3 9452   1.590  10.055   9.495  0.0322 -0.1593 -0.1318
  634ERGO    R4 9453   1.804  10.206   9.365 -0.2298  0.3607  0.0499
  634ERGO    R5 9454   1.590  10.247   9.352 -0.2993 -0.0269  0.0480
  634ERGO    C1 9455   1.668  10.196   8.983 -0.1348  0.4662  0.0103
  634ERGO    C2 9456   1.575  10.231   8.764 -0.0813  0.1061  0.1851
  635ERGO   ROH 9457   2.133  10.941   6.527  0.1302  0.2102 -0.1523
  635ERGO    R1 9458   2.217  11.049   6.774  0.1739 -0.1601  0.0002
  635ERGO    R2 9459   2.053  11.208   6.931  0.3983  0.1010 -0.0361
  635ERGO    R3 9460   2.114  11.025   7.122 -0.1792 -0.1830 -0.0994
  635ERGO    R4 9461   2.027  11.262   7.271  0.7860  0.1853 -0.0132
  635ERGO    R5 9462   2.214  11.154   7.298  0.4267 -0.5513 -0.1339
  635ERGO    C1 9463   2.068  11.122   7.649  0.4696 -0.0323 -0.0593
  635ERGO    C2 9464   1.991  10.930   7.958  0.2509 -0.2014  0.1345
  636ERGO   ROH 9465   9.734   2.790   6.300  0.0327  0.2739 -0.2677
  636ERGO    R1 9466   9.684   3.013   6.467 -0.0383  0.2065 -0.1985
  636ERGO    R2 9467   9.550   3.238   6.379 -0.1756  0.1606 -0.1072
  636ERGO    R3 9468   9.390   3.188   6.593 -0.0959  0.0270 -0.0777
  636ERGO    R4 9469   9.423   3.479   6.591 -0.2956  0.0546 -0.0571
  636ERGO    R5 9470   9.462   3.346   6.758 -0.1666  0.0617 -0.0775
  636ERGO    C1 9471   9.199   3.573   6.915 -0.2907 -0.1326 -0.0002
  636ERGO    C2 9472   8.989   3.443   7.216  0.3315 -0.0573  0.0774
  637ERGO   ROH 9473  12.423   4.170   9.712  0.2381  0.0009  0.1031
  637ERGO    R1 9474  12.486   4.038   9.470  0.0255 -0.0976  0.0990
  637ERGO    R2 9475  12.294   3.965   9.286 -0.1017  0.1945  0.1092
  637ERGO    R3 9476  12.449   4.107   9.114  0.1091 -0.0383  0.1017
  637ERGO    R4 9477  12.329   3.896   8.949 -0.1808  0.1137  0.1166
  637ERGO    R5 9478  12.542   3.942   8.968 -0.1147 -0.1835  0.1207
  637ERGO    C1 9479  12.496   3.990   8.592 -0.0289 -0.1519  0.1138
  637ERGO    C2 9480  12.405   4.195   8.402  0.0434  0.0441 -0.1667
  638ERGO   ROH 9481   7.470   7.704   6.417  0.0572 -0.3882 -0.1608
  638ERGO    R1 9482   7.322   7.641   6.650  0.0139 -0.3892 -0.1886
  638ERGO    R2 9483   7.368   7.412   6.799  0.2457 -0.2031  0.0327
  638ERGO    R3 9484   7.394   7.589   7.003 -0.1068  0.0107 -0.0994
  638ERGO    R4 9485   7.310   7.341   7.132  0.4242 -0.0881  0.0895
  638ERGO    R5 9486   7.216   7.535   7.152  0.0114 -0.2609 -0.0476
  638ERGO    C1 9487   7.301   7.466   7.518  0.1973  0.1796 -0.0015
  638ERGO    C2 9488   7.511   7.524   7.799 -0.2562 -0.0648 -0.1863
  639ERGO   ROH 9489   6.092  10.518   9.919  0.0969  0.2456  0.1768
  639ERGO    R1 9490   6.199  10.615   9.676  0.0777  0.1256  0.1208
  639ERGO    R2 9491   6.338  10.453   9.499 -0.0645  0.0068  0.1231
  639ERGO    R3 9492   6.155  10.546   9.322 -0.0633  0.0623  0.1489
  639ERGO    R4 9493   6.372  10.444   9.155 -0.0878  0.0372  0.1191
  639ERGO    R5 9494   6.284  10.642   9.146 -0.0536  0.0595  0.1495
  639ERGO    C1 9495   6.219  10.525   8.789 -0.1003  0.1070  0.1411
  639ERGO    C2 9496   6.284  10.673   8.544  0.3590  0.2385  0.0950
  640ERGO   ROH 9497   5.486  16.483   9.664  0.2034  0.2626 -0.0838
  640ERGO    R1 9498   5.336  16.461   9.425  0.1250  0.1096 -0.0223
  640ERGO    R2 9499   5.377  16.626   9.208 -0.0395  0.0617 -0.0929
  640ERGO    R3 9500   5.406  16.391   9.075  0.0307  0.0325 -0.0259
  640ERGO    R4 9501   5.336  16.586   8.867  0.0388 -0.0348 -0.0911
  640ERGO    R5 9502   5.235  16.397   8.907  0.0652 -0.0422 -0.0631
  640ERGO    C1 9503   5.339  16.342   8.544  0.1503 -0.1182 -0.0271
  640ERGO    C2 9504   5.389  16.313   8.222 -0.0285 -0.3791  0.2025
  641ERGO   ROH 9505  17.139   4.369  10.151 -0.1148 -0.1092  0.0675
  641ERGO    R1 9506  17.127   4.481   9.891 -0.0515 -0.0240  0.0996
  641ERGO    R2 9507  17.282   4.388   9.682  0.0077  0.0471  0.1031
  641ERGO    R3 9508  17.042   4.365   9.557  0.0373  0.0788  0.0427
  641ERGO    R4 9509  17.240   4.343   9.342  0.0701  0.2162  0.0729
  641ERGO    R5 9510  17.072   4.481   9.350  0.0555  0.1851  0.1099
  641ERGO    C1 9511  16.991   4.295   9.027  0.1343  0.3444 -0.0014
  641ERGO    C2 9512  17.071   4.288   8.770  0.0932  0.1245  0.1627
  642ERGO   ROH 9513   2.180   1.046   9.931 -0.1737  0.1115  0.1234
  642ERGO    R1 9514   2.263   1.204   9.711  0.0019  0.0561  0.1464
  642ERGO    R2 9515   2.430   1.107   9.513 -0.1090 -0.1047  0.1213
  642ERGO    R3 9516   2.230   1.190   9.349 -0.0259  0.1503  0.1467
  642ERGO    R4 9517   2.454   1.133   9.169 -0.1984 -0.3760  0.0933
  642ERGO    R5 9518   2.340   1.319   9.180  0.1414 -0.1606  0.0164
  642ERGO    C1 9519   2.279   1.227   8.815 -0.1723 -0.2945  0.1007
  642ERGO    C2 9520   2.249   1.352   8.450  0.0875  0.0837  0.1341
  643ERGO   ROH 9521   5.663   7.837   9.968  0.1684  0.1702  0.0356
  643ERGO    R1 9522   5.713   7.706   9.722  0.1162  0.1277  0.0485
  643ERGO    R2 9523   5.530   7.704   9.516  0.0925  0.1283  0.0753
  643ERGO    R3 9524   5.739   7.802   9.372  0.0893  0.0712  0.0297
  643ERGO    R4 9525   5.556   7.690   9.171  0.0783 -0.0195  0.0792
  643ERGO    R5 9526   5.768   7.643   9.195  0.0840 -0.0084  0.0947
  643ERGO    C1 9527   5.767   7.773   8.836  0.0670 -0.1591  0.0385
  643ERGO    C2 9528   5.812   7.638   8.505  0.2126 -0.3727 -0.1843
  644ERGO   ROH 9529   1.463  12.306   9.998 -0.1280 -0.2885 -0.0089
  644ERGO    R1 9530   1.605  12.377   9.764 -0.0272 -0.2119  0.0739
  644ERGO    R2 9531   1.710  12.189   9.591 -0.0113 -0.1559  0.0230
  644ERGO    R3 9532   1.565  12.326   9.406  0.0880 -0.0345  0.0342
  644ERGO    R4 9533   1.757  12.168   9.249  0.0255 -0.1058  0.0250
  644ERGO    R5 9534   1.725  12.383   9.237  0.1445 -0.0836  0.0694
  644ERGO    C1 9535   1.650  12.285   8.876  0.1401  0.0375  0.0368
  644ERGO    C2 9536   1.629  12.245   8.511 -0.1248  0.1419  0.1223
  645ERGO   ROH 9537  10.178   7.474   9.697  0.1628 -0.2411  0.0273
  645ERGO    R1 9538  10.005   7.573   9.496  0.1295 -0.2183  0.0659
  645ERGO    R2 9539  10.095   7.648   9.246  0.1123 -0.0514  0.1023
  645ERGO    R3 9540   9.905   7.473   9.161  0.1977 -0.0997  0.0117
  645ERGO    R4 9541   9.982   7.621   8.920  0.0968  0.0683  0.0977
  645ERGO    R5 9542   9.780   7.595   8.998  0.1221 -0.0796  0.0924
  645ERGO    C1 9543   9.739   7.441   8.651  0.1680  0.0927  0.0100
  645ERGO    C2 9544   9.920   7.325   8.533  0.1385 -0.2411  0.0627
  646ERGO   ROH 9545   0.539   4.732  10.494  0.3172  0.0774 -0.0269
  646ERGO    R1 9546   0.473   4.750  10.219  0.1652  0.0520  0.0073
  646ERGO    R2 9547   0.568   4.952  10.056  0.1538 -0.0187 -0.0837
  646ERGO    R3 9548   0.654   4.745   9.903 -0.0199 -0.0819 -0.0992
  646ERGO    R4 9549   0.575   4.951   9.710  0.0559 -0.0340 -0.0863
  646ERGO    R5 9550   0.506   4.745   9.715 -0.0761  0.0061 -0.0587
  646ERGO    C1 9551   0.660   4.756   9.366 -0.1642 -0.1024 -0.1023
  646ERGO    C2 9552   0.643   4.795   8.971  0.0226  0.1222  0.1886
  647ERGO   ROH 9553   8.658   9.554   6.318 -0.3743 -0.3813 -0.0943
  647ERGO    R1 9554   8.640   9.451   6.581 -0.3693 -0.1616 -0.0056
  647ERGO    R2 9555   8.852   9.459   6.759 -0.2889 -0.2239 -0.0963
  647ERGO    R3 9556   8.670   9.583   6.919 -0.1102  0.0750 -0.1171
  647ERGO    R4 9557   8.904   9.539   7.091 -0.0936 -0.0339 -0.1704
  647ERGO    R5 9558   8.699   9.478   7.133 -0.1412  0.2007 -0.0516
  647ERGO    C1 9559   8.764   9.702   7.435  0.1877  0.3574 -0.2331
  647ERGO    C2 9560   8.900   9.887   7.677 -0.3220  0.1962  0.4178
  648ERGO   ROH 9561  17.392  10.123   9.886  0.0891  0.2345 -0.0137
  648ERGO    R1 9562  17.522  10.040   9.649 -0.0431 -0.1289  0.0349
  648ERGO    R2 9563  17.412   9.855   9.476 -0.4467  0.0887  0.0518
  648ERGO    R3 9564  17.453  10.051   9.291  0.0676 -0.0379  0.0146
  648ERGO    R4 9565  17.467   9.801   9.139 -0.6066 -0.1278  0.0579
  648ERGO    R5 9566  17.617   9.959   9.143 -0.1708 -0.5121  0.0206
  648ERGO    C1 9567  17.538   9.953   8.770 -0.2168 -0.3727  0.0266
  648ERGO    C2 9568  17.482   9.897   8.358 -0.0534 -0.1800  0.2827
  649ERGO   ROH 9569   4.177  14.161  10.031  0.1601  0.1770 -0.0854
  649ERGO    R1 9570   4.039  14.053   9.809  0.0668  0.1189 -0.0013
  649ERGO    R2 9571   3.921  14.211   9.615  0.0355  0.0706 -0.0288
  649ERGO    R3 9572   4.074  14.062   9.447 -0.0439 -0.0247 -0.0151
  649ERGO    R4 9573   3.902  14.219   9.270  0.0304  0.0292 -0.0285
  649ERGO    R5 9574   3.926  14.003   9.269 -0.0740  0.0216 -0.0009
  649ERGO    C1 9575   4.034  14.083   8.912 -0.0471 -0.0844 -0.0154
  649ERGO    C2 9576   4.007  13.932   8.603  0.3100  0.2901 -0.0207
  650ERGO   ROH 9577   1.492   0.222   9.818  0.2231  0.0111 -0.1568
  650ERGO    R1 9578   1.533   0.087   9.573  0.1424  0.0466 -0.1901
  650ERGO    R2 9579   1.324   0.016   9.405  0.0804 -0.0032 -0.0917
  650ERGO    R3 9580   1.469   0.154   9.221 -0.0556  0.0590 -0.1529
  650ERGO    R4 9581   1.335  -0.058   9.068  0.0645 -0.0760 -0.0764
  650ERGO    R5 9582   1.549  -0.015   9.070  0.0358  0.0795 -0.1289
  650ERGO    C1 9583   1.477   0.028   8.698 -0.0724 -0.0600 -0.1249
  650ERGO    C2 9584   1.308   0.092   8.388  0.4142 -0.0976 -0.0180
  651ERGO   ROH 9585   2.140   2.834   6.728  0.0644  0.2637 -0.0061
  651ERGO    R1 9586   2.244   2.747   6.976 -0.2837  0.0731  0.0792
  651ERGO    R2 9587   2.475   2.851   7.085 -0.0979 -0.4366  0.1903
  651ERGO    R3 9588   2.315   2.897   7.300 -0.1281 -0.0138  0.0876
  651ERGO    R4 9589   2.587   2.947   7.398 -0.0607 -0.4944  0.1955
  651ERGO    R5 9590   2.440   2.813   7.486 -0.3786 -0.1712  0.1941
  651ERGO    C1 9591   2.502   3.046   7.781 -0.0673 -0.1311  0.1020
  651ERGO    C2 9592   2.619   3.190   8.076 -0.2190 -0.0897  0.1042
  652ERGO   ROH 9593   8.493  14.679   8.306 -0.0672  0.1809  0.2292
  652ERGO    R1 9594   8.761  14.726   8.227 -0.0965  0.0965  0.0749
  652ERGO    R2 9595   8.922  14.913   8.350 -0.0046  0.1386 -0.1001
  652ERGO    R3 9596   9.090  14.701   8.379 -0.0277  0.1249 -0.0689
  652ERGO    R4 9597   9.267  14.931   8.333  0.0025  0.1132  0.0109
  652ERGO    R5 9598   9.266  14.743   8.222  0.0248  0.1268 -0.0073
  652ERGO    C1 9599   9.625  14.743   8.350 -0.0151  0.0856  0.1050
  652ERGO    C2 9600   9.984  14.555   8.312 -0.2018 -0.2980 -0.1748
  653ERGO   ROH 9601  15.662   6.036  10.304 -0.0394  0.0541 -0.1304
  653ERGO    R1 9602  15.727   5.939  10.047 -0.0007  0.1198 -0.1478
  653ERGO    R2 9603  15.573   5.751   9.915  0.1480 -0.0407 -0.1193
  653ERGO    R3 9604  15.573   5.938   9.717 -0.0824 -0.0274 -0.1066
  653ERGO    R4 9605  15.589   5.681   9.577  0.1716  0.0188 -0.1290
  653ERGO    R5 9606  15.724   5.851   9.553 -0.0201  0.1580 -0.1377
  653ERGO    C1 9607  15.599   5.816   9.194 -0.0311  0.0659 -0.1228
  653ERGO    C2 9608  15.657   5.632   8.958  0.1759  0.2500  0.1626
  654ERGO   ROH 9609  12.485   7.383   5.938 -0.2022  0.2404  0.0633
  654ERGO    R1 9610  12.500   7.344   6.218 -0.2668  0.1597  0.0573
  654ERGO    R2 9611  12.633   7.519   6.386 -0.0380 -0.0433  0.1072
  654ERGO    R3 9612  12.395   7.524   6.516 -0.0464  0.2423  0.0838
  654ERGO    R4 9613  12.592   7.593   6.721  0.0251 -0.1971  0.1487
  654ERGO    R5 9614  12.443   7.435   6.733 -0.2174  0.0298  0.0295
  654ERGO    C1 9615  12.344   7.640   7.038  0.0541 -0.0186  0.1510
  654ERGO    C2 9616  12.143   7.870   7.141  0.1167  0.0560  0.0410
  655ERGO   ROH 9617   2.904   1.829   9.985 -0.0948  0.0487  0.0633
  655ERGO    R1 9618   2.823   1.936   9.736  0.0274  0.0521  0.0247
  655ERGO    R2 9619   2.999   2.065   9.566  0.1725 -0.1840 -0.0114
  655ERGO    R3 9620   2.908   1.883   9.386 -0.0098 -0.1513  0.0457
  655ERGO    R4 9621   2.995   2.111   9.223  0.0890 -0.2383 -0.0180
  655ERGO    R5 9622   2.799   2.014   9.218  0.0230 -0.1071  0.0609
  655ERGO    C1 9623   2.907   1.966   8.855 -0.1308 -0.2392  0.0317
  655ERGO    C2 9624   2.898   1.963   8.556 -0.0107  0.1436 -0.1858
  656ERGO   ROH 9625  16.268  15.282   9.919  0.2053 -0.1440 -0.0034
  656ERGO    R1 9626  16.339  15.423   9.683  0.0224 -0.0998 -0.0357
  656ERGO    R2 9627  16.507  15.316   9.491  0.1259  0.0534 -0.0437
  656ERGO    R3 9628  16.300  15.374   9.325  0.0327 -0.2066 -0.0203
  656ERGO    R4 9629  16.529  15.342   9.147  0.0569  0.1569 -0.0392
  656ERGO    R5 9630  16.395  15.513   9.156 -0.1822 -0.0383  0.0017
  656ERGO    C1 9631  16.347  15.413   8.791 -0.0706 -0.0267 -0.0145
  656ERGO    C2 9632  16.274  15.252   8.405 -0.1642 -0.1027 -0.0833
  657ERGO   ROH 9633  15.909  16.443  10.018  0.0951 -0.0078 -0.0172
  657ERGO    R1 9634  15.795  16.579   9.798 -0.0217 -0.0748  0.0015
  657ERGO    R2 9635  15.933  16.770   9.653 -0.1694  0.0320  0.0009
  657ERGO    R3 9636  15.865  16.612   9.442 -0.0773 -0.0035 -0.0031
  657ERGO    R4 9637  15.970  16.856   9.320 -0.2703  0.0828  0.0022
  657ERGO    R5 9638  15.777  16.763   9.280 -0.2075 -0.0559  0.0172
  657ERGO    C1 9639  15.928  16.758   8.929 -0.2425  0.0791 -0.0008
  657ERGO    C2 9640  15.954  16.663   8.685  0.1682  0.0189  0.0350
  658ERGO   ROH 9641  11.736  16.189  10.291 -0.1929  0.1620 -0.0948
  658ERGO    R1 9642  11.685  16.023  10.068 -0.1978  0.0764 -0.0300
  658ERGO    R2 9643  11.535  16.107   9.851 -0.0508  0.0560 -0.1392
  658ERGO    R3 9644  11.755  16.029   9.711 -0.0363 -0.1551 -0.0049
  658ERGO    R4 9645  11.548  16.069   9.507  0.1468  0.1389 -0.1430
  658ERGO    R5 9646  11.669  15.890   9.536 -0.0749 -0.0097 -0.1047
  658ERGO    C1 9647  11.761  15.974   9.176  0.2755 -0.0108 -0.0190
  658ERGO    C2 9648  11.802  16.030   8.799  0.0225 -0.0136  0.0617
  659ERGO   ROH 9649  11.520   8.407   9.461  0.0401  0.0478 -0.1412
  659ERGO    R1 9650  11.504   8.349   9.184  0.1236 -0.0375 -0.1287
  659ERGO    R2 9651  11.266   8.359   9.044  0.1029 -0.4180 -0.1317
  659ERGO    R3 9652  11.406   8.528   8.882 -0.1421 -0.2436 -0.1678
  659ERGO    R4 9653  11.221   8.387   8.702 -0.1423 -0.3346 -0.0947
  659ERGO    R5 9654  11.438   8.403   8.680 -0.1680 -0.1460 -0.2322
  659ERGO    C1 9655  11.326   8.561   8.352 -0.5151 -0.1222 -0.1071
  659ERGO    C2 9656  11.469   8.557   8.013  0.0469 -0.1472 -0.2275
  660ERGO   ROH 9657  11.710   2.748  10.020 -0.0192  0.1981  0.0716
  660ERGO    R1 9658  11.821   2.783   9.762 -0.0652  0.2753  0.0609
  660ERGO    R2 9659  11.834   2.578   9.577  0.2489  0.2243  0.1313
  660ERGO    R3 9660  11.704   2.756   9.418 -0.0226 -0.0257  0.0674
  660ERGO    R4 9661  11.855   2.586   9.232  0.4501  0.2870  0.1445
  660ERGO    R5 9662  11.860   2.804   9.243 -0.0033  0.3067  0.1682
  660ERGO    C1 9663  11.744   2.757   8.882  0.3126  0.0889  0.0922
  660ERGO    C2 9664  11.727   2.646   8.441  0.0499 -0.2900 -0.3243
  661ERGO   ROH 9665   2.407  12.819  10.030 -0.1785 -0.0157  0.0085
  661ERGO    R1 9666   2.511  12.931   9.792 -0.2247  0.0236  0.0069
  661ERGO    R2 9667   2.679  12.790   9.622 -0.1252  0.1076  0.0363
  661ERGO    R3 9668   2.493  12.858   9.436 -0.1492 -0.0227  0.0118
  661ERGO    R4 9669   2.728  12.779   9.280 -0.0178  0.2826  0.0442
  661ERGO    R5 9670   2.618  12.966   9.263 -0.2143  0.1750  0.0840
  661ERGO    C1 9671   2.581  12.835   8.906  0.0222  0.2620  0.0258
  661ERGO    C2 9672   2.594  12.713   8.578  0.1027 -0.2713  0.1831
  662ERGO   ROH 9673  15.533   7.568  10.180 -0.1469  0.0105  0.0935
  662ERGO    R1 9674  15.610   7.633   9.916 -0.0145  0.1051  0.1549
  662ERGO    R2 9675  15.871   7.691   9.848  0.0672 -0.1351  0.2559
  662ERGO    R3 9676  15.832   7.495   9.664 -0.1081  0.0292  0.1132
  662ERGO    R4 9677  15.979   7.703   9.519 -0.0162  0.0502  0.2337
  662ERGO    R5 9678  15.791   7.612   9.459 -0.0918  0.2151  0.2135
  662ERGO    C1 9679  16.005   7.526   9.156 -0.2292  0.3125  0.0868
  662ERGO    C2 9680  16.153   7.567   8.837  0.3120  0.0711  0.0559
  663ERGO   ROH 9681   5.467   5.623  10.249 -0.0524 -0.1705  0.0552
  663ERGO    R1 9682   5.278   5.593  10.040 -0.0352  0.0282  0.0093
  663ERGO    R2 9683   5.218   5.797   9.863  0.2267  0.0916 -0.0102
  663ERGO    R3 9684   5.281   5.610   9.676  0.0724  0.0186  0.0095
  663ERGO    R4 9685   5.250   5.859   9.525  0.2447  0.0212 -0.0218
  663ERGO    R5 9686   5.149   5.669   9.486  0.1005  0.0904  0.0125
  663ERGO    C1 9687   5.327   5.719   9.152  0.1104 -0.0883 -0.0100
  663ERGO    C2 9688   5.392   5.899   8.756 -0.1098 -0.0970 -0.0127
  664ERGO   ROH 9689  15.863   0.580  10.330 -0.0041  0.0870 -0.0373
  664ERGO    R1 9690  15.950   0.642  10.068 -0.1779  0.2510 -0.0579
  664ERGO    R2 9691  16.016   0.447   9.883  0.1678  0.3689 -0.0602
  664ERGO    R3 9692  15.834   0.578   9.728 -0.1261  0.0100 -0.0333
  664ERGO    R4 9693  16.016   0.449   9.537  0.3146  0.6116 -0.0615
  664ERGO    R5 9694  15.963   0.660   9.543 -0.2506  0.4863  0.0742
  664ERGO    C1 9695  15.846   0.572   9.191  0.1241  0.4160 -0.0371
  664ERGO    C2 9696  15.881   0.687   8.916 -0.0693 -0.3425 -0.0613
  665ERGO   ROH 9697  15.281   1.389  10.458 -0.1581  0.2663  0.0228
  665ERGO    R1 9698  15.341   1.484  10.199 -0.1642  0.0253 -0.0680
  665ERGO    R2 9699  15.565   1.403  10.058 -0.1183 -0.0262  0.0499
  665ERGO    R3 9700  15.383   1.340   9.867 -0.0614 -0.2950  0.0773
  665ERGO    R4 9701  15.608   1.454   9.719 -0.2381  0.0598  0.0456
  665ERGO    R5 9702  15.400   1.517   9.707 -0.3480 -0.2485  0.0827
  665ERGO    C1 9703  15.461   1.425   9.343 -0.2545 -0.1424  0.0689
  665ERGO    C2 9704  15.550   1.452   8.998  0.1825  0.1940  0.1267
  666ERGO   ROH 9705   9.916  15.704  10.282 -0.2032 -0.0372 -0.0715
  666ERGO    R1 9706   9.832  15.551  10.059  0.2882 -0.2810 -0.1002
  666ERGO    R2 9707   9.676  15.656   9.856 -0.2614 -0.7860  0.0449
  666ERGO    R3 9708   9.877  15.563   9.698  0.0590  0.0889 -0.1248
  666ERGO    R4 9709   9.658  15.622   9.513 -0.4201 -0.8390  0.0564
  666ERGO    R5 9710   9.766  15.434   9.530  0.4504 -0.4147 -0.0328
  666ERGO    C1 9711   9.836  15.515   9.164 -0.2117 -0.0484 -0.0962
  666ERGO    C2 9712   9.973  15.472   8.906 -0.1664  0.1722  0.0940
  667ERGO   ROH 9713   4.456   1.694   9.575 -0.0588 -0.0942  0.0845
  667ERGO    R1 9714   4.380   1.578   9.328 -0.1495  0.0725  0.0328
  667ERGO    R2 9715   4.246   1.719   9.132  0.0307  0.2875  0.0619
  667ERGO    R3 9716   4.452   1.635   8.976 -0.0356  0.1179  0.0630
  667ERGO    R4 9717   4.235   1.695   8.787  0.0477  0.3978  0.0528
  667ERGO    R5 9718   4.347   1.508   8.802 -0.1472  0.2758  0.0132
  667ERGO    C1 9719   4.422   1.602   8.440 -0.0047  0.3028  0.0485
  667ERGO    C2 9720   4.207   1.658   8.193  0.1595 -0.0228  0.1248
  668ERGO   ROH 9721   1.854   4.193  10.364 -0.1380  0.0767  0.0959
  668ERGO    R1 9722   1.972   4.061  10.143 -0.1373  0.0867  0.0902
  668ERGO    R2 9723   1.826   3.978   9.924 -0.1329  0.1175  0.0751
  668ERGO    R3 9724   2.010   4.124   9.787 -0.1144  0.1154  0.0978
  668ERGO    R4 9725   1.849   3.993   9.579  0.0546 -0.0631  0.0780
  668ERGO    R5 9726   2.067   3.987   9.598  0.0467  0.0338  0.2037
  668ERGO    C1 9727   2.035   4.138   9.250  0.1812 -0.1703  0.1009
  668ERGO    C2 9728   2.014   3.980   8.883  0.0731 -0.0816 -0.0267
  669ERGO   ROH 9729   5.252   3.945  10.294  0.1130 -0.2032  0.0105
  669ERGO    R1 9730   5.316   4.120  10.081 -0.0892 -0.0460  0.0757
  669ERGO    R2 9731   5.472   4.043   9.866  0.1506  0.2628  0.1305
  669ERGO    R3 9732   5.259   4.132   9.722  0.0573 -0.0756  0.0508
  669ERGO    R4 9733   5.488   4.157   9.541  0.1211  0.4172  0.1828
  669ERGO    R5 9734   5.347   4.315   9.594 -0.2053  0.1409  0.1685
  669ERGO    C1 9735   5.298   4.308   9.215  0.0164  0.1894  0.1384
  669ERGO    C2 9736   5.199   4.190   8.908 -0.0869  0.1092  0.0737
  670ERGO   ROH 9737   7.910   2.342   9.283  0.3821  0.1041 -0.1120
  670ERGO    R1 9738   7.734   2.418   9.075  0.0900 -0.0588  0.0691
  670ERGO    R2 9739   7.816   2.447   8.813 -0.1457  0.2753  0.0254
  670ERGO    R3 9740   7.613   2.273   8.764  0.1219 -0.0575  0.0559
  670ERGO    R4 9741   7.718   2.342   8.498 -0.1660  0.2968  0.0244
  670ERGO    R5 9742   7.511   2.357   8.564 -0.1583 -0.1085  0.1725
  670ERGO    C1 9743   7.470   2.118   8.269  0.0732 -0.0032  0.0523
  670ERGO    C2 9744   7.325   1.952   8.035  0.2214 -0.2345  0.0407
  671ERGO   ROH 9745   9.965   6.798   6.475 -0.1045  0.5091 -0.1591
  671ERGO    R1 9746   9.923   6.984   6.685 -0.2503  0.2911  0.0104
  671ERGO    R2 9747   9.761   6.929   6.902 -0.0102 -0.1306  0.0976
  671ERGO    R3 9748   9.983   6.997   7.043 -0.0059  0.1169 -0.0234
  671ERGO    R4 9749   9.766   6.999   7.240  0.1008 -0.1181  0.0931
  671ERGO    R5 9750   9.907   7.161   7.200 -0.0994  0.0351  0.0138
  671ERGO    C1 9751   9.978   7.104   7.570  0.1693  0.1215 -0.0232
  671ERGO    C2 9752   9.916   7.126   7.940 -0.2178 -0.1613 -0.2809
  672ERGO   ROH 9753   0.008   9.579   9.902 -0.1523 -0.0359  0.0039
  672ERGO    R1 9754   0.184   9.501   9.695 -0.1149 -0.1944  0.0936
  672ERGO    R2 9755   0.119   9.307   9.509 -0.2242 -0.0878  0.0215
  672ERGO    R3 9756   0.181   9.503   9.331  0.1012 -0.1219  0.0901
  672ERGO    R4 9757   0.183   9.256   9.173 -0.2282 -0.0877  0.0204
  672ERGO    R5 9758   0.343   9.403   9.186 -0.0109 -0.3219  0.0970
  672ERGO    C1 9759   0.278   9.411   8.810  0.0750 -0.1196  0.0844
  672ERGO    C2 9760   0.341   9.213   8.623 -0.0390 -0.0510  0.2853
  673ERGO   ROH 9761   2.077  17.066   9.772 -0.2204  0.2005  0.0603
  673ERGO    R1 9762   1.918  16.933   9.579 -0.1497  0.1371  0.0453
  673ERGO    R2 9763   1.762  17.069   9.395 -0.1070  0.0767 -0.0366
  673ERGO    R3 9764   1.900  16.919   9.216 -0.0378  0.0440  0.0434
  673ERGO    R4 9765   1.671  17.021   9.065  0.1347  0.1857 -0.1216
  673ERGO    R5 9766   1.731  16.813   9.084  0.0159  0.1534 -0.1139
  673ERGO    C1 9767   1.748  16.852   8.705  0.3404  0.2183 -0.0959
  673ERGO    C2 9768   1.783  16.947   8.375  0.2227 -0.2457 -0.0133
  674ERGO   ROH 9769   7.234   7.581  10.077  0.0874 -0.0553 -0.1504
  674ERGO    R1 9770   7.128   7.706   9.847 -0.0019  0.0609 -0.0464
  674ERGO    R2 9771   7.247   7.925   9.728  0.0776 -0.0217 -0.1152
  674ERGO    R3 9772   7.236   7.768   9.506 -0.2332  0.0157 -0.1303
  674ERGO    R4 9773   7.169   8.038   9.411  0.0913  0.1263 -0.0667
  674ERGO    R5 9774   7.052   7.857   9.380 -0.1730  0.2851 -0.0387
  674ERGO    C1 9775   7.112   7.957   9.018 -0.1925  0.2476 -0.0528
  674ERGO    C2 9776   7.091   8.122   8.683  0.2785 -0.0089  0.0343
  675PSPI    C1 9777  15.615  15.501   5.768 -0.3224 -0.1545 -0.1832
  675PSPI    C2 9778  15.480  15.163   5.935 -0.1465 -0.1833 -0.0969
  675PSPI    C3 9779  15.811  15.157   5.710 -0.1843 -0.0810 -0.1560
  675PSPI   PO4 9780  15.451  15.690   6.140  0.0625  0.2330 -0.3567
  675PSPI   GL1 9781  15.694  15.887   6.492 -0.0622 -0.3353 -0.1231
  675PSPI   GL2 9782  15.752  16.141   6.602  0.1992  0.1744 -0.0657
  675PSPI   C1A 9783  15.748  15.740   6.958 -0.0908  0.0649  0.4296
  675PSPI   C2A 9784  16.128  15.693   7.232  0.0274  0.0848  0.1811
  675PSPI   C3A 9785  16.250  15.802   7.725 -0.0289 -0.0467 -0.0275
  675PSPI   C4A 9786  16.517  15.768   8.022 -0.3157 -0.1213  0.0475
  675PSPI   C1B 9787  15.816  16.206   6.981  0.1105  0.0803 -0.2681
  675PSPI   C2B 9788  15.651  16.383   7.345 -0.1112  0.2239  0.4163
  675PSPI   C3B 9789  15.409  16.234   7.691 -0.0575  0.2742  0.0125
  675PSPI   C4B 9790  15.369  16.315   8.064  0.2319 -0.0736 -0.2217
  676PSPI    C1 9791   5.592  11.163   5.715  0.0405  0.1402 -0.0373
  676PSPI    C2 9792   5.505  11.042   5.344  0.0436 -0.0687  0.0287
  676PSPI    C3 9793   5.223  11.215   5.570  0.1165  0.3213 -0.1697
  676PSPI   PO4 9794   5.615  10.949   5.853  0.1148  0.3189  0.2112
  676PSPI   GL1 9795   5.672  10.814   6.226  0.1468 -0.1109 -0.4267
  676PSPI   GL2 9796   5.956  10.955   6.295  0.1867 -0.4241 -0.1193
  676PSPI   C1A 9797   5.525  10.704   6.742 -0.3276 -0.1414 -0.2369
  676PSPI   C2A 9798   5.453  10.718   7.161  0.0364 -0.2048 -0.0630
  676PSPI   C3A 9799   5.183  10.871   7.458 -0.0597  0.0072  0.3152
  676PSPI   C4A 9800   5.027  11.318   7.629 -0.1899  0.0338 -0.0861
  676PSPI   C1B 9801   6.093  10.808   6.705  0.2423 -0.0234  0.0044
  676PSPI   C2B 9802   5.982  10.819   7.136 -0.2316 -0.0125 -0.3517
  676PSPI   C3B 9803   5.966  10.988   7.466 -0.0589  0.0567  0.1156
  676PSPI   C4B 9804   5.576  11.035   7.695  0.1344 -0.1136  0.0237
  677PSPI    C1 9805  11.700  17.370   6.451 -0.2245 -0.1178 -0.0215
  677PSPI    C2 9806  11.714  17.432   6.056 -0.2955  0.2500  0.0304
  677PSPI    C3 9807  12.053  17.401   6.265 -0.2564 -0.0798 -0.0761
  677PSPI   PO4 9808  11.434  17.468   6.497 -0.0306  0.2629  0.2775
  677PSPI   GL1 9809  11.212  17.596   6.813 -0.1433 -0.0243 -0.2782
  677PSPI   GL2 9810  11.050  17.760   6.714 -0.1148  0.2814 -0.0417
  677PSPI   C1A 9811  11.291  17.683   7.151  0.0780 -0.0654  0.3048
  677PSPI   C2A 9812  11.114  17.817   7.373 -0.0347 -0.4260  0.1395
  677PSPI   C3A 9813  10.990  18.120   7.638  0.0855 -0.0152  0.1655
  677PSPI   C4A 9814  11.063  18.258   8.013  0.0573  0.0432 -0.2193
  677PSPI   C1B 9815  10.761  17.957   7.084 -0.1775 -0.1998 -0.4589
  677PSPI   C2B 9816  10.467  18.017   7.305 -0.1054 -0.0205  0.2031
  677PSPI   C3B 9817  10.508  18.086   7.657  0.0383 -0.2798 -0.1417
  677PSPI   C4B 9818  10.596  18.236   8.146  0.0377 -0.0153  0.0480
  678PSPI    C1 9819   6.079   7.724   6.120  0.1012  0.1655 -0.1124
  678PSPI    C2 9820   5.841   7.504   5.886  0.1468  0.1038 -0.1012
  678PSPI    C3 9821   6.236   7.444   5.881  0.1399  0.0403  0.0573
  678PSPI   PO4 9822   5.923   7.683   6.384 -0.1416  0.1391 -0.1178
  678PSPI   GL1 9823   5.904   7.458   6.694 -0.1813 -0.2200 -0.1592
  678PSPI   GL2 9824   5.824   7.370   6.987 -0.0514  0.7070 -0.0245
  678PSPI   C1A 9825   6.363   7.488   6.906 -0.1043  0.3270 -0.2288
  678PSPI   C2A 9826   6.573   7.597   7.246  0.0308  0.0274  0.1163
  678PSPI   C3A 9827   6.831   7.698   7.593  0.2430 -0.3499 -0.0451
  678PSPI   C4A 9828   7.128   7.884   7.927 -0.1139  0.2034 -0.0215
  678PSPI   C1B 9829   6.097   7.484   7.375 -0.2199 -0.1420  0.1139
  678PSPI   C2B 9830   6.261   7.865   7.636 -0.0318  0.1160  0.1527
  678PSPI   C3B 9831   6.213   8.228   7.920  0.2524  0.0044 -0.0851
  678PSPI   C4B 9832   5.939   8.507   8.100  0.0568 -0.4817 -0.1366
  679PSPI    C1 9833  15.379  16.433   5.963 -0.0107 -0.1587  0.0200
  679PSPI    C2 9834  15.042  16.476   6.175  0.0515 -0.0565  0.0991
  679PSPI    C3 9835  15.024  16.397   5.783 -0.0641 -0.0992  0.1127
  679PSPI   PO4 9836  15.455  16.211   6.173 -0.1226 -0.0253  0.0630
  679PSPI   GL1 9837  15.166  16.043   6.491 -0.1389 -0.0202 -0.0188
  679PSPI   GL2 9838  15.149  16.274   6.624 -0.1013 -0.4380 -0.1315
  679PSPI   C1A 9839  15.218  15.628   6.793  0.0604 -0.1842 -0.1727
  679PSPI   C2A 9840  15.471  15.358   7.057 -0.0847  0.2975  0.0946
  679PSPI   C3A 9841  15.725  15.363   7.456  0.1495  0.3090 -0.0003
  679PSPI   C4A 9842  15.911  15.484   7.804  0.1225 -0.1764 -0.1617
  679PSPI   C1B 9843  15.381  16.075   7.014 -0.0915 -0.0391 -0.1648
  679PSPI   C2B 9844  15.352  15.827   7.339  0.2011  0.0711  0.0247
  679PSPI   C3B 9845  15.255  15.396   7.562 -0.0922 -0.1648 -0.0670
  679PSPI   C4B 9846  15.288  15.010   7.820  0.0023 -0.0685 -0.1616
  680PSPI    C1 9847   2.148  16.338   5.425 -0.0914 -0.0618  0.0168
  680PSPI    C2 9848   2.399  16.649   5.398  0.1074 -0.2216  0.0010
  680PSPI    C3 9849   2.186  16.534   5.079  0.0121 -0.0848  0.0147
  680PSPI   PO4 9850   2.056  16.301   5.739 -0.1658  0.0348  0.2482
  680PSPI   GL1 9851   2.009  16.410   6.209 -0.0637  0.0721  0.0438
  680PSPI   GL2 9852   1.704  16.525   6.071  0.0364  0.0353 -0.0588
  680PSPI   C1A 9853   2.046  16.091   6.476 -0.2345  0.4481  0.1778
  680PSPI   C2A 9854   2.029  15.701   6.445 -0.1480 -0.0812 -0.3743
  680PSPI   C3A 9855   1.895  15.343   6.364  0.1664  0.2256  0.1832
  680PSPI   C4A 9856   1.580  15.060   6.356  0.1319 -0.1042 -0.0136
  680PSPI   C1B 9857   1.550  16.620   6.450 -0.0056 -0.1021 -0.1835
  680PSPI   C2B 9858   1.334  16.585   6.901  0.0227 -0.0996  0.1469
  680PSPI   C3B 9859   1.183  16.643   7.236  0.0300 -0.0807  0.1552
  680PSPI   C4B 9860   1.262  16.508   7.663  0.3803  0.2109 -0.0363
  681PSPI    C1 9861   2.633   9.891   5.759 -0.0584 -0.0384 -0.0816
  681PSPI    C2 9862   2.945  10.038   5.556 -0.2356 -0.1356 -0.4322
  681PSPI    C3 9863   2.580  10.190   5.499 -0.2722 -0.0902 -0.0990
  681PSPI   PO4 9864   2.701   9.918   6.057  0.0841 -0.0827 -0.2220
  681PSPI   GL1 9865   2.470   9.766   6.404  0.0501 -0.0382  0.1973
  681PSPI   GL2 9866   2.252   9.989   6.365 -0.0961  0.1195 -0.2172
  681PSPI   C1A 9867   2.566  10.073   6.786 -0.2335 -0.1232  0.2552
  681PSPI   C2A 9868   2.648  10.208   7.091 -0.2072 -0.2433 -0.2473
  681PSPI   C3A 9869   2.834  10.006   7.491 -0.1379  0.4108 -0.2944
  681PSPI   C4A 9870   3.172  10.013   7.790  0.0693 -0.0412  0.0693
  681PSPI   C1B 9871   2.067   9.978   6.712  0.0823 -0.2367 -0.0147
  681PSPI   C2B 9872   2.070  10.118   7.074 -0.0880 -0.0711  0.2412
  681PSPI   C3B 9873   2.285  10.125   7.491  0.0752  0.2265  0.0440
  681PSPI   C4B 9874   2.676  10.422   7.596 -0.0587 -0.0787 -0.1988
  682PSPI    C1 9875  10.708  17.461   5.892  0.0914  0.2750 -0.0995
  682PSPI    C2 9876  10.488  17.158   5.751  0.1329  0.1362  0.1283
  682PSPI    C3 9877  10.560  17.478   5.521 -0.0131  0.0280 -0.0708
  682PSPI   PO4 9878  10.627  17.404   6.130 -0.2824 -0.0886 -0.0310
  682PSPI   GL1 9879  10.278  17.411   6.470  0.0283  0.0287  0.0122
  682PSPI   GL2 9880   9.974  17.523   6.467 -0.0889 -0.0564 -0.2269
  682PSPI   C1A 9881  10.258  17.084   6.726  0.1528 -0.0663  0.3581
  682PSPI   C2A 9882   9.967  16.896   7.089 -0.0319 -0.0639  0.0095
  682PSPI   C3A 9883  10.047  16.713   7.519 -0.0608  0.0983 -0.0613
  682PSPI   C4A 9884  10.194  16.577   7.937  0.1006  0.2753  0.0800
  682PSPI   C1B 9885   9.846  17.344   6.930 -0.2037  0.2513  0.1752
  682PSPI   C2B 9886   9.572  17.270   7.212  0.0660 -0.0622  0.1498
  682PSPI   C3B 9887   9.555  17.153   7.694 -0.2155  0.0759  0.2112
  682PSPI   C4B 9888   9.792  16.943   7.961 -0.3924  0.1243  0.0755
  683PSPI    C1 9889   4.614   3.897   5.736 -0.0654 -0.1308  0.0214
  683PSPI    C2 9890   4.421   4.152   5.495  0.1835 -0.0320 -0.0759
  683PSPI    C3 9891   4.343   3.760   5.476  0.0931 -0.0081 -0.2114
  683PSPI   PO4 9892   4.930   4.017   5.824 -0.0808 -0.1829  0.1617
  683PSPI   GL1 9893   5.312   4.027   6.103 -0.0973 -0.2845  0.0507
  683PSPI   GL2 9894   5.583   3.897   6.010  0.0658 -0.3448 -0.0678
  683PSPI   C1A 9895   5.058   4.145   6.457 -0.0159  0.2902 -0.3978
  683PSPI   C2A 9896   5.080   4.167   6.967 -0.0592  0.0854 -0.1887
  683PSPI   C3A 9897   5.130   4.205   7.420  0.1067 -0.1360 -0.1130
  683PSPI   C4A 9898   5.158   4.283   7.917 -0.0211  0.1810  0.1029
  683PSPI   C1B 9899   5.861   3.926   6.287 -0.1796 -0.4374  0.1506
  683PSPI   C2B 9900   5.903   3.809   6.781 -0.0758 -0.0944 -0.1121
  683PSPI   C3B 9901   6.033   3.648   7.204 -0.1809  0.1202 -0.1505
  683PSPI   C4B 9902   6.106   3.595   7.681  0.0465 -0.3397 -0.0280
  684PSPI    C1 9903  11.850   8.036   5.593  0.2027  0.0232  0.0624
  684PSPI    C2 9904  11.701   7.728   5.386  0.1924  0.0536  0.0246
  684PSPI    C3 9905  11.952   7.984   5.210 -0.1579  0.3317 -0.0821
  684PSPI   PO4 9906  11.949   7.830   5.796 -0.2065 -0.1017 -0.4139
  684PSPI   GL1 9907  12.043   7.845   6.169  0.0844  0.0979 -0.1948
  684PSPI   GL2 9908  11.939   7.434   6.197  0.1748 -0.0549 -0.1905
  684PSPI   C1A 9909  11.973   7.713   6.696  0.0974 -0.0771 -0.1497
  684PSPI   C2A 9910  11.640   7.702   7.024  0.1700  0.1127 -0.1585
  684PSPI   C3A 9911  11.533   7.840   7.453  0.0157  0.0264 -0.0424
  684PSPI   C4A 9912  11.565   7.739   7.880  0.3003  0.1420  0.1752
  684PSPI   C1B 9913  11.962   7.194   6.455  0.2454  0.1346 -0.0781
  684PSPI   C2B 9914  12.010   7.241   6.841  0.1783 -0.1874  0.0225
  684PSPI   C3B 9915  11.998   7.377   7.282 -0.3614 -0.4101  0.2461
  684PSPI   C4B 9916  11.938   7.611   7.579 -0.3907  0.3639  0.1790
  685PSPI    C1 9917   8.261  11.263   5.597  0.1051 -0.0894 -0.0911
  685PSPI    C2 9918   8.429  10.902   5.568  0.0579 -0.1459  0.2854
  685PSPI    C3 9919   8.049  10.955   5.456  0.2143 -0.0935 -0.2495
  685PSPI   PO4 9920   8.321  11.305   5.834  0.0560  0.3415  0.1378
  685PSPI   GL1 9921   8.300  11.369   6.294 -0.0869 -0.0168 -0.1659
  685PSPI   GL2 9922   8.255  11.098   6.395  0.0105 -0.1968 -0.1264
  685PSPI   C1A 9923   7.892  11.424   6.514  0.0343  0.1123 -0.1309
  685PSPI   C2A 9924   7.522  11.426   6.756 -0.0484 -0.1344 -0.0402
  685PSPI   C3A 9925   7.401  11.540   7.136  0.2485 -0.0951  0.0238
  685PSPI   C4A 9926   7.386  11.540   7.565 -0.1321  0.0851  0.0984
  685PSPI   C1B 9927   8.301  11.121   6.815  0.1129  0.4707  0.0400
  685PSPI   C2B 9928   8.283  11.175   7.272  0.2334 -0.0147 -0.1075
  685PSPI   C3B 9929   8.315  10.943   7.678  0.1119  0.0947  0.3672
  685PSPI   C4B 9930   8.636  10.722   7.925  0.0067 -0.2064 -0.0060
  686PSPI    C1 9931   0.239   6.937   6.148 -0.1003  0.2699  0.0276
  686PSPI    C2 9932   0.217   7.095   5.781 -0.0694 -0.1296 -0.1513
  686PSPI    C3 9933  -0.110   7.076   6.010 -0.0871  0.1281 -0.1517
  686PSPI   PO4 9934   0.570   6.952   6.119  0.0332  0.1427 -0.1060
  686PSPI   GL1 9935   0.942   7.169   6.250 -0.2347 -0.0167 -0.1397
  686PSPI   GL2 9936   0.817   7.406   6.449  0.3014  0.1019 -0.1975
  686PSPI   C1A 9937   0.991   7.021   6.817  0.0310  0.1677  0.2753
  686PSPI   C2A 9938   1.289   6.982   7.155 -0.1237  0.1350  0.0180
  686PSPI   C3A 9939   1.527   7.087   7.513 -0.1357  0.0711 -0.3868
  686PSPI   C4A 9940   1.502   7.304   7.912 -0.1569 -0.0990 -0.1649
  686PSPI   C1B 9941   0.560   7.425   6.802  0.0683 -0.0563 -0.1839
  686PSPI   C2B 9942   0.570   7.225   7.098 -0.2575  0.0317 -0.0375
  686PSPI   C3B 9943   0.495   7.301   7.590 -0.0088  0.0675 -0.0389
  686PSPI   C4B 9944   0.450   7.519   7.988 -0.0125 -0.0579 -0.1764
  687PSPI    C1 9945   8.777  15.494   5.791 -0.0023 -0.0598  0.2416
  687PSPI    C2 9946   9.023  15.383   5.495  0.0197  0.0334  0.2243
  687PSPI    C3 9947   8.639  15.270   5.490 -0.1062  0.4517 -0.1053
  687PSPI   PO4 9948   8.944  15.403   6.014 -0.2838  0.1843 -0.1392
  687PSPI   GL1 9949   9.133  15.538   6.441  0.2755 -0.0379  0.2577
  687PSPI   GL2 9950   9.347  15.479   6.482 -0.0560 -0.5120  0.2098
  687PSPI   C1A 9951   8.973  15.818   6.725  0.2338 -0.1219 -0.0008
  687PSPI   C2A 9952   8.922  15.918   7.133 -0.2982 -0.0329 -0.1661
  687PSPI   C3A 9953   8.798  15.694   7.457 -0.2434  0.4282 -0.0007
  687PSPI   C4A 9954   8.642  15.438   7.781 -0.1313  0.0715 -0.3740
  687PSPI   C1B 9955   9.385  15.519   6.900 -0.0926 -0.3255  0.1157
  687PSPI   C2B 9956   9.373  15.639   7.285  0.0130 -0.1467 -0.0276
  687PSPI   C3B 9957   9.191  15.531   7.690 -0.3827 -0.1569  0.2518
  687PSPI   C4B 9958   9.115  15.452   8.162  0.2360  0.0710  0.0228
  688PSPI    C1 9959  10.914  11.725   5.238  0.1320  0.1188 -0.1846
  688PSPI    C2 9960  10.631  11.463   5.130 -0.1738  0.3437  0.0531
  688PSPI    C3 9961  10.817  11.683   4.852  0.0917 -0.1235 -0.1495
  688PSPI   PO4 9962  11.062  11.539   5.462  0.5426  0.2962 -0.3236
  688PSPI   GL1 9963  11.172  11.462   5.867 -0.0540  0.0555 -0.2295
  688PSPI   GL2 9964  10.910  11.285   5.893  0.0849 -0.1124 -0.0565
  688PSPI   C1A 9965  11.363  11.796   6.203  0.0622 -0.0857  0.1448
  688PSPI   C2A 9966  11.736  11.804   6.517 -0.0433 -0.0427  0.0263
  688PSPI   C3A 9967  11.685  12.061   6.916  0.0397  0.0061 -0.2301
  688PSPI   C4A 9968  11.658  12.039   7.360 -0.0531  0.3604  0.1153
  688PSPI   C1B 9969  11.184  11.088   6.233 -0.0051  0.0624  0.1064
  688PSPI   C2B 9970  11.239  10.979   6.629 -0.1810 -0.0073 -0.0534
  688PSPI   C3B 9971  11.351  11.014   7.130 -0.3652 -0.1120 -0.0312
  688PSPI   C4B 9972  11.224  11.162   7.501 -0.1130  0.0480  0.3752
  689PSPI    C1 9973   7.989   0.817   5.258 -0.1321  0.0111  0.3136
  689PSPI    C2 9974   7.601   0.858   5.348 -0.2587 -0.1985 -0.1096
  689PSPI    C3 9975   7.749   0.496   5.264  0.0161 -0.1100 -0.0165
  689PSPI   PO4 9976   8.176   0.942   5.426  0.0409  0.0220 -0.3759
  689PSPI   GL1 9977   8.310   0.926   5.814 -0.0775 -0.3333  0.2043
  689PSPI   GL2 9978   8.581   0.973   5.982  0.0189 -0.1253 -0.0869
  689PSPI   C1A 9979   8.123   1.137   6.124 -0.1078 -0.1365 -0.0020
  689PSPI   C2A 9980   7.845   1.067   6.402  0.1311 -0.2384  0.1275
  689PSPI   C3A 9981   7.705   1.048   6.752 -0.0883  0.0759  0.0875
  689PSPI   C4A 9982   7.887   1.303   7.060  0.1409 -0.1181  0.0631
  689PSPI   C1B 9983   8.489   0.770   6.438  0.2879  0.3593 -0.0700
  689PSPI   C2B 9984   8.070   0.701   6.716  0.2007  0.1477  0.3308
  689PSPI   C3B 9985   8.024   0.832   7.073  0.0254  0.2382  0.1351
  689PSPI   C4B 9986   8.104   1.073   7.473 -0.0919 -0.1120  0.3028
  690PSPI    C1 9987  13.746   8.047   5.337  0.0139  0.1822  0.0725
  690PSPI    C2 9988  13.457   7.995   5.066 -0.0407  0.0360  0.1575
  690PSPI    C3 9989  13.592   7.683   5.277  0.2863  0.0739  0.0121
  690PSPI   PO4 9990  13.634   8.242   5.560 -0.0330 -0.1815  0.1866
  690PSPI   GL1 9991  13.786   8.326   5.918 -0.0298  0.0755  0.0398
  690PSPI   GL2 9992  13.699   8.647   5.978 -0.0468 -0.1044 -0.0643
  690PSPI   C1A 9993  13.690   8.094   6.203 -0.0316 -0.0942 -0.0641
  690PSPI   C2A 9994  13.363   7.956   6.580  0.0673  0.1376  0.1480
  690PSPI   C3A 9995  13.256   7.722   6.935 -0.1202 -0.0454 -0.1707
  690PSPI   C4A 9996  12.799   7.743   7.133 -0.1743  0.0507  0.4668
  690PSPI   C1B 9997  13.738   8.747   6.360  0.2299 -0.0076 -0.0061
  690PSPI   C2B 9998  13.756   8.888   6.775  0.0828 -0.1338  0.0275
  690PSPI   C3B 9999  13.545   9.162   7.002 -0.1368  0.2146  0.2170
  690PSPI   C4B10000  13.858   9.379   7.398  0.2122  0.0617  0.1071
  691PSPI    C110001   1.871  10.173   5.885  0.1451  0.2488  0.0261
  691PSPI    C210002   2.051  10.386   5.599 -0.0255 -0.0576 -0.3177
  691PSPI    C310003   2.153  10.004   5.658 -0.0122 -0.0055  0.0156
  691PSPI   PO410004   1.877  10.234   6.098  0.2970  0.3068 -0.2893
  691PSPI   GL110005   1.904  10.388   6.481  0.0584  0.0491 -0.3290
  691PSPI   GL210006   2.228  10.445   6.606  0.1758  0.0226 -0.1804
  691PSPI   C1A10007   1.709  10.343   6.822  0.1275 -0.0629 -0.2839
  691PSPI   C2A10008   1.539   9.960   7.020 -0.1348  0.0578 -0.1762
  691PSPI   C3A10009   1.294   9.840   7.372 -0.2055 -0.2519 -0.2366
  691PSPI   C4A10010   1.030   9.647   7.624 -0.0853  0.1031 -0.3148
  691PSPI   C1B10011   2.167  10.594   7.004  0.1590 -0.2646  0.0021
  691PSPI   C2B10012   2.235  10.609   7.442  0.0498 -0.1822  0.2755
  691PSPI   C3B10013   2.252  10.495   7.814  0.1201 -0.0316 -0.1591
  691PSPI   C4B10014   2.297  10.327   8.190  0.0817 -0.3141 -0.0366
  692PSPI    C110015   3.694  11.929   5.533  0.1434 -0.2025 -0.2487
  692PSPI    C210016   3.333  11.888   5.702  0.2009  0.1632 -0.0261
  692PSPI    C310017   3.365  12.022   5.326  0.0971 -0.1154 -0.1370
  692PSPI   PO410018   3.834  11.693   5.625  0.3041  0.2747  0.2170
  692PSPI   GL110019   3.901  11.478   5.950 -0.0637 -0.2138  0.2082
  692PSPI   GL210020   3.553  11.518   5.987 -0.0804 -0.1595 -0.0124
  692PSPI   C1A10021   4.158  11.626   6.322  0.1587 -0.0881 -0.4069
  692PSPI   C2A10022   4.159  11.821   6.661  0.3405  0.1294  0.1807
  692PSPI   C3A10023   4.292  12.206   6.759 -0.2613 -0.1633 -0.2029
  692PSPI   C4A10024   4.600  12.361   6.946  0.3066 -0.1009 -0.0476
  692PSPI   C1B10025   3.698  11.407   6.421  0.2830 -0.3225  0.0395
  692PSPI   C2B10026   3.864  11.409   6.724 -0.0431  0.3666 -0.3879
  692PSPI   C3B10027   3.726  11.363   7.011 -0.3581  0.0499 -0.2649
  692PSPI   C4B10028   3.770  11.258   7.422 -0.1378  0.1145 -0.4038
  693PSPI    C110029   9.355   5.113   5.650 -0.0184 -0.2859 -0.0928
  693PSPI    C210030   9.077   5.324   5.454  0.2660  0.0618 -0.1331
  693PSPI    C310031   9.085   4.925   5.423  0.0028  0.0758 -0.4287
  693PSPI   PO410032   9.544   5.206   5.609  0.1876  0.0165 -0.0515
  693PSPI   GL110033   9.779   5.315   5.957  0.1303  0.1530 -0.1923
  693PSPI   GL210034   9.665   4.965   6.030  0.1128 -0.1674  0.1214
  693PSPI   C1A10035   9.948   5.275   6.269  0.1058 -0.1004  0.2846
  693PSPI   C2A10036   9.853   5.270   6.790 -0.0650 -0.0079  0.0310
  693PSPI   C3A10037   9.835   5.257   7.153 -0.1620  0.2639  0.3392
  693PSPI   C4A10038   9.727   5.253   7.491  0.1267  0.2507  0.0630
  693PSPI   C1B10039   9.662   4.969   6.480  0.0986  0.0006  0.1158
  693PSPI   C2B10040   9.542   4.891   6.896  0.1812 -0.3705  0.1720
  693PSPI   C3B10041   9.256   4.973   7.370  0.1041  0.0320 -0.0619
  693PSPI   C4B10042   9.380   5.193   7.828 -0.2071  0.0311  0.0952
  694PSPI    C110043   0.567  14.420   5.636 -0.0637 -0.3511 -0.3855
  694PSPI    C210044   0.292  14.698   5.552  0.1514  0.0330  0.1350
  694PSPI    C310045   0.561  14.594   5.276 -0.0591  0.1891 -0.1336
  694PSPI   PO410046   0.408  14.261   5.822  0.1933  0.1341  0.0631
  694PSPI   GL110047   0.223  14.022   6.308  0.4477  0.2503 -0.3009
  694PSPI   GL210048  -0.042  13.905   6.328  0.1253  0.1523 -0.1308
  694PSPI   C1A10049   0.325  14.179   6.649 -0.1327  0.0107 -0.1764
  694PSPI   C2A10050   0.444  14.216   7.077  0.0213 -0.4683  0.0478
  694PSPI   C3A10051   0.515  14.222   7.492 -0.0050 -0.1320  0.1060
  694PSPI   C4A10052   0.843  14.621   7.741  0.0766 -0.2302 -0.2043
  694PSPI   C1B10053  -0.172  13.742   6.664  0.1620  0.2128 -0.0498
  694PSPI   C2B10054  -0.244  13.844   7.103  0.0331  0.0035 -0.0698
  694PSPI   C3B10055  -0.266  13.705   7.473 -0.0355  0.0483 -0.2742
  694PSPI   C4B10056  -0.177  13.483   7.867 -0.2319 -0.3513  0.0993
  695POPI    C110057   3.583  17.026   5.604 -0.0794  0.0167  0.0988
  695POPI    C210058   3.247  17.130   5.794 -0.0060  0.0322  0.2213
  695POPI    C310059   3.236  17.038   5.405 -0.1039  0.3153  0.1548
  695POPI   PO410060   3.748  17.218   5.713  0.0438  0.1159 -0.1006
  695POPI   GL110061   3.869  17.096   6.166 -0.0879 -0.3124 -0.0679
  695POPI   GL210062   3.551  16.968   6.182  0.0833 -0.0844 -0.2288
  695POPI   C1A10063   3.797  17.360   6.484  0.0864  0.0731  0.0625
  695POPI   D2A10064   3.932  17.264   6.877 -0.2074 -0.1307 -0.0040
  695POPI   C3A10065   4.269  17.095   6.826 -0.1580 -0.3298  0.1343
  695POPI   C4A10066   4.711  17.174   6.972  0.2578  0.1818 -0.0305
  695POPI   C1B10067   3.350  17.154   6.569 -0.0419  0.0124  0.1490
  695POPI   C2B10068   3.473  17.176   7.037 -0.3278 -0.2349 -0.1874
  695POPI   C3B10069   3.694  17.161   7.426  0.4250  0.1988  0.0628
  695POPI   C4B10070   4.037  17.283   7.585 -0.2335 -0.0026  0.0718
  696POPI    C110071   1.985  18.008   5.740  0.2012 -0.1791 -0.1282
  696POPI    C210072   2.336  18.037   5.550  0.1811  0.0977 -0.1271
  696POPI    C310073   2.090  18.352   5.565  0.0065 -0.0434  0.0175
  696POPI   PO410074   1.970  17.854   5.903  0.2345  0.0589 -0.0567
  696POPI   GL110075   1.860  17.599   6.333  0.2927 -0.0093 -0.0483
  696POPI   GL210076   1.487  17.525   6.193  0.0756  0.2295  0.0021
  696POPI   C1A10077   1.749  17.703   6.742  0.0293  0.0366  0.3524
  696POPI   D2A10078   1.585  17.829   7.061 -0.5208  0.2971 -0.0714
  696POPI   C3A10079   1.405  18.254   6.969 -0.1910 -0.0422  0.1045
  696POPI   C4A10080   1.424  18.592   6.754  0.0343  0.1474 -0.1472
  696POPI   C1B10081   1.337  17.453   6.656  0.0798 -0.0892  0.1769
  696POPI   C2B10082   1.338  17.425   7.067  0.2087 -0.1654 -0.0582
  696POPI   C3B10083   1.330  17.469   7.474  0.0665  0.0504  0.0463
  696POPI   C4B10084   1.286  17.674   7.850 -0.3767 -0.1628  0.0381
  697POPI    C110085   1.744   8.283   6.068 -0.1572 -0.0764 -0.0657
  697POPI    C210086   1.958   8.016   5.861 -0.2887 -0.2356  0.0015
  697POPI    C310087   1.956   8.400   5.749 -0.0421 -0.2483 -0.0539
  697POPI   PO410088   1.547   8.230   6.099  0.0280 -0.0789  0.2240
  697POPI   GL110089   1.403   8.102   6.471 -0.0700  0.0583 -0.1844
  697POPI   GL210090   1.736   8.199   6.613 -0.0909 -0.0181 -0.1084
  697POPI   C1A10091   1.338   7.902   6.817  0.0665  0.0168  0.2062
  697POPI   D2A10092   1.125   8.002   7.211 -0.3826  0.0320  0.2058
  697POPI   C3A10093   1.209   8.307   7.523  0.1204  0.2215  0.1205
  697POPI   C4A10094   1.210   8.675   7.830  0.0342 -0.1051  0.0938
  697POPI   C1B10095   1.848   8.507   6.789  0.0613 -0.2584 -0.0833
  697POPI   C2B10096   1.950   8.664   7.155 -0.2079  0.2069 -0.1205
  697POPI   C3B10097   2.061   8.782   7.550  0.1400 -0.3222  0.2501
  697POPI   C4B10098   2.251   8.799   7.921 -0.0711  0.3477 -0.1881
  698POPI    C110099   2.600   0.393   5.534 -0.1934 -0.0034  0.1169
  698POPI    C210100   2.431   0.670   5.300  0.0894 -0.0689 -0.1722
  698POPI    C310101   2.432   0.286   5.188 -0.0644 -0.1516  0.0989
  698POPI   PO410102   2.475   0.352   5.832 -0.1413  0.2310 -0.0067
  698POPI   GL110103   2.486   0.371   6.389  0.0315  0.0545 -0.0168
  698POPI   GL210104   2.762   0.214   6.229 -0.1693  0.3585 -0.2057
  698POPI   C1A10105   2.164   0.052   6.421  0.2908 -0.1319 -0.1254
  698POPI   D2A10106   2.196  -0.293   6.778  0.4538 -0.1219 -0.0249
  698POPI   C3A10107   2.069  -0.233   7.256 -0.1183 -0.2368 -0.0991
  698POPI   C4A10108   1.729  -0.345   7.566  0.2286  0.0472 -0.1867
  698POPI   C1B10109   2.630  -0.059   6.618  0.1824  0.2661 -0.0312
  698POPI   C2B10110   2.712  -0.435   6.842  0.1796 -0.3765  0.0658
  698POPI   C3B10111   2.675  -0.435   7.191  0.0275  0.1577 -0.0763
  698POPI   C4B10112   2.644  -0.319   7.638  0.3810  0.2101  0.3070
  699POPI    C110113  14.633  16.103   5.811  0.0343 -0.0994  0.0687
  699POPI    C210114  14.548  16.367   5.523  0.2023 -0.0240  0.0874
  699POPI    C310115  14.499  15.976   5.456 -0.0793  0.0124  0.0710
  699POPI   PO410116  14.543  16.130   5.997  0.1413  0.2419  0.0976
  699POPI   GL110117  14.500  15.732   6.271 -0.0259  0.0647 -0.0205
  699POPI   GL210118  14.693  15.823   6.411  0.1487 -0.2960  0.0842
  699POPI   C1A10119  14.324  15.714   6.666 -0.1839  0.1724 -0.1184
  699POPI   D2A10120  14.434  15.604   7.104  0.0118  0.3060 -0.0848
  699POPI   C3A10121  14.410  15.841   7.560 -0.1859  0.0015 -0.1355
  699POPI   C4A10122  14.487  15.783   8.001  0.0628 -0.3254 -0.0100
  699POPI   C1B10123  14.769  15.524   6.691 -0.3087 -0.2905  0.1340
  699POPI   C2B10124  14.860  15.384   7.118 -0.4638  0.0123  0.0091
  699POPI   C3B10125  14.661  15.236   7.474  0.0475 -0.1102 -0.0250
  699POPI   C4B10126  14.464  15.283   7.855 -0.1052  0.4814 -0.0767
  700POPI    C110127   9.454   2.356   5.701 -0.0383  0.1557  0.0506
  700POPI    C210128   9.448   2.013   5.908  0.1693  0.1830  0.1035
  700POPI    C310129   9.374   2.011   5.515 -0.0135  0.1027  0.1377
  700POPI   PO410130   9.409   2.614   5.906  0.1459  0.2436 -0.1592
  700POPI   GL110131   9.272   2.982   6.068 -0.0772  0.0472 -0.0886
  700POPI   GL210132   9.103   3.251   6.058  0.1860  0.2375  0.0212
  700POPI   C1A10133   9.202   2.722   6.521 -0.0995 -0.0142 -0.0865
  700POPI   D2A10134   9.079   2.527   6.921  0.1497  0.1612  0.2356
  700POPI   C3A10135   8.998   2.116   7.116 -0.2304 -0.2000  0.1112
  700POPI   C4A10136   8.691   1.942   7.458  0.1844  0.4438 -0.2925
  700POPI   C1B10137   8.974   3.514   6.438  0.1568  0.0233 -0.1337
  700POPI   C2B10138   8.788   3.720   6.786  0.1533  0.0139  0.0257
  700POPI   C3B10139   8.572   3.721   7.146  0.0106 -0.2457 -0.2238
  700POPI   C4B10140   8.368   3.684   7.635 -0.0862 -0.1102  0.2022
  701POPI    C110141   3.329  10.583   5.829 -0.1264 -0.1518 -0.0983
  701POPI    C210142   3.504  10.271   5.650  0.1094 -0.0210 -0.0986
  701POPI    C310143   3.490  10.626   5.465  0.1840  0.0657  0.0603
  701POPI   PO410144   3.469  10.533   6.109  0.1700  0.0817  0.1549
  701POPI   GL110145   3.291  10.256   6.428  0.1250 -0.1696 -0.2079
  701POPI   GL210146   3.220  10.535   6.652  0.1129  0.0083  0.1294
  701POPI   C1A10147   3.594  10.380   6.847  0.1359  0.2311  0.1070
  701POPI   D2A10148   3.923  10.534   7.090  0.0084 -0.3194  0.0550
  701POPI   C3A10149   4.069  10.372   7.595 -0.2925 -0.5019 -0.0027
  701POPI   C4A10150   4.368  10.344   7.873 -0.2755 -0.0588 -0.2058
  701POPI   C1B10151   3.113  10.496   6.984  0.1673  0.1085 -0.1171
  701POPI   C2B10152   3.199  10.407   7.402  0.3075 -0.0827 -0.0817
  701POPI   C3B10153   3.392  10.209   7.393  0.1338 -0.0625  0.3439
  701POPI   C4B10154   3.782  10.044   7.251  0.0672 -0.1058 -0.5262
  702POPI    C110155  12.822   7.642   5.236  0.0467 -0.1065 -0.0997
  702POPI    C210156  13.166   7.583   5.041  0.1782  0.1093  0.0625
  702POPI    C310157  12.840   7.375   4.939  0.4082 -0.2522  0.0472
  702POPI   PO410158  12.859   7.511   5.507 -0.1446 -0.1192  0.3517
  702POPI   GL110159  12.945   7.690   5.890 -0.1168  0.2158  0.0400
  702POPI   GL210160  12.990   7.409   6.056 -0.2106 -0.0951  0.0549
  702POPI   C1A10161  12.897   7.997   6.275  0.1196 -0.2563  0.1870
  702POPI   D2A10162  12.840   7.991   6.695 -0.0364 -0.2649  0.2408
  702POPI   C3A10163  13.131   8.180   6.992 -0.1684  0.2966 -0.0325
  702POPI   C4A10164  13.526   8.177   7.037 -0.0164  0.1032 -0.0140
  702POPI   C1B10165  13.148   7.431   6.478 -0.0701  0.0855  0.1566
  702POPI   C2B10166  12.974   7.306   6.847  0.0672  0.0674 -0.0671
  702POPI   C3B10167  13.068   7.403   7.331  0.1382  0.0564  0.2001
  702POPI   C4B10168  12.881   7.390   7.645  0.1342 -0.1239 -0.1824
  703POPI    C110169   9.606   3.482   5.504  0.3123 -0.1124  0.0141
  703POPI    C210170   9.323   3.568   5.235  0.0600 -0.1294  0.2695
  703POPI    C310171   9.661   3.781   5.245  0.0382 -0.0788 -0.0080
  703POPI   PO410172   9.460   3.462   5.745 -0.0505 -0.3153 -0.0622
  703POPI   GL110173   9.540   3.652   6.066  0.0130 -0.0701  0.2458
  703POPI   GL210174   9.268   3.764   6.159  0.1872  0.3781  0.2428
  703POPI   C1A10175   9.680   3.860   6.420  0.0723 -0.0080  0.0040
  703POPI   D2A10176   9.581   4.046   6.749 -0.0201 -0.2004 -0.2045
  703POPI   C3A10177   9.670   3.810   7.068  0.0078 -0.0923 -0.1804
  703POPI   C4A10178   9.490   3.546   7.396 -0.0372 -0.1311  0.1523
  703POPI   C1B10179   9.118   4.043   6.412  0.0590  0.0619  0.0743
  703POPI   C2B10180   9.090   4.183   6.867  0.5437  0.0763 -0.1711
  703POPI   C3B10181   9.124   4.056   7.276  0.0202  0.0279 -0.2669
  703POPI   C4B10182   8.981   3.789   7.643  0.0712  0.0132 -0.2147
  704POPI    C110183   4.230  15.395   5.438 -0.0773 -0.0481  0.1411
  704POPI    C210184   4.445  15.058   5.429  0.1141  0.0761 -0.0484
  704POPI    C310185   4.112  15.088   5.210  0.2156  0.0873 -0.2027
  704POPI   PO410186   4.188  15.410   5.705 -0.1127  0.1743 -0.4135
  704POPI   GL110187   3.938  15.231   6.094 -0.1182  0.0910  0.1231
  704POPI   GL210188   3.977  15.008   5.936 -0.2256  0.1101  0.2682
  704POPI   C1A10189   4.129  15.094   6.502 -0.1268  0.1731 -0.1444
  704POPI   D2A10190   4.075  15.168   7.003  0.1094  0.3242 -0.0489
  704POPI   C3A10191   4.241  15.407   7.269  0.0133  0.1167  0.0712
  704POPI   C4A10192   4.013  15.807   7.507  0.1592 -0.2066 -0.3941
  704POPI   C1B10193   3.621  14.958   6.270 -0.0683  0.0386 -0.0946
  704POPI   C2B10194   3.597  14.902   6.723 -0.2132 -0.0147  0.0951
  704POPI   C3B10195   3.626  14.951   7.142  0.0311 -0.2099  0.1250
  704POPI   C4B10196   3.297  15.101   7.475 -0.3613 -0.2303  0.0665
  705POPI    C110197   1.951   5.447   5.854  0.0730 -0.2452  0.3645
  705POPI    C210198   1.604   5.630   5.774  0.1259 -0.2590  0.0921
  705POPI    C310199   1.617   5.232   5.807  0.0904 -0.2479  0.2498
  705POPI   PO410200   2.066   5.613   6.058  0.0098 -0.0580 -0.0513
  705POPI   GL110201   2.162   5.593   6.522 -0.1239  0.0493  0.0896
  705POPI   GL210202   2.493   5.756   6.420  0.0493 -0.1451  0.0020
  705POPI   C1A10203   2.034   5.235   6.651  0.3150 -0.1730  0.1457
  705POPI   D2A10204   2.125   5.083   7.032  0.2798 -0.5126  0.0873
  705POPI   C3A10205   1.840   4.867   7.363 -0.3563  0.0643 -0.1598
  705POPI   C4A10206   1.723   4.904   7.723  0.1094  0.1826 -0.1294
  705POPI   C1B10207   2.444   5.937   6.937  0.1936 -0.4035 -0.1563
  705POPI   C2B10208   2.637   5.933   7.248  0.2345  0.2484 -0.0155
  705POPI   C3B10209   2.936   6.078   7.617  0.1934 -0.3956  0.3041
  705POPI   C4B10210   3.077   6.348   8.022  0.0554  0.1004 -0.1528
  706POPI    C110211   9.238   7.303   5.566  0.0809  0.0193 -0.0773
  706POPI    C210212   9.531   7.277   5.837 -0.0300 -0.0312  0.0390
  706POPI    C310213   9.553   7.547   5.543  0.0139  0.1361  0.1937
  706POPI   PO410214   8.958   7.300   5.780 -0.1147 -0.1662  0.1606
  706POPI   GL110215   8.869   7.182   6.168  0.1277  0.1318 -0.2693
  706POPI   GL210216   9.007   6.895   6.379 -0.0423 -0.1076 -0.1580
  706POPI   C1A10217   8.828   7.263   6.637 -0.0734  0.0577 -0.2684
  706POPI   D2A10218   8.721   7.513   6.954  0.0168 -0.1740  0.3542
  706POPI   C3A10219   8.838   7.459   7.406  0.0702 -0.4491  0.0144
  706POPI   C4A10220   8.665   7.465   7.768 -0.1008  0.1644 -0.0437
  706POPI   C1B10221   8.949   6.586   6.689 -0.2002  0.1153 -0.0986
  706POPI   C2B10222   8.936   6.493   7.127 -0.0013  0.0394 -0.0281
  706POPI   C3B10223   8.836   6.106   7.448  0.6938 -0.0835  0.0088
  706POPI   C4B10224   8.467   6.097   7.659 -0.0485  0.1515 -0.0309
  707POPI    C110225   1.945   8.887   5.776 -0.1577 -0.0117 -0.0925
  707POPI    C210226   2.025   9.276   5.820 -0.3324  0.0091  0.0515
  707POPI    C310227   1.745   9.158   5.560  0.0807 -0.0567 -0.3764
  707POPI   PO410228   1.837   8.787   6.052 -0.0320  0.0052  0.0111
  707POPI   GL110229   2.001   8.844   6.419 -0.1599  0.2016 -0.1258
  707POPI   GL210230   2.174   9.147   6.312  0.1802 -0.0164  0.0725
  707POPI   C1A10231   1.734   9.044   6.740 -0.1507 -0.0961  0.0450
  707POPI   D2A10232   1.668   9.110   7.124  0.0533  0.0038 -0.2049
  707POPI   C3A10233   1.998   9.267   7.402  0.1146  0.0145  0.1612
  707POPI   C4A10234   1.959   9.355   7.890 -0.2776  0.1857  0.0030
  707POPI   C1B10235   2.176   9.453   6.678 -0.0649 -0.1086 -0.0025
  707POPI   C2B10236   1.873   9.589   7.034 -0.3901  0.2240 -0.1524
  707POPI   C3B10237   1.829   9.698   7.479 -0.3731  0.0109  0.0443
  707POPI   C4B10238   1.462   9.405   7.658  0.2747 -0.2627 -0.0937
  708POPI    C110239   7.923  15.845   5.854 -0.0704  0.0580 -0.0299
  708POPI    C210240   7.791  15.552   5.617  0.0065 -0.1351  0.1632
  708POPI    C310241   7.627  15.916   5.595  0.0256 -0.1451 -0.1978
  708POPI   PO410242   7.838  15.751   6.140  0.2210 -0.0486 -0.1222
  708POPI   GL110243   7.656  15.573   6.476  0.0180  0.0472  0.2377
  708POPI   GL210244   7.955  15.474   6.536  0.0590  0.0331  0.0619
  708POPI   C1A10245   7.387  15.472   6.881  0.0389  0.1189 -0.0257
  708POPI   D2A10246   7.429  15.498   7.170  0.3695 -0.2254 -0.1468
  708POPI   C3A10247   7.267  15.394   7.511 -0.1872  0.3050 -0.1708
  708POPI   C4A10248   7.048  15.653   7.784 -0.1063  0.5126  0.0824
  708POPI   C1B10249   7.923  15.580   6.932  0.0356 -0.1524  0.2993
  708POPI   C2B10250   7.826  15.666   7.380  0.1498  0.0486  0.0942
  708POPI   C3B10251   7.766  15.213   7.495  0.0403 -0.0794 -0.0905
  708POPI   C4B10252   7.622  15.091   7.837  0.0002 -0.4510 -0.0274
  709POPI    C110253  10.469   9.160   5.370  0.0492  0.0022  0.0114
  709POPI    C210254  10.403   8.958   5.032  0.0437 -0.0984  0.0722
  709POPI    C310255  10.651   9.271   5.032  0.0437 -0.0982 -0.0247
  709POPI   PO410256  10.227   9.210   5.448  0.0184  0.0701 -0.1906
  709POPI   GL110257  10.027   9.398   5.863  0.0181  0.0968  0.1219
  709POPI   GL210258   9.867   9.059   5.880 -0.0714 -0.0612  0.0079
  709POPI   C1A10259  10.243   9.708   6.058 -0.1429 -0.0958  0.0533
  709POPI   D2A10260  10.428   9.830   6.484  0.1660 -0.0951  0.2627
  709POPI   C3A10261  10.511   9.631   6.813 -0.1097 -0.3294 -0.2979
  709POPI   C4A10262  10.582   9.397   7.087  0.1716 -0.1376 -0.1822
  709POPI   C1B10263   9.985   9.170   6.330  0.0344  0.0341  0.1136
  709POPI   C2B10264  10.301   9.198   6.633 -0.1705  0.0206  0.2798
  709POPI   C3B10265  10.605   8.976   6.867 -0.2357  0.0901 -0.2446
  709POPI   C4B10266  10.663   8.875   7.264  0.1457 -0.0015  0.0861
  710POPI    C110267  17.849  11.894   5.873  0.1011  0.0838 -0.1074
  710POPI    C210268  17.604  11.606   5.743 -0.0553  0.0087  0.3350
  710POPI    C310269  17.635  11.949   5.540 -0.1773 -0.1584  0.0271
  710POPI   PO410270  18.059  11.754   5.920 -0.2681 -0.2569 -0.0075
  710POPI   GL110271  18.343  11.818   6.281  0.0966 -0.3180 -0.0526
  710POPI   GL210272  18.084  12.070   6.368 -0.0668 -0.0259 -0.1281
  710POPI   C1A10273  18.480  11.967   6.704 -0.3200  0.0871 -0.2204
  710POPI   D2A10274  18.686  11.929   7.162 -0.0716  0.3786 -0.2933
  710POPI   C3A10275  18.604  12.072   7.548 -0.1329  0.0467  0.1031
  710POPI   C4A10276  18.534  12.121   7.960  0.0047  0.0762  0.1100
  710POPI   C1B10277  18.091  12.228   6.804  0.0318  0.0986  0.0488
  710POPI   C2B10278  18.050  12.229   7.213 -0.1484 -0.3039  0.1626
  710POPI   C3B10279  17.791  12.011   7.590 -0.1560  0.1025 -0.0455
  710POPI   C4B10280  17.592  11.749   7.944 -0.0421 -0.2124  0.0788
  711POPI    C110281  11.141   6.114   5.428 -0.0273  0.1074 -0.1315
  711POPI    C210282  10.888   6.270   5.160  0.0700  0.0497 -0.2580
  711POPI    C310283  11.274   6.226   5.068  0.0517 -0.2281 -0.2095
  711POPI   PO410284  11.061   6.222   5.698 -0.1130  0.1199  0.4106
  711POPI   GL110285  11.177   6.034   6.044 -0.4613  0.2146  0.1823
  711POPI   GL210286  11.064   6.234   6.201 -0.0626  0.0563  0.0451
  711POPI   C1A10287  10.729   5.909   6.140  0.0420  0.2790  0.0212
  711POPI   D2A10288  10.340   5.767   6.317  0.2636 -0.1760 -0.1249
  711POPI   C3A10289  10.339   5.415   6.590  0.1689  0.0548  0.1350
  711POPI   C4A10290  10.198   4.993   6.700 -0.3678  0.1823  0.1933
  711POPI   C1B10291  11.026   6.108   6.564 -0.1256 -0.0638 -0.0909
  711POPI   C2B10292  10.888   6.169   6.861 -0.0138 -0.1339 -0.3483
  711POPI   C3B10293  10.665   6.024   7.277  0.3294 -0.0570  0.0053
  711POPI   C4B10294  10.376   5.799   7.573  0.2858  0.2611  0.0390
  712POPI    C110295   7.064   7.077   5.826 -0.0690 -0.1170  0.2921
  712POPI    C210296   6.753   7.328   5.832  0.0407  0.0332 -0.0476
  712POPI    C310297   6.935   7.243   5.486  0.1938 -0.2841  0.1065
  712POPI   PO410298   7.099   7.015   6.068 -0.4828  0.0821  0.0234
  712POPI   GL110299   6.983   7.225   6.463 -0.0255 -0.2062 -0.0470
  712POPI   GL210300   6.750   6.945   6.347 -0.0359  0.0453 -0.4005
  712POPI   C1A10301   6.899   7.272   6.921  0.1214 -0.0014  0.0661
  712POPI   D2A10302   6.842   7.126   7.362 -0.2491 -0.0211  0.0078
  712POPI   C3A10303   7.239   7.005   7.517 -0.0147  0.0436 -0.0669
  712POPI   C4A10304   7.376   7.030   7.932 -0.2735 -0.1989 -0.0076
  712POPI   C1B10305   6.572   7.069   6.649 -0.2413  0.0891 -0.1767
  712POPI   C2B10306   6.345   7.051   7.092  0.0346 -0.0994  0.2339
  712POPI   C3B10307   6.455   6.953   7.525  0.1208  0.1822 -0.1620
  712POPI   C4B10308   6.461   7.271   7.839 -0.1055 -0.1204 -0.0674
  713POPI    C110309   3.623  14.407   5.589  0.0713 -0.0689  0.1449
  713POPI    C210310   3.305  14.648   5.568  0.1135 -0.0226  0.0260
  713POPI    C310311   3.254  14.254   5.612  0.0384 -0.0213 -0.0463
  713POPI   PO410312   3.755  14.507   5.739  0.2075 -0.1534  0.2104
  713POPI   GL110313   3.958  14.505   6.105  0.1602 -0.2952  0.2077
  713POPI   GL210314   3.827  14.274   6.268 -0.0026 -0.0928  0.2513
  713POPI   C1A10315   4.192  14.549   6.440 -0.2153 -0.2525  0.1191
  713POPI   D2A10316   4.453  14.674   6.653 -0.3623  0.2610 -0.0070
  713POPI   C3A10317   4.490  14.821   6.955  0.2107  0.1931  0.0324
  713POPI   C4A10318   4.040  14.652   6.894  0.0434  0.1098 -0.1728
  713POPI   C1B10319   3.667  14.417   6.594  0.3443  0.0417  0.1861
  713POPI   C2B10320   3.605  14.407   7.021  0.1084  0.0536 -0.1592
  713POPI   C3B10321   3.918  14.533   7.341  0.2921 -0.0521 -0.0410
  713POPI   C4B10322   4.176  14.613   7.737  0.1826 -0.2098  0.0186
  714POPI    C110323   2.980   6.431   5.679  0.3680  0.3017  0.0483
  714POPI    C210324   3.007   6.282   5.308  0.2168  0.1420  0.0998
  714POPI    C310325   2.796   6.615   5.375 -0.1135 -0.0640  0.1059
  714POPI   PO410326   3.124   6.253   5.806 -0.0410  0.0771  0.0828
  714POPI   GL110327   3.106   6.451   6.194  0.0535 -0.2532 -0.1126
  714POPI   GL210328   3.311   6.291   6.291  0.1385  0.1476  0.1787
  714POPI   C1A10329   3.156   6.611   6.668  0.1808 -0.1892 -0.1504
  714POPI   D2A10330   3.310   6.877   7.037  0.0177 -0.1633  0.2256
  714POPI   C3A10331   3.057   6.873   7.358 -0.0881 -0.2805  0.1013
  714POPI   C4A10332   2.742   6.595   7.573 -0.1536  0.3542 -0.2827
  714POPI   C1B10333   3.490   6.281   6.819  0.0969 -0.0536  0.1120
  714POPI   C2B10334   3.464   6.457   7.183  0.0308  0.2842  0.1777
  714POPI   C3B10335   3.339   6.544   7.557  0.4287  0.2301 -0.2165
  714POPI   C4B10336   3.242   6.785   7.887 -0.1391 -0.1366 -0.1202
  715POPI    C110337   6.327  10.377   5.950 -0.3302 -0.2818 -0.3479
  715POPI    C210338   6.385  10.727   5.765 -0.0203 -0.1185  0.0409
  715POPI    C310339   6.026  10.638   5.917 -0.0758  0.0714  0.0227
  715POPI   PO410340   6.474  10.357   6.134  0.0111 -0.1862 -0.1445
  715POPI   GL110341   6.599  10.660   6.306 -0.2392 -0.0804 -0.0842
  715POPI   GL210342   6.424  10.876   6.231 -0.1625  0.0825 -0.1307
  715POPI   C1A10343   6.507  10.544   6.717 -0.1213  0.2894  0.0075
  715POPI   D2A10344   6.616  10.620   7.158 -0.0848  0.0857  0.1462
  715POPI   C3A10345   6.344  10.632   7.474  0.2656  0.0706 -0.0410
  715POPI   C4A10346   6.246  10.785   7.929 -0.0831  0.1897  0.3845
  715POPI   C1B10347   6.404  11.145   6.530 -0.2459 -0.0639 -0.0580
  715POPI   C2B10348   6.410  11.056   6.939  0.1461  0.2795  0.0129
  715POPI   C3B10349   6.439  11.138   7.366 -0.1273  0.0697  0.2096
  715POPI   C4B10350   6.562  11.211   7.755  0.0808  0.0844 -0.4109
  716POPI    C110351   6.672   9.906   5.960 -0.3224  0.1088  0.0850
  716POPI    C210352   6.628   9.703   5.618 -0.1299  0.0759  0.0787
  716POPI    C310353   6.364   9.987   5.717 -0.0514  0.2565 -0.2167
  716POPI   PO410354   6.746   9.718   6.132 -0.1185 -0.0507 -0.0491
  716POPI   GL110355   6.825   9.615   6.606 -0.3111 -0.0011  0.0940
  716POPI   GL210356   6.785   9.298   6.570 -0.2459  0.1437  0.1649
  716POPI   C1A10357   6.766   9.647   7.073  0.0316  0.2685  0.3180
  716POPI   D2A10358   6.974   9.627   7.490 -0.2554 -0.0905  0.1865
  716POPI   C3A10359   6.979  10.071   7.647 -0.0138 -0.1095  0.1268
  716POPI   C4A10360   6.786  10.518   7.650 -0.0977  0.1942 -0.0061
  716POPI   C1B10361   6.799   9.108   6.945  0.0529  0.1484 -0.1668
  716POPI   C2B10362   6.727   9.224   7.370 -0.1367  0.1813 -0.2337
  716POPI   C3B10363   6.680   9.237   7.836 -0.1942 -0.3256 -0.0412
  716POPI   C4B10364   6.803   9.211   8.245  0.1988 -0.2458 -0.1582
  717POPI    C110365   9.435   6.812   5.591  0.1426 -0.0039 -0.1408
  717POPI    C210366   9.235   6.901   5.925  0.0757  0.1782 -0.2278
  717POPI    C310367   9.196   6.539   5.759  0.2424  0.0269  0.0538
  717POPI   PO410368   9.668   6.826   5.616  0.1552 -0.1365  0.2261
  717POPI   GL110369   9.838   6.877   6.007 -0.1815 -0.0695 -0.1751
  717POPI   GL210370   9.665   6.536   6.112  0.1312  0.0579 -0.0373
  717POPI   C1A10371   9.692   7.179   6.252 -0.1117 -0.3152 -0.1685
  717POPI   D2A10372   9.290   7.314   6.264 -0.1320 -0.2145  0.0568
  717POPI   C3A10373   9.203   7.618   6.721  0.1392 -0.0232  0.0972
  717POPI   C4A10374   9.210   7.735   7.214 -0.0584 -0.1323 -0.0380
  717POPI   C1B10375   9.498   6.717   6.442  0.1862  0.4339  0.1848
  717POPI   C2B10376   9.347   7.042   6.707 -0.0409 -0.0508  0.2761
  717POPI   C3B10377   9.232   7.196   7.040 -0.0557  0.1667  0.2950
  717POPI   C4B10378   9.477   7.361   7.367 -0.0360 -0.1209 -0.0577
  718POPI    C110379   0.337   8.878   5.956 -0.2162 -0.2171  0.0464
  718POPI    C210380   0.667   8.852   5.732 -0.1608  0.2949  0.0579
  718POPI    C310381   0.650   8.663   6.083 -0.2506 -0.5204 -0.3620
  718POPI   PO410382   0.251   9.091   5.988 -0.3003 -0.2807  0.1142
  718POPI   GL110383   0.305   9.271   6.372  0.0294  0.2206 -0.0043
  718POPI   GL210384   0.339   9.589   6.404  0.0540 -0.0656  0.1351
  718POPI   C1A10385   0.198   9.295   6.758  0.0492  0.0699 -0.1399
  718POPI   D2A10386   0.268   9.257   7.112  0.1523 -0.1439 -0.2504
  718POPI   C3A10387  -0.006   9.468   7.372 -0.0314  0.1501  0.3603
  718POPI   C4A10388  -0.149   9.410   7.770 -0.4403  0.0201  0.0677
  718POPI   C1B10389   0.149   9.838   6.792  0.0185  0.2095  0.3573
  718POPI   C2B10390   0.000   9.972   7.127  0.0412  0.0812  0.2048
  718POPI   C3B10391   0.016   9.958   7.574  0.1580 -0.0200 -0.1551
  718POPI   C4B10392   0.125   9.786   7.942  0.2431 -0.2823 -0.2653
  719POPI    C110393   8.544   8.265   5.986 -0.0856  0.0390 -0.1229
  719POPI    C210394   8.603   8.637   5.852  0.1319  0.0371 -0.0368
  719POPI    C310395   8.357   8.390   5.655  0.0401  0.2032 -0.1329
  719POPI   PO410396   8.905   8.159   5.967  0.0408  0.0795 -0.0579
  719POPI   GL110397   9.178   8.239   6.309  0.0214 -0.0027 -0.4015
  719POPI   GL210398   9.454   8.129   6.155  0.2149  0.3887  0.1330
  719POPI   C1A10399   9.304   8.102   6.710  0.1372  0.1516 -0.0955
  719POPI   D2A10400   9.758   7.844   6.907 -0.0354 -0.1586  0.1185
  719POPI   C3A10401   9.914   7.685   7.319  0.0313 -0.3659 -0.2668
  719POPI   C4A10402   9.802   7.596   7.697  0.0259  0.3201  0.1060
  719POPI   C1B10403   9.684   8.213   6.426  0.2574 -0.1405  0.1263
  719POPI   C2B10404   9.933   8.268   6.889  0.1388 -0.2993 -0.1001
  719POPI   C3B10405   9.977   8.285   7.368  0.1698  0.2454  0.1780
  719POPI   C4B10406  10.249   8.108   7.704 -0.0435 -0.1136  0.3172
  720POPI    C110407   2.998   5.618   6.287 -0.1270 -0.0028  0.0363
  720POPI    C210408   3.076   5.557   5.899  0.0139  0.1669  0.0366
  720POPI    C310409   3.266   5.847   6.098 -0.0285  0.0549  0.2433
  720POPI   PO410410   3.003   5.438   6.381 -0.1397  0.2149 -0.1572
  720POPI   GL110411   2.856   5.171   6.696  0.0980 -0.4866  0.0418
  720POPI   GL210412   2.530   5.255   6.583 -0.0452  0.0615  0.2942
  720POPI   C1A10413   3.027   5.200   7.022 -0.0990 -0.1535  0.1186
  720POPI   D2A10414   3.048   5.082   7.366  0.0826 -0.2688  0.1529
  720POPI   C3A10415   3.116   4.734   7.711 -0.2370  0.2320 -0.0705
  720POPI   C4A10416   2.958   4.541   8.144  0.1422 -0.2086 -0.1199
  720POPI   C1B10417   2.523   5.430   6.942 -0.0159  0.0672 -0.1347
  720POPI   C2B10418   2.094   5.591   7.087 -0.0809 -0.1369 -0.0070
  720POPI   C3B10419   2.072   5.854   7.502 -0.2583  0.1769 -0.1040
  720POPI   C4B10420   2.483   5.944   7.755 -0.2421  0.1324 -0.1597
  721POPI    C110421  13.264  16.103   5.766  0.2315  0.1329 -0.2232
  721POPI    C210422  13.631  15.944   5.766  0.2119  0.0857 -0.0129
  721POPI    C310423  13.436  15.996   5.421  0.4030  0.0814 -0.1229
  721POPI   PO410424  13.357  16.270   6.029  0.0287 -0.4332  0.0573
  721POPI   GL110425  13.290  16.361   6.519  0.1534  0.0553 -0.1747
  721POPI   GL210426  13.495  16.628   6.564  0.0242 -0.0326  0.0149
  721POPI   C1A10427  13.543  16.152   6.807  0.0037  0.1240  0.2952
  721POPI   D2A10428  13.769  16.324   7.177  0.0832 -0.5216  0.0265
  721POPI   C3A10429  13.577  15.984   7.419 -0.0964  0.3053  0.0096
  721POPI   C4A10430  13.521  15.951   7.890  0.0909  0.2418  0.0658
  721POPI   C1B10431  13.425  16.657   7.020  0.2802  0.0975 -0.0091
  721POPI   C2B10432  13.444  16.592   7.445 -0.2029  0.2292  0.0190
  721POPI   C3B10433  13.404  16.449   7.783  0.0962 -0.0694 -0.1186
  721POPI   C4B10434  13.348  16.291   8.237  0.1589  0.3322 -0.1516
  722POPI    C110435   4.850  14.689   5.419 -0.0557 -0.0284 -0.2598
  722POPI    C210436   4.660  14.803   5.086  0.1329  0.1038 -0.3239
  722POPI    C310437   4.930  15.045   5.254 -0.0610  0.0973  0.0042
  722POPI   PO410438   4.654  14.591   5.536  0.0556 -0.0283  0.3634
  722POPI   GL110439   4.410  14.566   5.923  0.0598 -0.2713  0.0872
  722POPI   GL210440   4.546  14.343   6.131  0.4034 -0.0301  0.2607
  722POPI   C1A10441   4.463  14.844   6.177 -0.0456 -0.0465 -0.0067
  722POPI   D2A10442   4.499  15.244   6.052  0.1143 -0.0112  0.1413
  722POPI   C3A10443   4.382  15.569   6.373  0.0029 -0.1336  0.0602
  722POPI   C4A10444   4.159  15.557   6.737 -0.1151  0.5234  0.0184
  722POPI   C1B10445   4.238  14.022   6.240 -0.2364 -0.1291  0.0608
  722POPI   C2B10446   4.090  14.117   6.702 -0.1239 -0.1421  0.0754
  722POPI   C3B10447   3.973  14.036   7.120 -0.1357  0.1493  0.0651
  722POPI   C4B10448   4.037  14.071   7.591  0.1344 -0.2207  0.2098
  723POPI    C110449   0.207   3.475   5.945  0.0972 -0.2027  0.1283
  723POPI    C210450   0.524   3.680   6.077 -0.1836  0.0737  0.3895
  723POPI    C310451   0.345   3.786   5.735  0.1231 -0.2100  0.1346
  723POPI   PO410452   0.049   3.502   6.236  0.4036  0.1476  0.1115
  723POPI   GL110453  -0.130   3.613   6.539  0.1476  0.1742  0.2033
  723POPI   GL210454  -0.187   3.908   6.475 -0.1574 -0.2088  0.0693
  723POPI   C1A10455  -0.227   3.393   6.916  0.0033 -0.1452  0.1399
  723POPI   D2A10456  -0.264   3.412   7.368 -0.0671  0.3245 -0.0894
  723POPI   C3A10457   0.004   3.460   7.753  0.5762 -0.0875  0.0920
  723POPI   C4A10458   0.040   3.606   8.134 -0.0659 -0.1040 -0.1262
  723POPI   C1B10459   0.052   3.814   6.967 -0.0375  0.1484  0.2612
  723POPI   C2B10460   0.121   3.755   7.325  0.1003 -0.0368 -0.2231
  723POPI   C3B10461   0.442   3.799   7.680 -0.0144 -0.2395 -0.2993
  723POPI   C4B10462   0.431   3.898   8.083 -0.2831  0.0885  0.2318
  724POPI    C110463   7.357  11.425   5.227  0.2706  0.5596  0.0217
  724POPI    C210464   7.641  11.147   5.185 -0.0084  0.2441  0.1787
  724POPI    C310465   7.633  11.462   4.940  0.1003 -0.0694 -0.2406
  724POPI   PO410466   7.403  11.463   5.648 -0.0442  0.0092  0.1695
  724POPI   GL110467   7.350  11.093   6.076  0.0145 -0.1176 -0.0904
  724POPI   GL210468   7.473  11.472   6.135  0.4070 -0.0547 -0.2249
  724POPI   C1A10469   7.381  11.032   6.486  0.0660 -0.1979 -0.1788
  724POPI   D2A10470   7.421  10.885   6.901 -0.3939  0.0181  0.2227
  724POPI   C3A10471   7.450  11.018   7.274 -0.0078  0.0553  0.0450
  724POPI   C4A10472   7.474  10.957   7.662 -0.0895  0.1478 -0.0245
  724POPI   C1B10473   7.617  11.834   6.432 -0.0139  0.1676  0.2959
  724POPI   C2B10474   7.673  11.899   6.857  0.0309  0.1692 -0.2861
  724POPI   C3B10475   7.730  11.982   7.253  0.1442 -0.2366  0.3039
  724POPI   C4B10476   7.674  11.915   7.663  0.1508 -0.3281 -0.0712
  725POPI    C110477  16.958   1.529   5.824  0.1432 -0.0054  0.1170
  725POPI    C210478  17.003   1.153   5.953 -0.0190  0.0695  0.4016
  725POPI    C310479  17.307   1.340   5.772  0.1652 -0.0914  0.5412
  725POPI   PO410480  16.904   1.635   6.057  0.1616  0.0577 -0.0463
  725POPI   GL110481  16.777   1.838   6.491 -0.1417 -0.3167  0.0161
  725POPI   GL210482  17.027   1.614   6.562  0.1282 -0.2607 -0.2859
  725POPI   C1A10483  16.712   2.079   6.948 -0.0759  0.0266  0.1332
  725POPI   D2A10484  16.945   2.248   7.235 -0.3425  0.3285 -0.0083
  725POPI   C3A10485  16.860   2.239   7.678  0.2432  0.1173 -0.1318
  725POPI   C4A10486  16.973   2.010   8.132 -0.3528 -0.0685 -0.4164
  725POPI   C1B10487  16.974   1.661   6.965 -0.0475 -0.0998 -0.2996
  725POPI   C2B10488  16.915   1.772   7.289 -0.2881  0.1744  0.0700
  725POPI   C3B10489  16.863   1.659   7.665 -0.2484  0.3551  0.0758
  725POPI   C4B10490  17.014   1.366   7.891 -0.1184 -0.0564 -0.0769
  726POPI    C110491  15.080   7.146   5.694  0.0986  0.2370  0.1454
  726POPI    C210492  15.417   7.336   5.795  0.1147  0.3181 -0.0564
  726POPI    C310493  15.422   6.941   5.732  0.1192  0.2785  0.1840
  726POPI   PO410494  14.931   7.250   5.927 -0.0870 -0.0596  0.2211
  726POPI   GL110495  15.208   7.257   6.282  0.0040 -0.3001 -0.1155
  726POPI   GL210496  15.400   6.958   6.213  0.1288 -0.0642  0.0323
  726POPI   C1A10497  15.069   7.421   6.722 -0.0784 -0.4393 -0.0894
  726POPI   D2A10498  14.906   7.667   7.006 -0.0057  0.1151  0.3175
  726POPI   C3A10499  14.804   8.141   6.852  0.3322  0.1430 -0.3374
  726POPI   C4A10500  14.377   8.236   6.814  0.2480 -0.2228  0.0222
  726POPI   C1B10501  15.581   6.964   6.623 -0.1807 -0.0134  0.0136
  726POPI   C2B10502  15.762   7.009   7.103 -0.2284 -0.0336 -0.0813
  726POPI   C3B10503  15.986   6.902   7.610  0.3398 -0.4489  0.0403
  726POPI   C4B10504  15.995   6.578   7.859 -0.0517  0.3254 -0.3231
  727POPI    C110505  14.586   3.395   6.032 -0.0068  0.1719 -0.1229
  727POPI    C210506  14.325   3.668   5.899 -0.2061  0.0386 -0.0104
  727POPI    C310507  14.360   3.316   5.711  0.0402  0.1335 -0.1465
  727POPI   PO410508  14.606   3.460   6.352  0.1917 -0.1919 -0.0889
  727POPI   GL110509  14.580   3.183   6.751  0.1643 -0.1312 -0.0340
  727POPI   GL210510  14.894   3.093   6.785 -0.0934 -0.2469  0.1286
  727POPI   C1A10511  14.520   3.190   7.094  0.1431  0.1099  0.4412
  727POPI   D2A10512  14.274   3.118   7.454  0.2970  0.1611  0.1543
  727POPI   C3A10513  14.502   3.266   7.800  0.2755 -0.0501  0.2574
  727POPI   C4A10514  14.388   3.064   8.175  0.0387  0.1980 -0.0354
  727POPI   C1B10515  15.047   3.017   7.134  0.1097 -0.2055  0.0734
  727POPI   C2B10516  14.885   2.990   7.439  0.2341  0.2123  0.0047
  727POPI   C3B10517  14.735   2.825   7.858 -0.0958 -0.0868 -0.0345
  727POPI   C4B10518  14.362   2.535   8.173  0.0067 -0.0615  0.1004
  728POPI    C110519   1.089   6.795   5.748 -0.2074 -0.0457 -0.2072
  728POPI    C210520   1.212   6.441   5.608  0.0436 -0.0952  0.1246
  728POPI    C310521   1.440   6.766   5.558 -0.0909 -0.0184  0.0011
  728POPI   PO410522   1.021   6.766   5.955  0.0046 -0.3340 -0.0331
  728POPI   GL110523   1.067   6.710   6.449 -0.1544 -0.2665 -0.0306
  728POPI   GL210524   1.375   6.748   6.533 -0.4149 -0.1891  0.2186
  728POPI   C1A10525   1.071   6.491   6.853 -0.0015  0.0075 -0.1141
  728POPI   D2A10526   0.828   6.078   7.058  0.0541  0.1549 -0.0097
  728POPI   C3A10527   0.622   6.255   7.400 -0.0494  0.2658 -0.1950
  728POPI   C4A10528   0.422   6.116   7.892 -0.2051 -0.1694 -0.0751
  728POPI   C1B10529   1.669   6.984   6.813 -0.0737  0.1128  0.1378
  728POPI   C2B10530   1.909   7.013   7.232  0.0394 -0.1979  0.0479
  728POPI   C3B10531   2.197   6.805   7.316 -0.0505 -0.2852  0.2951
  728POPI   C4B10532   2.603   6.521   7.101  0.1030 -0.1432  0.1616
  729POPI    C110533   6.449   8.946   6.126 -0.1605 -0.0220 -0.2333
  729POPI    C210534   6.534   9.011   5.741  0.0989  0.2046 -0.1410
  729POPI    C310535   6.759   9.178   6.026  0.1210 -0.2396  0.1102
  729POPI   PO410536   6.445   8.667   6.133 -0.1848 -0.0332  0.2077
  729POPI   GL110537   6.697   8.495   6.509 -0.4166  0.0394 -0.0119
  729POPI   GL210538   6.711   8.745   6.638 -0.0683 -0.2084  0.0215
  729POPI   C1A10539   6.599   8.196   6.792  0.0261  0.1787  0.1651
  729POPI   D2A10540   6.490   8.179   7.289  0.0741  0.0661  0.1132
  729POPI   C3A10541   6.766   8.338   7.609  0.1351  0.0179  0.1742
  729POPI   C4A10542   7.057   8.453   7.967  0.2659  0.1018  0.0517
  729POPI   C1B10543   6.586   8.595   7.084  0.1181  0.1307  0.2314
  729POPI   C2B10544   6.932   8.731   7.335  0.0986 -0.0670 -0.2474
  729POPI   C3B10545   7.261   8.489   7.508  0.1893 -0.1800 -0.0181
  729POPI   C4B10546   7.576   8.602   7.956 -0.0942  0.0887 -0.0524
  730POPI    C110547   4.529   2.128   5.544  0.1317  0.0998  0.0526
  730POPI    C210548   4.629   2.134   5.932  0.1180  0.3182  0.0544
  730POPI    C310549   4.266   2.256   5.817  0.0076 -0.0470  0.0029
  730POPI   PO410550   4.844   1.953   5.516 -0.1001 -0.1814 -0.0314
  730POPI   GL110551   5.014   1.668   5.820  0.3979  0.3600 -0.2821
  730POPI   GL210552   4.775   1.680   6.025  0.1750  0.3679 -0.2237
  730POPI   C1A10553   5.155   1.436   6.282 -0.0995  0.0696 -0.0352
  730POPI   D2A10554   5.136   1.221   6.628 -0.4938  0.0320 -0.0739
  730POPI   C3A10555   4.896   1.369   6.965  0.1573  0.1282  0.2184
  730POPI   C4A10556   4.460   1.375   7.255  0.3676 -0.1861  0.1286
  730POPI   C1B10557   4.731   1.928   6.424  0.0720  0.0047 -0.1615
  730POPI   C2B10558   4.713   2.220   6.662 -0.0289 -0.1252  0.2466
  730POPI   C3B10559   4.574   2.457   7.069  0.2084  0.1205 -0.4106
  730POPI   C4B10560   4.519   2.764   7.420  0.3307  0.1402 -0.0333
  731POPI    C110561   9.065   3.015   5.601  0.0089 -0.0939  0.3159
  731POPI    C210562   9.149   2.660   5.437 -0.2018  0.0068 -0.0215
  731POPI    C310563   9.342   2.987   5.314 -0.1509  0.0405  0.1458
  731POPI   PO410564   8.855   3.058   5.617  0.0589  0.1599  0.0159
  731POPI   GL110565   8.620   3.227   5.903  0.2890 -0.0851  0.0807
  731POPI   GL210566   8.583   2.903   6.124  0.1404 -0.0165 -0.2572
  731POPI   C1A10567   8.484   3.351   6.323  0.1304  0.1146 -0.1262
  731POPI   D2A10568   8.471   3.365   6.755 -0.2415 -0.0281 -0.1604
  731POPI   C3A10569   8.105   3.517   7.009  0.0850  0.3073 -0.1869
  731POPI   C4A10570   7.816   3.457   7.462 -0.2853  0.1063  0.2437
  731POPI   C1B10571   8.799   2.955   6.417  0.3421  0.0042 -0.2280
  731POPI   C2B10572   9.007   3.084   6.868  0.0879 -0.0531 -0.1394
  731POPI   C3B10573   8.987   2.913   7.258  0.0336  0.0841 -0.1776
  731POPI   C4B10574   8.755   2.468   7.386  0.1035  0.0760 -0.1273
  732POPI    C110575   0.685  16.035   5.862 -0.1127  0.1734  0.2289
  732POPI    C210576   0.670  16.340   6.121 -0.0403  0.3400  0.0392
  732POPI    C310577   0.673  16.412   5.727  0.0419  0.0959 -0.0061
  732POPI   PO410578   0.660  15.722   5.969 -0.1085  0.1236  0.0745
  732POPI   GL110579   0.634  15.547   6.348 -0.0993  0.1533 -0.0156
  732POPI   GL210580   0.444  15.602   6.434 -0.1492 -0.0026  0.0278
  732POPI   C1A10581   1.075  15.888   6.422  0.0926 -0.3347 -0.1700
  732POPI   D2A10582   1.188  16.003   6.804  0.0194  0.0908  0.0789
  732POPI   C3A10583   1.430  16.018   7.198  0.1861  0.0293 -0.0907
  732POPI   C4A10584   1.558  15.964   7.650  0.2707 -0.3189  0.0565
  732POPI   C1B10585   0.544  15.124   6.628  0.1570  0.2552  0.0074
  732POPI   C2B10586   0.781  15.109   6.930 -0.0388  0.3169 -0.2900
  732POPI   C3B10587   0.904  15.236   7.249 -0.0440 -0.2335  0.1621
  732POPI   C4B10588   0.986  15.031   7.539 -0.0129  0.0812  0.4420
  733POPI    C110589  14.889  14.654   5.244  0.0510 -0.0225  0.0601
  733POPI    C210590  14.613  14.754   4.972  0.0959  0.0944  0.0573
  733POPI    C310591  14.739  14.376   4.999 -0.0903  0.0336  0.0822
  733POPI   PO410592  14.882  14.910   5.348  0.0367 -0.1096  0.1145
  733POPI   GL110593  14.871  15.104   5.782  0.0718  0.1817 -0.1243
  733POPI   GL210594  14.573  14.917   5.802  0.6395  0.2140 -0.2137
  733POPI   C1A10595  15.091  14.913   6.130  0.0140  0.1644  0.2013
  733POPI   D2A10596  15.448  14.822   6.314  0.0692 -0.2116  0.0583
  733POPI   C3A10597  15.431  14.934   6.721 -0.1076  0.1143 -0.1428
  733POPI   C4A10598  15.366  14.853   7.203  0.1370 -0.1750  0.1356
  733POPI   C1B10599  14.281  14.945   6.132  0.2972  0.1824 -0.1985
  733POPI   C2B10600  14.324  14.722   6.492  0.0492 -0.2390 -0.0337
  733POPI   C3B10601  14.576  14.547   6.779  0.2103  0.1059  0.0062
  733POPI   C4B10602  14.762  14.284   7.082  0.0412 -0.0306  0.2159
  734POPI    C110603   8.805   6.222   5.899  0.0353 -0.1791 -0.1823
  734POPI    C210604   8.484   6.019   5.773 -0.1313 -0.1414  0.1710
  734POPI    C310605   8.440   6.332   6.019  0.1218  0.3212 -0.3504
  734POPI   PO410606   9.030   6.025   5.847 -0.2207 -0.0934  0.2357
  734POPI   GL110607   9.480   6.065   6.156  0.0318 -0.1331 -0.2154
  734POPI   GL210608   9.194   6.328   6.233  0.0371  0.2423 -0.1490
  734POPI   C1A10609   9.248   5.876   6.410  0.0230 -0.3161 -0.1545
  734POPI   D2A10610   8.999   5.520   6.441  0.1708 -0.0750  0.1008
  734POPI   C3A10611   8.710   5.575   6.728 -0.0176  0.0496  0.2066
  734POPI   C4A10612   8.858   5.677   7.096 -0.0490  0.3407  0.0956
  734POPI   C1B10613   9.489   6.270   6.662  0.1759 -0.4098 -0.0529
  734POPI   C2B10614   9.380   6.607   6.964 -0.0379  0.1711  0.1359
  734POPI   C3B10615   9.313   6.771   7.297  0.0529  0.0683  0.0656
  734POPI   C4B10616   9.429   6.877   7.627 -0.0052  0.1905  0.1980
  735POPI    C110617   2.220  11.074   5.841  0.1479 -0.1276  0.0444
  735POPI    C210618   1.855  11.225   5.774  0.1350 -0.0050  0.3720
  735POPI    C310619   1.968  10.886   5.594 -0.0554  0.0770  0.0921
  735POPI   PO410620   2.276  11.217   6.099  0.2385 -0.1149 -0.3149
  735POPI   GL110621   2.437  11.437   6.445  0.0337 -0.2575 -0.1369
  735POPI   GL210622   2.131  11.527   6.476  0.0080 -0.0192 -0.1558
  735POPI   C1A10623   2.648  11.317   6.829  0.0733 -0.0406  0.0739
  735POPI   D2A10624   2.689  11.295   7.231 -0.0424  0.1810 -0.1368
  735POPI   C3A10625   2.893  11.487   7.635  0.2202 -0.0163  0.0012
  735POPI   C4A10626   2.888  11.157   7.973 -0.0175 -0.1944 -0.2745
  735POPI   C1B10627   2.004  11.709   6.825  0.0440 -0.2371 -0.0366
  735POPI   C2B10628   2.216  11.754   7.142  0.0893  0.0203 -0.0110
  735POPI   C3B10629   2.399  11.567   7.514  0.0051 -0.2293 -0.2441
  735POPI   C4B10630   2.423  11.400   7.961  0.1427  0.1484  0.1741
  736POPI    C110631  17.085   8.933   5.451  0.0251 -0.1200 -0.0455
  736POPI    C210632  16.929   8.681   5.182 -0.1773  0.0641 -0.1039
  736POPI    C310633  17.302   8.626   5.316 -0.2013 -0.2352 -0.1533
  736POPI   PO410634  16.976   8.955   5.697  0.1495  0.0348 -0.2214
  736POPI   GL110635  16.979   8.739   6.122 -0.1316 -0.5227  0.1844
  736POPI   GL210636  16.873   8.506   6.208  0.1672  0.1237  0.1666
  736POPI   C1A10637  17.078   8.947   6.463  0.0942 -0.0365 -0.2170
  736POPI   D2A10638  17.047   9.102   6.851  0.5332  0.4458  0.1050
  736POPI   C3A10639  17.189   8.945   7.336 -0.0775 -0.0481  0.0134
  736POPI   C4A10640  17.457   8.664   7.605  0.0569  0.0105  0.3167
  736POPI   C1B10641  16.665   8.631   6.487  0.0773 -0.1190  0.0493
  736POPI   C2B10642  16.739   8.726   6.990  0.0255  0.0640 -0.2253
  736POPI   C3B10643  16.673   8.672   7.391  0.0838  0.1306  0.1178
  736POPI   C4B10644  16.485   8.897   7.757 -0.0527  0.1881  0.3854
  737POPI    C110645  16.859  11.638   5.993 -0.1559  0.1637  0.0075
  737POPI    C210646  16.538  11.679   5.758 -0.1684 -0.0753 -0.0199
  737POPI    C310647  16.797  11.380   5.694  0.0915  0.1478 -0.0324
  737POPI   PO410648  16.731  11.550   6.250 -0.0316 -0.0230  0.2469
  737POPI   GL110649  16.530  11.444   6.581 -0.1996  0.0509 -0.2296
  737POPI   GL210650  16.315  11.622   6.586 -0.0220 -0.3606 -0.2525
  737POPI   C1A10651  16.633  11.004   6.750  0.2244 -0.1254  0.1315
  737POPI   D2A10652  16.764  10.536   6.999 -0.0469  0.0287  0.1139
  737POPI   C3A10653  16.861  10.616   7.443  0.1003  0.0411  0.0879
  737POPI   C4A10654  16.923  10.629   7.913  0.2282  0.2676 -0.0785
  737POPI   C1B10655  16.514  11.822   6.939  0.1126  0.2054 -0.1302
  737POPI   C2B10656  16.566  11.931   7.387 -0.0744 -0.2339 -0.1324
  737POPI   C3B10657  16.563  11.760   7.799  0.1721 -0.1633  0.0160
  737POPI   C4B10658  16.747  11.477   8.167 -0.0911 -0.0285  0.0551
  738POPI    C110659   9.607  11.090   5.592 -0.0180  0.0868 -0.1230
  738POPI    C210660   9.693  11.347   5.298 -0.0053  0.0041 -0.1920
  738POPI    C310661   9.893  11.002   5.326  0.0249  0.0319 -0.0591
  738POPI   PO410662   9.376  11.139   5.651 -0.1560  0.0957 -0.3355
  738POPI   GL110663   9.188  11.370   6.105  0.2514 -0.0317 -0.1460
  738POPI   GL210664   8.837  11.537   6.074 -0.3132 -0.0042 -0.0471
  738POPI   C1A10665   9.310  11.353   6.519 -0.1401  0.1463  0.2212
  738POPI   D2A10666   9.165  11.499   6.837  0.2502 -0.0706 -0.0385
  738POPI   C3A10667   9.247  11.319   7.178  0.0910  0.2629  0.0036
  738POPI   C4A10668   9.156  11.225   7.519 -0.3240 -0.0587  0.0436
  738POPI   C1B10669   8.624  11.770   6.530 -0.0773 -0.1889  0.3352
  738POPI   C2B10670   8.718  11.800   6.955 -0.0451  0.0485  0.0320
  738POPI   C3B10671   8.735  11.541   7.265 -0.2175 -0.1325 -0.0927
  738POPI   C4B10672   8.675  11.351   7.639 -0.0422 -0.0053  0.2000
  739POPI    C110673   2.897   8.476   5.808 -0.0565 -0.0000 -0.1732
  739POPI    C210674   3.250   8.636   5.907  0.0609 -0.3215 -0.0581
  739POPI    C310675   3.227   8.250   5.804 -0.2448 -0.2808 -0.1524
  739POPI   PO410676   2.740   8.534   6.058 -0.3027  0.1594 -0.0851
  739POPI   GL110677   2.530   8.739   6.451 -0.2941  0.4505 -0.3043
  739POPI   GL210678   2.936   8.641   6.628  0.2144  0.1346  0.2195
  739POPI   C1A10679   2.349   8.877   6.764  0.0197  0.1896  0.2322
  739POPI   D2A10680   2.366   8.968   7.183 -0.0041  0.1717 -0.0082
  739POPI   C3A10681   2.540   8.658   7.496 -0.1189  0.0028 -0.0196
  739POPI   C4A10682   2.885   8.689   7.764 -0.2596  0.1547 -0.2359
  739POPI   C1B10683   2.780   8.727   7.060 -0.3277 -0.0816 -0.0268
  739POPI   C2B10684   2.920   9.017   7.347 -0.1798 -0.1302  0.0873
  739POPI   C3B10685   3.240   9.128   7.669 -0.3188  0.1498  0.5098
  739POPI   C4B10686   3.640   9.027   7.774 -0.2546 -0.5296  0.0599
  740POPI    C110687  15.180   4.413   5.873  0.2347  0.1419  0.0183
  740POPI    C210688  15.396   4.112   6.024  0.0647  0.0768  0.1343
  740POPI    C310689  15.194   4.062   5.682  0.0046  0.0460  0.1743
  740POPI   PO410690  15.321   4.641   5.920 -0.3563  0.1970 -0.0859
  740POPI   GL110691  15.361   4.680   6.431  0.0384  0.2842 -0.1590
  740POPI   GL210692  15.539   4.469   6.376 -0.2217  0.1830  0.1395
  740POPI   C1A10693  15.506   4.859   6.815 -0.0820 -0.0532  0.0918
  740POPI   D2A10694  15.484   4.998   7.223  0.0581  0.0527 -0.0343
  740POPI   C3A10695  15.821   4.693   7.359  0.0380  0.1747 -0.2378
  740POPI   C4A10696  15.923   4.336   7.352  0.0031  0.2158  0.0737
  740POPI   C1B10697  15.809   4.460   6.794  0.1055 -0.3907 -0.2772
  740POPI   C2B10698  16.171   4.644   7.007  0.0085 -0.2881 -0.0663
  740POPI   C3B10699  16.276   4.584   7.512  0.2682 -0.0072 -0.4236
  740POPI   C4B10700  16.183   4.468   7.937  0.3940  0.2079  0.0662
  741POPI    C110701   2.292   7.772   6.381 -0.1103  0.1250 -0.0930
  741POPI    C210702   2.259   7.648   6.002 -0.0326  0.2121 -0.1285
  741POPI    C310703   2.139   7.411   6.300 -0.4126  0.2791 -0.2237
  741POPI   PO410704   2.149   8.055   6.324  0.2448  0.2138 -0.1252
  741POPI   GL110705   2.294   8.341   6.626 -0.1863 -0.1512  0.0781
  741POPI   GL210706   2.561   8.186   6.480 -0.0316  0.0155 -0.0204
  741POPI   C1A10707   2.358   8.338   7.034 -0.0120  0.0793 -0.1401
  741POPI   D2A10708   2.639   8.070   7.247  0.0903 -0.0561  0.0231
  741POPI   C3A10709   2.700   8.033   7.704 -0.5755 -0.2297 -0.0176
  741POPI   C4A10710   2.615   8.331   7.907  0.1694 -0.2276  0.1669
  741POPI   C1B10711   2.895   8.144   6.789  0.0954  0.2065 -0.0932
  741POPI   C2B10712   3.076   7.834   7.162 -0.0942  0.0599 -0.2048
  741POPI   C3B10713   3.192   7.849   7.601 -0.2019  0.1648 -0.3445
  741POPI   C4B10714   3.108   7.358   7.631  0.0454 -0.2017 -0.0253
  742POPS   CNO10715  15.388   3.608   6.117 -0.0923  0.4418  0.1224
  742POPS   PO410716  15.141   3.393   6.361 -0.0243  0.3144 -0.2934
  742POPS   GL110717  14.937   3.632   6.677 -0.1837 -0.0299 -0.0670
  742POPS   GL210718  14.698   3.893   6.628  0.0452 -0.0213 -0.2341
  742POPS   C1A10719  14.893   3.520   7.102 -0.0889  0.0804  0.0755
  742POPS   D2A10720  14.936   3.482   7.505 -0.2683  0.1390 -0.5140
  742POPS   C3A10721  14.938   3.756   7.861 -0.0877  0.1833 -0.1143
  742POPS   C4A10722  15.145   3.824   8.189 -0.0953  0.2340  0.1546
  742POPS   C1B10723  14.369   3.668   6.932 -0.0835  0.2657 -0.0097
  742POPS   C2B10724  14.468   3.607   7.361 -0.1836 -0.2865  0.0018
  742POPS   C3B10725  14.499   3.787   7.684 -0.1557 -0.0947 -0.1866
  742POPS   C4B10726  14.657   4.123   8.066  0.0122 -0.0149 -0.0968
  743POPS   CNO10727   6.235  13.349   5.509 -0.2946  0.0599  0.1284
  743POPS   PO410728   6.573  13.447   5.797  0.0444  0.2123 -0.1909
  743POPS   GL110729   6.810  13.248   6.105 -0.0826  0.1095  0.0697
  743POPS   GL210730   6.783  12.956   6.233 -0.2672  0.1583  0.0937
  743POPS   C1A10731   7.073  13.372   6.474 -0.0293  0.3042  0.0432
  743POPS   D2A10732   7.015  13.120   6.873 -0.3661 -0.0622 -0.2093
  743POPS   C3A10733   7.151  13.263   7.276  0.1757  0.0653 -0.0027
  743POPS   C4A10734   7.056  13.195   7.736 -0.3562  0.0849 -0.1040
  743POPS   C1B10735   6.652  12.894   6.603 -0.1814 -0.3067  0.2388
  743POPS   C2B10736   6.551  12.809   7.021  0.0750 -0.2072 -0.2676
  743POPS   C3B10737   6.602  12.999   7.436  0.0612  0.0475  0.1653
  743POPS   C4B10738   6.560  12.942   7.869 -0.4153 -0.0575 -0.2177
  744POPS   CNO10739   6.480  12.055   5.538 -0.1829 -0.0559  0.0333
  744POPS   PO410740   6.778  11.975   5.907  0.1526  0.1227 -0.1690
  744POPS   GL110741   6.631  11.998   6.258 -0.1645 -0.1791  0.0075
  744POPS   GL210742   6.783  12.102   6.564 -0.2325  0.0432  0.3761
  744POPS   C1A10743   6.304  12.120   6.584 -0.3235 -0.0393 -0.1922
  744POPS   D2A10744   6.082  11.865   7.024 -0.2617 -0.3746 -0.0914
  744POPS   C3A10745   6.292  12.025   7.416  0.0995 -0.0143  0.1266
  744POPS   C4A10746   6.134  12.162   7.851  0.2581  0.2550  0.0608
  744POPS   C1B10747   6.592  12.038   6.949  0.0540 -0.1169  0.3249
  744POPS   C2B10748   6.614  12.372   7.264 -0.1299 -0.2285  0.0565
  744POPS   C3B10749   6.362  12.584   7.466 -0.0114  0.4057  0.1721
  744POPS   C4B10750   6.135  12.684   7.808  0.0006  0.0575 -0.0963
  745POPS   CNO10751   8.516   3.318   5.357 -0.1987 -0.1616  0.0791
  745POPS   PO410752   8.123   3.314   5.648 -0.2798 -0.1102 -0.1746
  745POPS   GL110753   8.155   3.595   6.073  0.4234  0.0009  0.2514
  745POPS   GL210754   8.088   3.942   6.052 -0.0337  0.1335  0.1985
  745POPS   C1A10755   8.362   3.819   6.477 -0.0783 -0.0783  0.0186
  745POPS   D2A10756   8.436   4.148   6.855  0.2596  0.0054  0.0164
  745POPS   C3A10757   8.599   4.185   7.288 -0.0815 -0.3494  0.0133
  745POPS   C4A10758   8.342   4.241   7.660  0.2416  0.1560 -0.1135
  745POPS   C1B10759   7.758   4.056   6.284 -0.0627 -0.0006 -0.0292
  745POPS   C2B10760   7.431   4.113   6.601 -0.1183 -0.0245  0.3646
  745POPS   C3B10761   7.201   4.248   6.887  0.2469 -0.1178  0.0902
  745POPS   C4B10762   7.256   4.361   7.436  0.4106 -0.0515 -0.0975
  746POPS   CNO10763   8.543   0.055   5.779  0.0465  0.1375  0.1171
  746POPS   PO410764   8.678  -0.454   5.845  0.2419  0.1511  0.1018
  746POPS   GL110765   8.756  -0.526   6.252  0.0214  0.1335 -0.0827
  746POPS   GL210766   9.053  -0.375   6.440 -0.1862 -0.1702 -0.0242
  746POPS   C1A10767   8.516  -0.777   6.572 -0.1880  0.0809  0.2864
  746POPS   D2A10768   8.464  -0.719   7.010  0.0329  0.0152  0.1712
  746POPS   C3A10769   8.209  -1.036   7.140  0.2146  0.0852 -0.1599
  746POPS   C4A10770   8.144  -1.528   7.062  0.1430 -0.1373  0.1410
  746POPS   C1B10771   8.916  -0.515   6.797  0.1137 -0.1111 -0.2833
  746POPS   C2B10772   8.983  -0.461   7.259 -0.0730  0.2330  0.3871
  746POPS   C3B10773   9.079  -0.098   7.562  0.2806 -0.0041  0.1382
  746POPS   C4B10774   9.180   0.133   7.935 -0.1282  0.1110  0.0738
  747POPS   CNO10775  12.506   0.533   6.092  0.1275 -0.2669 -0.0969
  747POPS   PO410776  12.983   0.448   5.842  0.1400  0.0282  0.1798
  747POPS   GL110777  12.896   0.410   6.326  0.0226 -0.0049  0.2150
  747POPS   GL210778  13.201   0.556   6.456  0.0071 -0.1374 -0.0138
  747POPS   C1A10779  12.686   0.298   6.661  0.1673  0.0698  0.1433
  747POPS   D2A10780  12.305   0.460   6.648  0.0597  0.3039 -0.0400
  747POPS   C3A10781  12.060   0.491   7.107 -0.0530  0.1543  0.0874
  747POPS   C4A10782  11.876   0.414   7.521  0.1915  0.3389  0.1660
  747POPS   C1B10783  13.152   0.510   6.882  0.3997 -0.3539 -0.0848
  747POPS   C2B10784  13.151   0.165   7.163  0.0280  0.1732 -0.0083
  747POPS   C3B10785  13.140  -0.070   7.517 -0.1383  0.1071 -0.0005
  747POPS   C4B10786  13.110   0.043   7.916 -0.0810 -0.3664  0.4080
  748POPS   CNO10787  17.300  12.493   5.872  0.2166  0.1978 -0.4367
  748POPS   PO410788  17.241  12.063   5.946 -0.1166 -0.1927 -0.0183
  748POPS   GL110789  16.964  12.068   6.274  0.2713 -0.1288 -0.1844
  748POPS   GL210790  17.197  12.399   6.390 -0.0317 -0.0077 -0.0227
  748POPS   C1A10791  16.731  12.181   6.697  0.2560 -0.1807  0.1222
  748POPS   D2A10792  16.679  12.361   7.062 -0.0436  0.1184 -0.1295
  748POPS   C3A10793  16.567  12.467   7.493  0.0016 -0.1801  0.0709
  748POPS   C4A10794  16.540  12.745   7.919  0.1712 -0.1674  0.2475
  748POPS   C1B10795  17.218  12.144   6.746  0.1280 -0.3717 -0.2216
  748POPS   C2B10796  17.036  12.044   7.150  0.0326  0.2089  0.3238
  748POPS   C3B10797  17.038  11.835   7.524 -0.1094 -0.1879 -0.1909
  748POPS   C4B10798  17.048  11.956   7.925  0.2035  0.2043 -0.2003
  749POPS   CNO10799  12.933  14.063   5.357  0.1908  0.1734  0.0282
  749POPS   PO410800  13.330  13.869   5.546 -0.1411  0.0982 -0.1952
  749POPS   GL110801  13.310  13.828   6.009  0.2935  0.0882  0.1712
  749POPS   GL210802  13.628  13.564   6.022 -0.0807 -0.1331  0.1018
  749POPS   C1A10803  13.515  13.815   6.428 -0.4643 -0.0782  0.0489
  749POPS   D2A10804  13.660  13.684   6.880 -0.2543  0.0338 -0.1239
  749POPS   C3A10805  13.349  13.512   7.176  0.2565 -0.0380  0.0248
  749POPS   C4A10806  13.289  13.092   7.499 -0.1256  0.0151  0.0111
  749POPS   C1B10807  13.918  13.566   6.397 -0.1337  0.1971  0.0821
  749POPS   C2B10808  14.195  13.596   6.782  0.0415  0.0241 -0.0823
  749POPS   C3B10809  14.043  13.733   7.201  0.1205  0.2843  0.1413
  749POPS   C4B10810  13.757  13.718   7.467 -0.2181  0.2365  0.0971
  750POPS   CNO10811  15.584   3.632   5.623  0.1589  0.1662 -0.0280
  750POPS   PO410812  15.840   3.851   6.039  0.2913 -0.2999  0.1236
  750POPS   GL110813  15.679   3.948   6.464  0.0712 -0.0835  0.0646
  750POPS   GL210814  15.434   3.748   6.570  0.2246  0.0437  0.4074
  750POPS   C1A10815  15.777   3.990   6.869  0.2227 -0.1719  0.1346
  750POPS   D2A10816  15.783   3.853   7.224 -0.0296  0.1517 -0.0981
  750POPS   C3A10817  15.460   4.120   7.485 -0.0643  0.1279 -0.0150
  750POPS   C4A10818  15.471   4.138   7.947 -0.3205  0.2152  0.2254
  750POPS   C1B10819  15.280   3.906   6.986 -0.1698  0.1912  0.1691
  750POPS   C2B10820  14.962   3.970   7.391  0.1186  0.0261  0.1549
  750POPS   C3B10821  14.999   4.277   7.734  0.1708  0.2131  0.0425
  750POPS   C4B10822  15.095   4.376   8.189 -0.2711  0.2901  0.0719
  751POPS   CNO10823   9.615   6.297   5.705 -0.1544 -0.0844  0.1832
  751POPS   PO410824   9.669   5.932   5.706  0.3507 -0.1159  0.0832
  751POPS   GL110825   9.924   5.868   6.016 -0.0461 -0.3054 -0.0339
  751POPS   GL210826  10.011   6.189   6.124 -0.2335 -0.1827  0.1145
  751POPS   C1A10827   9.830   5.785   6.396 -0.2222  0.0810  0.0662
  751POPS   D2A10828  10.024   5.763   6.813 -0.2508 -0.2127 -0.2743
  751POPS   C3A10829  10.424   5.922   6.758 -0.0531 -0.5148 -0.1491
  751POPS   C4A10830  10.779   5.687   6.585 -0.1595 -0.2710  0.4418
  751POPS   C1B10831  10.010   6.259   6.514 -0.4917 -0.0088 -0.2172
  751POPS   C2B10832   9.996   6.501   6.938 -0.0015 -0.0152  0.1129
  751POPS   C3B10833   9.981   6.607   7.362  0.2282  0.5446 -0.0163
  751POPS   C4B10834  10.032   6.640   7.757 -0.1113 -0.0178  0.0455
  752POPS   CNO10835  11.257   5.614   5.315 -0.2811  0.0234 -0.1313
  752POPS   PO410836  11.698   5.478   5.547  0.0191 -0.1498  0.0482
  752POPS   GL110837  11.627   5.432   6.004  0.0889  0.3716  0.0422
  752POPS   GL210838  11.342   5.447   6.051 -0.1724 -0.2562 -0.0926
  752POPS   C1A10839  11.765   5.533   6.488  0.0660  0.0586 -0.5147
  752POPS   D2A10840  11.716   5.623   6.954  0.1067 -0.0092  0.4587
  752POPS   C3A10841  11.451   5.730   7.278  0.1699 -0.1228  0.0479
  752POPS   C4A10842  11.148   5.888   7.534  0.0268 -0.0870  0.1228
  752POPS   C1B10843  11.248   5.708   6.398 -0.0784 -0.0890 -0.0926
  752POPS   C2B10844  11.253   5.598   6.814 -0.1277  0.2117 -0.2346
  752POPS   C3B10845  10.948   5.652   7.110 -0.1063 -0.1404 -0.0112
  752POPS   C4B10846  10.792   5.503   7.492 -0.0976 -0.0109 -0.2479
  753POPS   CNO10847  12.165   4.475   5.625 -0.5096 -0.2410 -0.0250
  753POPS   PO410848  12.246   4.814   5.873 -0.1549  0.1051 -0.0132
  753POPS   GL110849  12.062   4.502   6.115 -0.0694  0.1352 -0.0328
  753POPS   GL210850  11.696   4.520   5.978 -0.3279 -0.1296  0.4304
  753POPS   C1A10851  12.200   4.264   6.452 -0.2132  0.1148 -0.0571
  753POPS   D2A10852  12.370   4.208   6.870 -0.0821 -0.0041  0.0472
  753POPS   C3A10853  12.072   4.184   7.184 -0.0351  0.1665 -0.4043
  753POPS   C4A10854  11.885   4.048   7.561  0.2554 -0.1597  0.2848
  753POPS   C1B10855  11.705   4.176   6.309 -0.1005  0.3526 -0.1901
  753POPS   C2B10856  11.527   3.800   6.557  0.0375  0.2120 -0.0068
  753POPS   C3B10857  11.181   3.718   6.724  0.2992 -0.1045 -0.0319
  753POPS   C4B10858  10.844   3.764   6.504  0.3077  0.0900  0.1692
  754POPS   CNO10859  15.339   0.953   6.295 -0.1983 -0.0322 -0.1273
  754POPS   PO410860  15.310   1.413   6.294 -0.3000  0.0170  0.0652
  754POPS   GL110861  15.530   1.626   6.592  0.1070 -0.0782 -0.0546
  754POPS   GL210862  15.272   1.701   6.691 -0.0398 -0.1418  0.2217
  754POPS   C1A10863  15.508   2.003   6.938 -0.0865  0.0143 -0.0319
  754POPS   D2A10864  15.454   1.999   7.376 -0.1532 -0.0340  0.0562
  754POPS   C3A10865  15.582   1.584   7.539 -0.0161 -0.1124 -0.1775
  754POPS   C4A10866  15.707   1.541   7.995 -0.0464 -0.1636  0.1469
  754POPS   C1B10867  15.209   1.617   7.090  0.0757 -0.1675  0.1829
  754POPS   C2B10868  15.085   1.641   7.610 -0.2354 -0.3657  0.1041
  754POPS   C3B10869  15.174   1.567   8.055 -0.1769  0.1991 -0.1683
  754POPS   C4B10870  14.996   1.265   8.237 -0.0841  0.1343 -0.0544
  755POPS   CNO10871   9.800  17.872   5.728 -0.0623 -0.0972 -0.1310
  755POPS   PO410872  10.128  18.140   5.891  0.0287  0.2275 -0.1458
  755POPS   GL110873   9.890  17.996   6.307 -0.0761 -0.0381  0.1933
  755POPS   GL210874   9.691  17.906   6.208  0.2377  0.2561 -0.0037
  755POPS   C1A10875   9.957  17.937   6.801 -0.0547  0.0706 -0.2670
  755POPS   D2A10876   9.897  17.925   7.220  0.3201  0.0758  0.0390
  755POPS   C3A10877  10.154  17.663   7.449  0.2276  0.0431 -0.1045
  755POPS   C4A10878  10.041  17.263   7.402 -0.0465 -0.0257  0.0999
  755POPS   C1B10879   9.469  17.911   6.654 -0.0655  0.1054 -0.2171
  755POPS   C2B10880   9.454  17.804   7.093 -0.0817  0.0096 -0.1968
  755POPS   C3B10881   9.529  17.678   7.471 -0.1558  0.0057  0.1009
  755POPS   C4B10882   9.768  17.624   7.792  0.0774 -0.0361 -0.1839
  756POPS   CNO10883  10.396  14.315   6.176 -0.1094  0.1014 -0.3259
  756POPS   PO410884  10.674  13.915   6.019 -0.2187  0.0443  0.1132
  756POPS   GL110885  10.676  13.904   6.407  0.3033  0.1333 -0.1528
  756POPS   GL210886  10.733  14.234   6.499 -0.1256  0.2246 -0.1356
  756POPS   C1A10887  10.841  13.742   6.863 -0.2777  0.1034  0.1229
  756POPS   D2A10888  11.191  13.693   7.042 -0.1922  0.1278 -0.0433
  756POPS   C3A10889  11.239  13.319   7.119  0.0387 -0.5011  0.0784
  756POPS   C4A10890  11.145  12.948   7.058 -0.0277  0.4262  0.2313
  756POPS   C1B10891  11.107  14.327   6.813  0.2790 -0.2830 -0.1288
  756POPS   C2B10892  11.176  14.164   7.249 -0.3491 -0.0708  0.1110
  756POPS   C3B10893  11.076  14.160   7.699  0.1035  0.0656 -0.1890
  756POPS   C4B10894  11.289  14.259   8.067 -0.2132 -0.2149  0.0624
  757POPS   CNO10895  10.722   1.702   5.374 -0.0937  0.1241 -0.1397
  757POPS   PO410896  10.261   1.834   5.591 -0.0237 -0.1251 -0.0395
  757POPS   GL110897  10.408   1.788   6.045  0.0631  0.0777 -0.0650
  757POPS   GL210898  10.273   1.502   6.285  0.2995 -0.3226 -0.0141
  757POPS   C1A10899  10.458   2.060   6.419  0.1678 -0.1231  0.1755
  757POPS   D2A10900  10.395   2.367   6.832 -0.3340  0.0179  0.1395
  757POPS   C3A10901  10.300   2.561   7.246  0.2221 -0.6231  0.0004
  757POPS   C4A10902  10.072   2.904   7.443 -0.2421  0.0249 -0.1765
  757POPS   C1B10903  10.112   1.673   6.571 -0.2216  0.0116  0.1720
  757POPS   C2B10904  10.251   1.759   6.985  0.1109  0.1917 -0.0679
  757POPS   C3B10905  10.159   1.612   7.429 -0.0808  0.0149 -0.0887
  757POPS   C4B10906  10.087   1.817   7.806  0.0518  0.0996 -0.0121
  758POPS   CNO10907   2.097  11.989   5.485  0.1504 -0.1081 -0.2791
  758POPS   PO410908   2.377  12.130   5.784 -0.3102  0.2113 -0.0547
  758POPS   GL110909   2.592  12.215   6.161  0.3761  0.1051 -0.0661
  758POPS   GL210910   2.361  12.023   6.416 -0.1110  0.1458  0.2006
  758POPS   C1A10911   2.787  12.426   6.416  0.1299 -0.1010  0.2990
  758POPS   D2A10912   2.821  12.287   6.857 -0.3348 -0.1898 -0.1410
  758POPS   C3A10913   2.824  12.436   7.146  0.0389 -0.1408  0.0534
  758POPS   C4A10914   2.660  12.756   7.288 -0.0335 -0.1697 -0.0476
  758POPS   C1B10915   2.317  12.138   6.841 -0.0644 -0.1195 -0.1475
  758POPS   C2B10916   2.361  12.312   7.171 -0.0366 -0.1179 -0.0594
  758POPS   C3B10917   2.323  12.574   7.617 -0.0755  0.0442  0.1642
  758POPS   C4B10918   2.391  12.683   8.050 -0.1673 -0.0954  0.2697
  759POPS   CNO10919   8.050  13.380   5.445  0.0028 -0.0940  0.2046
  759POPS   PO410920   8.291  13.521   5.852  0.0471 -0.1199  0.2054
  759POPS   GL110921   8.200  13.263   6.281 -0.0529  0.0362 -0.1285
  759POPS   GL210922   7.955  13.445   6.390 -0.0613  0.1941 -0.0239
  759POPS   C1A10923   8.169  13.205   6.737  0.0474 -0.0267  0.1830
  759POPS   D2A10924   8.127  13.053   7.177  0.0723 -0.1651 -0.0317
  759POPS   C3A10925   8.351  13.057   7.446  0.0375 -0.0379  0.2077
  759POPS   C4A10926   8.535  12.887   7.862  0.1377  0.0367 -0.1421
  759POPS   C1B10927   7.972  13.709   6.805 -0.1209 -0.0947  0.1840
  759POPS   C2B10928   8.025  13.886   7.350  0.0692 -0.3442  0.2933
  759POPS   C3B10929   8.174  13.957   7.740  0.1932 -0.1921  0.0627
  759POPS   C4B10930   8.027  13.891   8.129 -0.2210  0.0800 -0.2345
  760POPS   CNO10931  17.570   3.211   5.748  0.0029 -0.2874  0.1094
  760POPS   PO410932  17.324   3.257   6.243 -0.0189  0.0261  0.5439
  760POPS   GL110933  17.120   3.390   6.601  0.0283 -0.1474 -0.2311
  760POPS   GL210934  16.852   3.269   6.663 -0.1462 -0.0928 -0.1044
  760POPS   C1A10935  17.055   3.664   6.857 -0.1390  0.2589 -0.1080
  760POPS   D2A10936  17.118   3.669   7.319 -0.0214 -0.2570  0.1553
  760POPS   C3A10937  17.009   3.908   7.623  0.1879 -0.3288 -0.0718
  760POPS   C4A10938  16.939   4.021   7.959 -0.3247  0.0707 -0.0389
  760POPS   C1B10939  16.872   3.246   7.102 -0.1134 -0.2123 -0.1086
  760POPS   C2B10940  17.004   3.268   7.593 -0.3037  0.0505 -0.0728
  760POPS   C3B10941  17.151   3.460   7.890  0.0753 -0.3022  0.0246
  760POPS   C4B10942  17.312   3.710   8.249  0.2237 -0.0006 -0.0628
  761POPS   CNO10943   9.187  11.916   5.929  0.1790  0.1366  0.1466
  761POPS   PO410944   8.821  12.000   5.699  0.0767  0.0819  0.3657
  761POPS   GL110945   8.799  12.101   6.215  0.0842  0.0540 -0.3145
  761POPS   GL210946   8.551  12.306   6.393 -0.3225  0.0177 -0.1045
  761POPS   C1A10947   9.109  11.895   6.464  0.1260  0.0099  0.0968
  761POPS   D2A10948   9.154  12.006   6.862  0.0578 -0.4263 -0.1397
  761POPS   C3A10949   9.155  11.800   7.210  0.0459  0.0052  0.0938
  761POPS   C4A10950   9.072  11.707   7.616  0.0262  0.1440 -0.4712
  761POPS   C1B10951   8.803  12.281   6.709 -0.1515 -0.1984  0.2912
  761POPS   C2B10952   8.783  12.366   7.125  0.0988  0.0223  0.3764
  761POPS   C3B10953   9.039  12.275   7.383  0.2247 -0.1487 -0.0657
  761POPS   C4B10954   9.441  12.141   7.485 -0.2086 -0.3659  0.1738
  762POPS   CNO10955  10.993   5.052   5.028 -0.0865 -0.2707  0.1571
  762POPS   PO410956  10.797   5.302   5.474  0.0965 -0.0331 -0.2411
  762POPS   GL110957  10.902   5.108   5.813  0.1761 -0.0150  0.3279
  762POPS   GL210958  10.738   4.825   5.930  0.2716 -0.2168 -0.0823
  762POPS   C1A10959  11.004   5.214   6.279 -0.0155 -0.1396  0.0397
  762POPS   D2A10960  11.031   5.165   6.778 -0.0700  0.0813 -0.0454
  762POPS   C3A10961  10.622   5.183   6.926  0.2744 -0.1761  0.3170
  762POPS   C4A10962  10.426   5.578   7.080 -0.1269 -0.1021 -0.4616
  762POPS   C1B10963  10.646   4.428   6.139  0.0568 -0.1278  0.0706
  762POPS   C2B10964  10.758   4.271   6.533  0.0206 -0.0987  0.2598
  762POPS   C3B10965  11.128   4.238   6.839  0.0359 -0.0209 -0.0671
  762POPS   C4B10966  11.676   4.190   6.843 -0.1503  0.0544  0.0498
  763POPS   CNO10967  12.036   6.941   6.049  0.3234 -0.0051  0.2372
  763POPS   PO410968  12.332   6.933   5.761  0.1382 -0.0162 -0.1877
  763POPS   GL110969  12.539   6.824   6.084 -0.0775  0.1509 -0.1266
  763POPS   GL210970  12.546   6.509   6.091  0.1741  0.1359 -0.0437
  763POPS   C1A10971  12.788   6.942   6.484 -0.3503 -0.0825  0.0907
  763POPS   D2A10972  12.680   6.805   6.942  0.0817 -0.1401 -0.4404
  763POPS   C3A10973  12.453   7.177   7.153 -0.0205 -0.4718 -0.2238
  763POPS   C4A10974  12.398   7.475   7.554 -0.1393  0.0412  0.3223
  763POPS   C1B10975  12.415   6.631   6.586 -0.0042  0.2309 -0.0476
  763POPS   C2B10976  12.183   6.781   6.880  0.3438 -0.1258  0.2771
  763POPS   C3B10977  11.994   6.893   7.278 -0.0028 -0.1044 -0.0602
  763POPS   C4B10978  12.011   7.092   7.672  0.1091  0.1249  0.0379
  764POPS   CNO10979  14.686   4.496   5.768  0.3454  0.1898 -0.3144
  764POPS   PO410980  14.820   4.641   6.160 -0.2423  0.3634 -0.0641
  764POPS   GL110981  14.760   4.994   6.493  0.1468  0.2506  0.1251
  764POPS   GL210982  14.900   4.892   6.763  0.2525 -0.1916 -0.1078
  764POPS   C1A10983  14.549   5.213   6.900  0.0796 -0.0206 -0.2403
  764POPS   D2A10984  14.365   5.167   7.328 -0.1275  0.1148 -0.0689
  764POPS   C3A10985  14.289   5.337   7.702  0.0428 -0.1123 -0.0404
  764POPS   C4A10986  14.310   5.461   8.132  0.0478 -0.0059  0.0029
  764POPS   C1B10987  14.835   4.797   7.148  0.0740 -0.3129  0.1432
  764POPS   C2B10988  14.734   4.805   7.575  0.0743  0.0208  0.0859
  764POPS   C3B10989  14.483   4.676   7.847  0.2801  0.3486  0.0811
  764POPS   C4B10990  14.245   4.428   8.138  0.0720 -0.1843 -0.1785
  765POPS   CNO10991  13.928  11.155   5.466  0.1297 -0.1234  0.3140
  765POPS   PO410992  13.655  11.292   5.839 -0.1154  0.0833 -0.0037
  765POPS   GL110993  14.017  11.340   6.038  0.1295  0.0125  0.0709
  765POPS   GL210994  13.938  11.104   6.191 -0.0946 -0.0044  0.1076
  765POPS   C1A10995  14.158  11.535   6.361  0.1045 -0.0399 -0.0793
  765POPS   D2A10996  14.311  11.590   6.838 -0.0669 -0.0975  0.0634
  765POPS   C3A10997  14.664  11.558   7.161 -0.0081  0.1125  0.1410
  765POPS   C4A10998  15.038  11.687   7.298 -0.1206  0.2161  0.1405
  765POPS   C1B10999  14.080  10.961   6.575  0.1962  0.0794 -0.0453
  765POPS   C2B11000  14.370  11.031   6.900  0.3552  0.1179 -0.1380
  765POPS   C3B11001  14.635  11.009   7.316  0.3626  0.2102  0.0250
  765POPS   C4B11002  14.800  11.303   7.584  0.1023  0.1125 -0.0520
  766POPS   CNO11003  10.907  17.823   6.217 -0.2766  0.2454  0.0501
  766POPS   PO411004  10.814  18.341   6.118  0.1904 -0.1989  0.0591
  766POPS   GL111005  10.475  18.307   6.321 -0.2375 -0.2063  0.0011
  766POPS   GL211006  10.411  17.923   6.408 -0.0739 -0.0763 -0.0815
  766POPS   C1A11007  10.278  18.286   6.708 -0.1176 -0.2371  0.1406
  766POPS   D2A11008  10.041  18.385   7.007  0.1698  0.1649 -0.0090
  766POPS   C3A11009  10.123  18.347   7.406 -0.1283  0.0331  0.1031
  766POPS   C4A11010   9.988  18.086   7.754  0.0741 -0.0310 -0.1119
  766POPS   C1B11011  10.538  17.787   6.705 -0.0996  0.1255  0.2019
  766POPS   C2B11012  10.312  17.531   6.978  0.1876 -0.1525  0.0246
  766POPS   C3B11013  10.415  17.049   7.217 -0.0858 -0.1214  0.2462
  766POPS   C4B11014  10.472  16.986   7.613  0.0877  0.0269 -0.1848
  767POPS   CNO11015  18.027  13.284   5.864 -0.0969  0.1162 -0.1303
  767POPS   PO411016  18.440  13.322   5.825 -0.0634 -0.0353 -0.5137
  767POPS   GL111017  18.388  13.130   6.252  0.0496 -0.0934  0.1600
  767POPS   GL211018  18.207  13.387   6.314 -0.2053 -0.3646 -0.1763
  767POPS   C1A11019  18.379  13.148   6.705  0.1336 -0.0651 -0.1811
  767POPS   D2A11020  18.348  12.998   7.095  0.2058  0.1677  0.0826
  767POPS   C3A11021  18.061  13.171   7.453  0.1336 -0.1955  0.1264
  767POPS   C4A11022  17.686  13.264   7.453  0.1872  0.1083  0.1454
  767POPS   C1B11023  17.893  13.129   6.355  0.2998  0.0087  0.1290
  767POPS   C2B11024  17.544  12.971   6.605  0.4523 -0.2341  0.1022
  767POPS   C3B11025  17.194  12.877   6.680  0.2119  0.1890  0.0900
  767POPS   C4B11026  16.868  12.694   6.706 -0.2432 -0.1174  0.2068
  768POPS   CNO11027  17.621   9.758   5.355  0.0696 -0.2545 -0.3421
  768POPS   PO411028  17.702   9.543   5.759 -0.2651  0.1883 -0.2489
  768POPS   GL111029  17.516   9.380   6.124 -0.1464  0.1052 -0.1096
  768POPS   GL211030  17.257   9.262   6.048 -0.2155 -0.0559  0.0416
  768POPS   C1A11031  17.519   9.279   6.557 -0.0692  0.0062 -0.1469
  768POPS   D2A11032  17.559   9.231   7.017  0.2077 -0.1506 -0.4077
  768POPS   C3A11033  17.282   9.431   7.326  0.1813 -0.0461 -0.0849
  768POPS   C4A11034  16.941   9.525   7.635  0.0084  0.1069  0.1586
  768POPS   C1B11035  16.968   9.457   6.317  0.0258  0.0993  0.0128
  768POPS   C2B11036  16.724   9.587   6.617  0.1684 -0.2398  0.1415
  768POPS   C3B11037  16.415   9.691   6.835 -0.2084 -0.2425  0.0422
  768POPS   C4B11038  16.280   9.495   7.183  0.0701  0.4486  0.1539
  769POPS   CNO11039   3.480  13.383   5.292 -0.3231 -0.0323  0.1087
  769POPS   PO411040   3.289  13.260   5.657  0.0954 -0.2992 -0.1319
  769POPS   GL111041   3.372  13.151   6.083 -0.0513  0.1514 -0.1718
  769POPS   GL211042   3.288  12.896   6.171 -0.2449  0.1928  0.1538
  769POPS   C1A11043   3.796  13.184   6.356 -0.0613 -0.0924 -0.1786
  769POPS   D2A11044   4.053  12.845   6.414 -0.1177 -0.1164  0.1754
  769POPS   C3A11045   4.160  12.730   6.823  0.1396 -0.2701 -0.0022
  769POPS   C4A11046   4.172  12.677   7.284  0.2112  0.0979 -0.0337
  769POPS   C1B11047   3.489  12.751   6.464  0.1079 -0.1939  0.0428
  769POPS   C2B11048   3.661  12.865   6.817  0.0597 -0.2532  0.0978
  769POPS   C3B11049   3.763  12.919   7.219  0.0087  0.1136  0.2289
  769POPS   C4B11050   3.952  13.099   7.552  0.2206  0.0204  0.1853
  770POPS   CNO11051   1.050  11.440   5.733 -0.1547  0.0541 -0.2063
  770POPS   PO411052   1.484  11.541   5.838  0.1003 -0.0439 -0.0494
  770POPS   GL111053   1.418  11.534   6.228  0.0193  0.1555 -0.0052
  770POPS   GL211054   1.668  11.695   6.322  0.1326  0.0223  0.0245
  770POPS   C1A11055   1.197  11.320   6.546  0.1473  0.0305 -0.0147
  770POPS   D2A11056   0.737  11.211   6.699  0.0284  0.0820 -0.0003
  770POPS   C3A11057   0.774  10.986   7.122 -0.1120  0.1779 -0.1166
  770POPS   C4A11058   0.812  10.710   7.422 -0.4104  0.2357 -0.3733
  770POPS   C1B11059   1.470  11.718   6.714 -0.0627 -0.2398 -0.3415
  770POPS   C2B11060   1.223  12.092   6.848  0.0079 -0.0342  0.0927
  770POPS   C3B11061   1.072  12.052   7.327 -0.2713 -0.1886  0.1996
  770POPS   C4B11062   0.782  11.787   7.575  0.1260 -0.1586 -0.3600
  771POPS   CNO11063  11.392  17.893   6.160  0.2330 -0.1053  0.1002
  771POPS   PO411064  11.303  18.258   5.950 -0.1151 -0.0100  0.3860
  771POPS   GL111065  11.291  18.396   6.333  0.0237  0.2446  0.0277
  771POPS   GL211066  11.186  18.706   6.430 -0.2141 -0.1789 -0.0885
  771POPS   C1A11067  11.333  18.221   6.665  0.3346 -0.2750 -0.1327
  771POPS   D2A11068  11.212  18.231   7.057  0.1636  0.1666 -0.0911
  771POPS   C3A11069  11.553  18.114   7.283  0.1816 -0.0252  0.1295
  771POPS   C4A11070  11.762  18.037   7.696  0.1525  0.3297  0.2558
  771POPS   C1B11071  11.159  18.757   6.802 -0.1446 -0.0313  0.1789
  771POPS   C2B11072  11.147  18.851   7.235  0.1236 -0.0414  0.0941
  771POPS   C3B11073  11.033  18.955   7.668 -0.2584  0.0583 -0.0479
  771POPS   C4B11074  11.176  18.744   7.996 -0.0758 -0.1471  0.0999
  772POPS   CNO11075   5.213   5.145   6.116 -0.0313 -0.1302 -0.1479
  772POPS   PO411076   5.480   5.431   6.080  0.2155 -0.0139  0.0672
  772POPS   GL111077   5.623   5.335   6.411 -0.1883 -0.1023  0.2441
  772POPS   GL211078   5.714   5.028   6.349 -0.1174 -0.0561 -0.0862
  772POPS   C1A11079   5.626   5.215   6.916 -0.0986 -0.2978 -0.1450
  772POPS   D2A11080   5.670   5.105   7.388  0.0517  0.0533 -0.2072
  772POPS   C3A11081   5.390   5.172   7.609 -0.2025 -0.1653 -0.3294
  772POPS   C4A11082   5.303   5.501   7.826 -0.4581 -0.0037 -0.0106
  772POPS   C1B11083   5.856   4.733   6.659  0.0873 -0.0938 -0.0843
  772POPS   C2B11084   5.992   4.319   6.657 -0.1223  0.3831  0.0086
  772POPS   C3B11085   6.020   4.140   7.133  0.0701 -0.2612 -0.0314
  772POPS   C4B11086   5.901   4.125   7.607  0.0735 -0.0590  0.2860
  773POPS   CNO11087   2.256  17.277   6.126  0.0175  0.1582 -0.1504
  773POPS   PO411088   2.654  17.143   5.977 -0.1605  0.0101  0.0884
  773POPS   GL111089   2.556  16.941   6.354 -0.0397 -0.3618  0.1380
  773POPS   GL211090   2.287  16.792   6.358 -0.2303  0.4302  0.2552
  773POPS   C1A11091   2.227  16.996   6.799 -0.0042 -0.0622 -0.4016
  773POPS   D2A11092   2.237  16.858   7.185 -0.1764 -0.3640 -0.1259
  773POPS   C3A11093   2.070  17.053   7.461 -0.0471  0.0777  0.0146
  773POPS   C4A11094   1.922  17.045   7.848  0.0351 -0.0349  0.0018
  773POPS   C1B11095   2.004  16.588   6.717  0.1692 -0.0189 -0.1865
  773POPS   C2B11096   2.038  16.438   7.064  0.1804 -0.2741 -0.1419
  773POPS   C3B11097   1.948  16.100   7.428 -0.4354 -0.1290 -0.0750
  773POPS   C4B11098   2.149  15.837   7.834 -0.2236  0.2237  0.1746
  774POPS   CNO11099   3.334   7.822   6.111 -0.0574  0.2219  0.1775
  774POPS   PO411100   3.597   8.171   6.201  0.0451 -0.1202  0.2495
  774POPS   GL111101   3.896   8.283   6.573  0.0773  0.0913  0.0531
  774POPS   GL211102   3.929   8.640   6.744 -0.0158 -0.1497  0.2198
  774POPS   C1A11103   3.828   8.194   7.048  0.2428 -0.2715  0.4472
  774POPS   D2A11104   3.777   8.313   7.468 -0.2721 -0.2281 -0.0519
  774POPS   C3A11105   3.602   8.082   7.844  0.4701 -0.0552  0.0022
  774POPS   C4A11106   3.513   7.792   8.239 -0.0306  0.2591  0.1827
  774POPS   C1B11107   4.014   8.824   7.225 -0.1246  0.1785 -0.2527
  774POPS   C2B11108   4.056   8.881   7.621  0.0012 -0.1846  0.0874
  774POPS   C3B11109   4.104   8.542   7.991 -0.2689 -0.1619  0.0186
  774POPS   C4B11110   3.892   8.246   8.250 -0.0428 -0.0740 -0.1388
  775POPS   CNO11111   1.579  10.602   5.752  0.1369 -0.0609  0.3151
  775POPS   PO411112   1.483  10.553   6.183  0.4292 -0.0983  0.2962
  775POPS   GL111113   1.655  10.793   6.458 -0.1681  0.0050 -0.2180
  775POPS   GL211114   1.747  11.097   6.254 -0.1280  0.1910 -0.3102
  775POPS   C1A11115   1.713  10.840   6.851 -0.0902 -0.2556 -0.4250
  775POPS   D2A11116   1.715  10.679   7.320 -0.1214  0.4062 -0.1951
  775POPS   C3A11117   1.390  10.689   7.722  0.1427  0.1454 -0.0976
  775POPS   C4A11118   0.988  10.958   7.861  0.2569 -0.0050 -0.0129
  775POPS   C1B11119   1.694  11.267   6.579  0.0003 -0.0805  0.0021
  775POPS   C2B11120   1.540  11.365   7.037 -0.0747  0.0609 -0.1778
  775POPS   C3B11121   1.375  11.689   7.318  0.2417  0.0282 -0.2184
  775POPS   C4B11122   1.252  11.729   7.806 -0.0486  0.0920  0.0799
  776POPS   CNO11123  11.330   8.003   5.676 -0.2124 -0.3006 -0.1728
  776POPS   PO411124  10.818   8.048   5.334  0.0961 -0.0343  0.0687
  776POPS   GL111125  10.592   8.254   5.704  0.2224 -0.0020  0.2383
  776POPS   GL211126  10.726   7.998   5.895 -0.0255 -0.0470 -0.0040
  776POPS   C1A11127  10.518   8.403   6.197  0.3288  0.1545  0.1510
  776POPS   D2A11128  10.657   8.669   6.490  0.2024 -0.4088  0.1854
  776POPS   C3A11129  10.907   8.989   6.401 -0.0428  0.1435 -0.1126
  776POPS   C4A11130  10.898   9.383   6.719 -0.0804  0.1089  0.2925
  776POPS   C1B11131  10.536   7.571   6.153 -0.0331 -0.1396  0.3022
  776POPS   C2B11132  10.145   7.391   6.477  0.1510 -0.0211 -0.0038
  776POPS   C3B11133  10.159   7.495   6.947  0.0525 -0.0761  0.1535
  776POPS   C4B11134  10.308   7.923   7.094 -0.4505 -0.1257 -0.1822
  777POPS   CNO11135   4.384  16.646   6.198 -0.0443 -0.0812 -0.4176
  777POPS   PO411136   4.239  16.323   5.921  0.2913 -0.0845 -0.0486
  777POPS   GL111137   4.034  16.316   6.361  0.2387  0.2535  0.3344
  777POPS   GL211138   3.935  16.634   6.406  0.1981 -0.1552  0.2763
  777POPS   C1A11139   4.259  16.507   6.752  0.0484  0.0789 -0.2160
  777POPS   D2A11140   4.419  16.764   7.184  0.3733 -0.0049 -0.0168
  777POPS   C3A11141   4.444  16.999   7.511 -0.0445  0.3574 -0.1604
  777POPS   C4A11142   4.445  16.843   7.940  0.3090  0.0973 -0.0845
  777POPS   C1B11143   3.740  16.842   6.692 -0.0727 -0.0115  0.0118
  777POPS   C2B11144   3.869  16.816   7.105  0.0454 -0.2676  0.2730
  777POPS   C3B11145   4.044  16.786   7.529  0.1091  0.0268 -0.2096
  777POPS   C4B11146   4.416  16.494   7.596 -0.0843 -0.0385  0.1094
  778POPS   CNO11147  12.209  15.559   6.085  0.2703  0.2635  0.2923
  778POPS   PO411148  12.750  15.534   6.110  0.3109  0.1568 -0.1712
  778POPS   GL111149  12.653  15.345   6.474  0.3264  0.1251  0.4477
  778POPS   GL211150  12.876  15.087   6.482  0.1426 -0.2487 -0.0280
  778POPS   C1A11151  12.441  15.470   6.825 -0.1729 -0.2286 -0.1763
  778POPS   D2A11152  12.508  15.627   7.237  0.3151  0.1304  0.1344
  778POPS   C3A11153  12.743  15.401   7.410  0.0150  0.1326  0.0847
  778POPS   C4A11154  13.155  15.202   7.222  0.0500  0.1104  0.1121
  778POPS   C1B11155  13.203  14.976   6.714  0.0126 -0.1354  0.1178
  778POPS   C2B11156  13.336  14.772   7.064  0.0183 -0.2421  0.3442
  778POPS   C3B11157  13.380  14.585   7.425 -0.0452 -0.0867  0.1065
  778POPS   C4B11158  13.056  14.362   7.605  0.0685 -0.4468 -0.1045
  779POPS   CNO11159   5.459   9.036   5.764  0.0395  0.1733  0.0684
  779POPS   PO411160   5.473   8.978   6.201 -0.2308  0.2696 -0.2310
  779POPS   GL111161   5.656   9.116   6.538 -0.0573 -0.1827  0.0201
  779POPS   GL211162   5.423   9.372   6.572 -0.0433  0.0063  0.0328
  779POPS   C1A11163   5.826   9.153   7.031  0.1674  0.1184  0.2867
  779POPS   D2A11164   5.721   9.220   7.424 -0.1069  0.0429  0.2262
  779POPS   C3A11165   5.879   9.424   7.834  0.0583  0.1513 -0.0668
  779POPS   C4A11166   5.898   9.262   8.188 -0.2167  0.1321 -0.0892
  779POPS   C1B11167   5.356   9.171   7.025  0.2793 -0.0636  0.1138
  779POPS   C2B11168   5.223   9.148   7.418 -0.2320 -0.2820  0.0317
  779POPS   C3B11169   5.419   9.240   7.803  0.2149  0.0955  0.2620
  779POPS   C4B11170   5.537   9.626   8.116  0.3640 -0.0024  0.0771
  780POPS   CNO11171  14.842  14.054   5.357  0.0644 -0.1366 -0.2084
  780POPS   PO411172  14.859  13.592   5.460 -0.0407  0.0331  0.0287
  780POPS   GL111173  14.717  13.534   5.942  0.1335 -0.3032 -0.0606
  780POPS   GL211174  14.927  13.486   6.158 -0.0703 -0.1702  0.1091
  780POPS   C1A11175  14.562  13.795   6.291  0.1402 -0.2141  0.1013
  780POPS   D2A11176  14.630  13.990   6.656  0.1305  0.0019  0.1451
  780POPS   C3A11177  14.428  13.969   6.972  0.0922  0.2382  0.1393
  780POPS   C4A11178  14.506  13.825   7.443  0.2164  0.0830  0.2486
  780POPS   C1B11179  15.170  13.372   6.625 -0.1250  0.0121  0.0522
  780POPS   C2B11180  15.040  13.177   6.963 -0.0081  0.1132  0.0754
  780POPS   C3B11181  15.069  13.132   7.397  0.1707  0.2011  0.0507
  780POPS   C4B11182  14.878  12.779   7.672  0.1785  0.0483 -0.1791
  781POPS   CNO11183  17.087  11.114   6.065  0.1081  0.1521  0.0645
  781POPS   PO411184  17.560  11.116   5.993 -0.1008  0.0190 -0.0281
  781POPS   GL111185  17.520  11.131   6.490 -0.2080 -0.0928  0.0771
  781POPS   GL211186  17.172  11.119   6.566  0.0126 -0.0632 -0.2092
  781POPS   C1A11187  17.787  11.326   6.860  0.1830 -0.1527 -0.2731
  781POPS   D2A11188  18.124  11.670   7.071  0.5062  0.0300  0.2991
  781POPS   C3A11189  18.237  11.756   7.393  0.3039 -0.2536  0.2360
  781POPS   C4A11190  18.161  11.794   7.871 -0.3089 -0.0532  0.0805
  781POPS   C1B11191  17.073  11.153   6.956  0.1506  0.0076  0.0086
  781POPS   C2B11192  17.127  11.016   7.325 -0.3168  0.0830  0.1812
  781POPS   C3B11193  17.327  10.830   7.647 -0.0408 -0.1927  0.0749
  781POPS   C4B11194  17.466  10.749   8.039  0.3512  0.1940  0.1334
  782POPS   CNO11195   6.138  11.249   5.879  0.3664  0.1886  0.1051
  782POPS   PO411196   6.659  11.151   5.899  0.2788  0.0532  0.1439
  782POPS   GL111197   6.602  11.521   6.167 -0.1132  0.0617 -0.4015
  782POPS   GL211198   6.280  11.572   6.187  0.0664 -0.0864 -0.3215
  782POPS   C1A11199   6.431  11.635   6.612  0.1274  0.0318  0.1725
  782POPS   D2A11200   6.550  11.566   6.891 -0.1137  0.2085 -0.2221
  782POPS   C3A11201   6.620  11.629   7.338  0.0369  0.1916  0.0454
  782POPS   C4A11202   6.609  11.809   7.791  0.1610 -0.0064  0.3961
  782POPS   C1B11203   6.004  11.407   6.465  0.1631 -0.2532 -0.2760
  782POPS   C2B11204   6.033  11.357   6.832  0.1548 -0.1354 -0.4816
  782POPS   C3B11205   5.948  11.418   7.238  0.2709 -0.1366  0.0267
  782POPS   C4B11206   6.158  11.519   7.659  0.0486  0.1649 -0.3894
  783POPS   CNO11207  14.759  12.201   5.503  0.1946  0.1008 -0.1631
  783POPS   PO411208  14.550  12.486   5.481 -0.1274 -0.1304 -0.0398
  783POPS   GL111209  14.347  12.374   5.847 -0.1544 -0.3957 -0.0831
  783POPS   GL211210  13.982  12.455   5.946  0.2036 -0.0945 -0.0972
  783POPS   C1A11211  14.258  12.369   6.305  0.0039  0.1410 -0.0677
  783POPS   D2A11212  14.218  12.744   6.589 -0.0042 -0.1167 -0.3385
  783POPS   C3A11213  13.903  12.993   6.466  0.1183  0.1439 -0.1006
  783POPS   C4A11214  13.464  13.090   6.585  0.0279 -0.1682  0.0128
  783POPS   C1B11215  13.713  12.408   6.309  0.1512  0.2312 -0.0223
  783POPS   C2B11216  13.859  12.340   6.738 -0.0100 -0.0259 -0.0201
  783POPS   C3B11217  13.883  11.961   6.889  0.1224  0.0720 -0.0721
  783POPS   C4B11218  14.206  11.878   7.347  0.1125  0.2999 -0.1274
  784POPS   CNO11219  14.038   1.501   5.781  0.2578  0.1664 -0.0787
  784POPS   PO411220  13.922   1.748   6.085 -0.0698  0.1363  0.1640
  784POPS   GL111221  13.767   1.611   6.341  0.2477 -0.0392 -0.2236
  784POPS   GL211222  13.634   1.914   6.459  0.1295 -0.0648 -0.1479
  784POPS   C1A11223  13.659   1.387   6.715 -0.0965 -0.2847  0.3714
  784POPS   D2A11224  13.781   1.429   7.127  0.1217 -0.2700 -0.1150
  784POPS   C3A11225  13.491   1.674   7.536  0.1523 -0.0189 -0.0088
  784POPS   C4A11226  13.276   2.029   7.378  0.0688 -0.0977  0.0014
  784POPS   C1B11227  13.965   1.823   6.717  0.1717 -0.1321  0.0168
  784POPS   C2B11228  14.199   1.709   7.004  0.0178  0.3623 -0.0137
  784POPS   C3B11229  14.126   1.721   7.529  0.1814 -0.0948 -0.3407
  784POPS   C4B11230  13.866   1.522   7.770 -0.1909 -0.0039  0.2705
  785POPS   CNO11231  16.828   5.728   6.029  0.0133 -0.0532 -0.4000
  785POPS   PO411232  17.115   5.864   5.880 -0.0735 -0.1256 -0.4326
  785POPS   GL111233  17.045   6.155   6.303 -0.1548  0.0163 -0.3249
  785POPS   GL211234  16.913   5.964   6.503  0.0748  0.1189  0.0845
  785POPS   C1A11235  16.849   6.406   6.723  0.0657  0.0334  0.0250
  785POPS   D2A11236  16.577   6.400   7.104 -0.2178 -0.0869 -0.1143
  785POPS   C3A11237  16.482   6.775   7.373  0.1946  0.3858 -0.2995
  785POPS   C4A11238  16.561   7.081   7.611 -0.0007 -0.0623  0.1283
  785POPS   C1B11239  16.709   5.931   6.853 -0.1378 -0.0061 -0.2005
  785POPS   C2B11240  16.608   5.964   7.313 -0.1327  0.1362  0.0571
  785POPS   C3B11241  16.624   6.116   7.685  0.0967  0.0292  0.3758
  785POPS   C4B11242  16.530   6.462   7.778  0.1900 -0.2176 -0.2262
  786POPS   CNO11243  13.321   7.405   5.632 -0.2317  0.2047 -0.1338
  786POPS   PO411244  13.696   7.250   5.568 -0.1361  0.0130 -0.0902
  786POPS   GL111245  13.737   7.248   5.870 -0.1676  0.1047  0.1381
  786POPS   GL211246  14.018   7.063   6.078  0.0481  0.4334 -0.2870
  786POPS   C1A11247  13.677   7.410   6.242  0.0242 -0.1227 -0.0807
  786POPS   D2A11248  13.613   7.534   6.578  0.0844  0.1012  0.0581
  786POPS   C3A11249  13.810   7.808   6.791  0.4700  0.1665 -0.0992
  786POPS   C4A11250  14.011   8.080   7.142 -0.1237  0.0287  0.2892
  786POPS   C1B11251  13.804   7.039   6.531  0.0808  0.0002  0.2606
  786POPS   C2B11252  13.758   6.849   6.865 -0.1669 -0.3692 -0.1961
  786POPS   C3B11253  13.773   6.725   7.374  0.1744 -0.0634 -0.0944
  786POPS   C4B11254  14.060   6.529   7.698 -0.2115  0.0397 -0.2598
  787POPS   CNO11255  16.073   5.772   6.051 -0.0447 -0.0639 -0.0416
  787POPS   PO411256  15.655   5.791   6.254  0.0147 -0.1654 -0.1375
  787POPS   GL111257  15.704   5.693   6.681 -0.2462  0.0455 -0.0637
  787POPS   GL211258  15.997   5.592   6.726  0.0124 -0.1566 -0.2316
  787POPS   C1A11259  15.641   5.491   7.115  0.2028 -0.1226  0.2111
  787POPS   D2A11260  15.600   5.419   7.574  0.0087 -0.0764 -0.1750
  787POPS   C3A11261  15.624   5.054   7.673 -0.1203 -0.1577  0.1432
  787POPS   C4A11262  15.658   4.593   7.816  0.1547 -0.0744  0.0336
  787POPS   C1B11263  16.153   5.585   7.103  0.1083 -0.1694  0.1504
  787POPS   C2B11264  16.195   5.696   7.550 -0.3195 -0.1227  0.3113
  787POPS   C3B11265  15.916   5.522   7.936 -0.1129  0.1260  0.1721
  787POPS   C4B11266  15.589   5.262   8.086 -0.1643 -0.0127 -0.0743
  788POPS   CNO11267   6.435  15.098   5.741  0.1651  0.0467 -0.1440
  788POPS   PO411268   6.396  15.426   6.068 -0.0459  0.1072  0.0271
  788POPS   GL111269   6.456  15.432   6.423 -0.0056  0.0010 -0.1047
  788POPS   GL211270   6.569  15.757   6.494 -0.2060 -0.1767  0.2250
  788POPS   C1A11271   6.397  15.278   6.707 -0.2681  0.1139 -0.0805
  788POPS   D2A11272   6.313  15.287   7.089  0.1457  0.1970 -0.1003
  788POPS   C3A11273   6.131  15.678   7.306  0.0394 -0.2779 -0.2860
  788POPS   C4A11274   6.024  15.980   7.563  0.2143  0.0201  0.1756
  788POPS   C1B11275   6.597  16.130   6.821  0.2319  0.0608 -0.2579
  788POPS   C2B11276   6.529  16.459   7.140 -0.0173 -0.1128  0.1874
  788POPS   C3B11277   6.467  16.899   7.376 -0.0176 -0.0939 -0.0591
  788POPS   C4B11278   6.567  17.360   7.480 -0.0152 -0.0591  0.3493
  789POPS   CNO11279  10.060  11.478   5.632 -0.0185 -0.2741  0.2726
  789POPS   PO411280  10.246  11.177   5.602  0.1737 -0.1831 -0.0569
  789POPS   GL111281  10.334  11.245   6.016 -0.3362  0.0961 -0.3497
  789POPS   GL211282  10.220  11.500   6.132  0.1072 -0.0338 -0.0600
  789POPS   C1A11283  10.253  10.874   6.373 -0.2047  0.1824 -0.1725
  789POPS   D2A11284  10.326  10.678   6.768 -0.0824  0.5168  0.2052
  789POPS   C3A11285  10.319  10.481   7.133  0.0973 -0.0128  0.1292
  789POPS   C4A11286  10.281  10.746   7.467 -0.1174 -0.0029  0.0593
  789POPS   C1B11287  10.314  11.451   6.580 -0.1136  0.1883  0.3413
  789POPS   C2B11288  10.370  11.362   6.861 -0.1434  0.0172  0.1556
  789POPS   C3B11289  10.376  11.090   7.137  0.1301 -0.1933 -0.4138
  789POPS   C4B11290  10.322  11.234   7.531  0.1636  0.0972  0.0055
  790POPS   CNO11291  10.910   7.136   5.634 -0.0034  0.0993  0.0359
  790POPS   PO411292  11.198   7.029   5.757  0.0368 -0.0091 -0.0526
  790POPS   GL111293  11.456   7.097   6.130  0.0781 -0.1024  0.0151
  790POPS   GL211294  11.350   7.350   6.211  0.0223  0.2269 -0.4275
  790POPS   C1A11295  11.630   6.837   6.393  0.0932  0.3597  0.0230
  790POPS   D2A11296  11.682   6.827   6.798  0.1021  0.0089 -0.4696
  790POPS   C3A11297  11.580   7.164   7.149  0.3776 -0.1205 -0.1781
  790POPS   C4A11298  11.571   7.308   7.611 -0.0971 -0.0745  0.0369
  790POPS   C1B11299  11.010   7.544   6.421  0.0607  0.0756  0.4573
  790POPS   C2B11300  10.607   7.595   6.663 -0.0322  0.1080  0.2571
  790POPS   C3B11301  10.621   7.511   7.054  0.2060  0.0886 -0.0348
  790POPS   C4B11302  10.398   7.248   7.342 -0.2749  0.1228 -0.3055
  791POPS   CNO11303   4.068   2.987   5.545 -0.0841  0.2196  0.2438
  791POPS   PO411304   4.362   2.993   5.852  0.3201 -0.0721  0.0292
  791POPS   GL111305   4.182   3.115   6.210 -0.1462  0.0868 -0.1379
  791POPS   GL211306   4.077   3.345   6.316 -0.2908  0.0589  0.0226
  791POPS   C1A11307   4.045   2.834   6.485 -0.3702 -0.0180  0.2104
  791POPS   D2A11308   4.064   2.503   6.764 -0.3372  0.1854  0.1140
  791POPS   C3A11309   4.068   2.648   7.233  0.0241 -0.1789 -0.1985
  791POPS   C4A11310   4.071   2.839   7.590  0.1080  0.0886 -0.0944
  791POPS   C1B11311   4.234   3.273   6.733 -0.4537 -0.1036 -0.0876
  791POPS   C2B11312   4.637   3.276   6.927  0.0041  0.2967 -0.5412
  791POPS   C3B11313   4.863   2.954   7.091 -0.0169 -0.1465  0.0481
  791POPS   C4B11314   5.040   2.764   7.500 -0.1121 -0.1520 -0.0489
  792POPS   CNO11315  17.022  17.680   5.469  0.0020  0.2491  0.0581
  792POPS   PO411316  17.249  18.013   5.778  0.1518  0.0408  0.0772
  792POPS   GL111317  17.335  17.640   5.978 -0.1503 -0.1671  0.1247
  792POPS   GL211318  17.610  17.715   6.225 -0.0921  0.2349 -0.0741
  792POPS   C1A11319  17.147  17.263   6.265 -0.1769 -0.2235  0.0384
  792POPS   D2A11320  16.820  17.016   6.522 -0.2793 -0.0804 -0.2015
  792POPS   C3A11321  16.411  17.125   6.656 -0.0952 -0.0399 -0.0745
  792POPS   C4A11322  16.217  17.458   6.651 -0.3071 -0.0042 -0.0602
  792POPS   C1B11323  17.608  17.344   6.487  0.0065  0.2948 -0.2302
  792POPS   C2B11324  17.714  17.112   6.886 -0.0697 -0.1324  0.3532
  792POPS   C3B11325  17.592  17.099   7.292 -0.2102  0.2810  0.3504
  792POPS   C4B11326  17.566  17.237   7.720 -0.0809  0.0534  0.1429
  793POPS   CNO11327  13.767  12.311   5.452  0.1205 -0.0593  0.1046
  793POPS   PO411328  13.607  12.654   5.554 -0.2069 -0.1033  0.2272
  793POPS   GL111329  13.462  12.330   5.908  0.2134 -0.1378  0.0312
  793POPS   GL211330  13.249  12.402   6.047  0.0631 -0.1085 -0.2441
  793POPS   C1A11331  13.309  11.939   6.175 -0.1559  0.1662  0.1688
  793POPS   D2A11332  13.171  11.617   6.468 -0.0720  0.0813 -0.1751
  793POPS   C3A11333  12.872  11.564   6.749  0.1586  0.2608  0.0563
  793POPS   C4A11334  12.871  11.301   7.143  0.0453 -0.2722  0.0068
  793POPS   C1B11335  13.288  12.603   6.458  0.0238 -0.1103 -0.2318
  793POPS   C2B11336  13.377  12.571   6.849 -0.0007  0.1309  0.2181
  793POPS   C3B11337  13.617  12.767   7.042  0.1817 -0.1514 -0.2114
  793POPS   C4B11338  13.899  13.120   7.065 -0.2621  0.2638 -0.0621
  794POPS   CNO11339   8.731   9.071   6.174 -0.3071  0.1675 -0.0576
  794POPS   PO411340   8.271   9.162   5.952  0.1359 -0.0940  0.0498
  794POPS   GL111341   8.081   9.241   6.339 -0.1222 -0.3652 -0.1409
  794POPS   GL211342   7.820   9.358   6.289 -0.0529 -0.0034 -0.1898
  794POPS   C1A11343   8.196   9.101   6.765 -0.0606 -0.1863  0.0118
  794POPS   D2A11344   8.418   9.088   7.071  0.1737  0.1307 -0.1814
  794POPS   C3A11345   8.395   8.771   7.417 -0.2918  0.2737  0.0407
  794POPS   C4A11346   8.714   8.434   7.553 -0.2495 -0.0941 -0.1179
  794POPS   C1B11347   7.766   9.368   6.739 -0.1991  0.3306 -0.0606
  794POPS   C2B11348   7.736   9.018   6.996 -0.0471 -0.0380 -0.1780
  794POPS   C3B11349   8.039   8.742   7.055  0.0319 -0.2716  0.0276
  794POPS   C4B11350   8.450   8.549   6.906  0.1339  0.0344  0.2047
  795POPS   CNO11351  10.870   3.015   5.589 -0.1136 -0.0774 -0.0394
  795POPS   PO411352  11.045   2.577   5.655 -0.0726 -0.1806  0.0674
  795POPS   GL111353  11.042   2.756   6.061 -0.0645 -0.0274 -0.1764
  795POPS   GL211354  10.869   2.934   6.210  0.0951 -0.0103 -0.4433
  795POPS   C1A11355  11.280   2.750   6.521 -0.2647  0.0625 -0.0307
  795POPS   D2A11356  11.343   2.695   7.071 -0.1646 -0.2750 -0.2156
  795POPS   C3A11357  11.165   2.924   7.312  0.1479 -0.1213  0.0241
  795POPS   C4A11358  10.991   3.247   7.486  0.1299 -0.0302  0.1601
  795POPS   C1B11359  10.574   2.951   6.562 -0.1500 -0.1848  0.0599
  795POPS   C2B11360  10.462   2.946   6.980 -0.2642 -0.2400 -0.1204
  795POPS   C3B11361  10.707   2.846   7.323  0.1164 -0.1401  0.0871
  795POPS   C4B11362  10.709   2.730   7.635  0.2828  0.3276 -0.2127
  796POPS   CNO11363  10.609  15.865   5.672 -0.3262  0.1823  0.4199
  796POPS   PO411364  10.452  16.090   5.898  0.0256 -0.2319  0.1041
  796POPS   GL111365  10.434  16.035   6.371  0.2414 -0.1557 -0.0622
  796POPS   GL211366  10.622  15.824   6.325 -0.0937 -0.1828  0.1903
  796POPS   C1A11367  10.540  16.035   6.892  0.3842 -0.2881 -0.0936
  796POPS   D2A11368  10.613  15.907   7.350 -0.3142  0.0340 -0.1579
  796POPS   C3A11369  10.827  15.603   7.465 -0.3082 -0.0385 -0.2793
  796POPS   C4A11370  10.990  15.440   7.876 -0.1558 -0.0399 -0.2752
  796POPS   C1B11371  10.950  15.896   6.688 -0.0571  0.2504  0.1491
  796POPS   C2B11372  11.119  15.884   7.160 -0.0757 -0.0896  0.0305
  796POPS   C3B11373  11.214  15.860   7.584 -0.1361  0.0873 -0.2501
  796POPS   C4B11374  11.628  15.954   7.807 -0.2752 -0.1044 -0.1637
  797POPS   CNO11375  13.296   4.817   5.546  0.0384 -0.1223  0.1906
  797POPS   PO411376  13.124   4.539   5.880  0.1646  0.5039  0.0004
  797POPS   GL111377  13.319   4.595   6.310  0.1496 -0.0792  0.0637
  797POPS   GL211378  13.702   4.558   6.405 -0.1300  0.3902  0.1521
  797POPS   C1A11379  13.314   4.248   6.616 -0.3999 -0.0708 -0.0100
  797POPS   D2A11380  13.435   4.030   6.991  0.0238 -0.2437 -0.1037
  797POPS   C3A11381  13.295   3.658   7.130  0.0601 -0.1481  0.1292
  797POPS   C4A11382  13.276   3.361   7.475 -0.1303  0.2652  0.1802
  797POPS   C1B11383  13.707   4.643   6.769  0.0080 -0.0391 -0.1379
  797POPS   C2B11384  13.810   4.887   7.123  0.2508  0.0393  0.2932
  797POPS   C3B11385  13.752   5.195   7.483 -0.1383 -0.0605 -0.1259
  797POPS   C4B11386  13.641   5.110   7.826  0.2249  0.1184  0.2565
  798POPS   CNO11387  16.794   6.910   5.276  0.0443 -0.2941  0.1140
  798POPS   PO411388  16.970   6.898   5.690  0.4736 -0.0102  0.1192
  798POPS   GL111389  16.706   6.819   5.969  0.4798 -0.0865  0.1463
  798POPS   GL211390  16.522   6.617   5.982 -0.0240 -0.0688  0.3119
  798POPS   C1A11391  16.602   6.764   6.438  0.1352  0.2758  0.1323
  798POPS   D2A11392  16.515   6.802   6.847  0.0593  0.2139 -0.1559
  798POPS   C3A11393  16.167   6.678   6.988 -0.2749  0.0995 -0.1496
  798POPS   C4A11394  16.133   6.347   7.409 -0.1513  0.0002 -0.0465
  798POPS   C1B11395  16.415   6.330   6.304 -0.0771  0.2632  0.0514
  798POPS   C2B11396  16.358   6.258   6.668 -0.0146  0.0816 -0.0332
  798POPS   C3B11397  16.068   6.056   7.000  0.0621 -0.1612  0.1323
  798POPS   C4B11398  15.722   5.959   7.241  0.0499  0.1479 -0.2157
  799POPS   CNO11399  15.757  10.355   5.557 -0.0532  0.2555 -0.2769
  799POPS   PO411400  15.373  10.313   5.803 -0.0403 -0.1369 -0.1195
  799POPS   GL111401  15.555  10.096   6.227  0.5405  0.0704 -0.1539
  799POPS   GL211402  15.534   9.751   6.235 -0.1067  0.0139 -0.1343
  799POPS   C1A11403  15.673  10.232   6.644 -0.2290 -0.1612 -0.0086
  799POPS   D2A11404  15.716  10.296   7.045  0.2160 -0.0622  0.1040
  799POPS   C3A11405  15.429  10.151   7.355 -0.3212 -0.2672 -0.0234
  799POPS   C4A11406  15.644  10.177   7.729  0.1182  0.2330 -0.0802
  799POPS   C1B11407  15.597   9.720   6.582 -0.1376  0.0382 -0.1287
  799POPS   C2B11408  15.754   9.676   6.944  0.0737  0.0691  0.0673
  799POPS   C3B11409  15.916   9.847   7.309  0.1457  0.0999 -0.1683
  799POPS   C4B11410  16.071  10.124   7.523  0.0966  0.0049  0.2417
  800POPS   CNO11411   8.787  15.917   6.256  0.0465  0.1595  0.0243
  800POPS   PO411412   8.389  15.601   6.197  0.3899  0.0431 -0.0492
  800POPS   GL111413   8.349  15.878   6.542 -0.3247  0.0941  0.1732
  800POPS   GL211414   8.007  16.012   6.556 -0.0245 -0.0848 -0.2088
  800POPS   C1A11415   8.414  15.736   6.958 -0.1947  0.1627  0.3549
  800POPS   D2A11416   8.319  15.566   7.347  0.0960  0.1366 -0.1062
  800POPS   C3A11417   8.258  15.785   7.563  0.5587  0.0666 -0.2329
  800POPS   C4A11418   8.146  16.186   7.867  0.1368 -0.3471  0.3337
  800POPS   C1B11419   8.081  16.196   6.975 -0.1399  0.0544 -0.1569
  800POPS   C2B11420   8.036  16.230   7.394  0.0887 -0.0663  0.3109
  800POPS   C3B11421   7.671  16.459   7.663  0.2283 -0.3333 -0.0938
  800POPS   C4B11422   7.354  16.475   8.013  0.1991 -0.0916  0.0568
  801POPS   CNO11423  14.377   0.267   5.776  0.1062 -0.3035  0.2306
  801POPS   PO411424  14.015   0.453   6.018 -0.4579  0.1279 -0.1106
  801POPS   GL111425  14.217   0.248   6.338 -0.0923 -0.0341  0.1133
  801POPS   GL211426  14.566   0.364   6.391  0.0373 -0.4326  0.3670
  801POPS   C1A11427  14.038   0.133   6.734 -0.2021 -0.0575 -0.3261
  801POPS   D2A11428  14.176  -0.111   6.983  0.1020 -0.0790 -0.1145
  801POPS   C3A11429  13.970  -0.488   6.919  0.1417  0.1055  0.0146
  801POPS   C4A11430  14.054  -0.990   6.891  0.2277  0.4304  0.1233
  801POPS   C1B11431  14.448   0.415   6.822  0.0540  0.1179  0.1822
  801POPS   C2B11432  14.261   0.363   7.242 -0.0469  0.2659  0.0221
  801POPS   C3B11433  13.987   0.491   7.670  0.0688  0.0989  0.2521
  801POPS   C4B11434  13.880   0.243   8.003 -0.2763 -0.1125  0.1774
  802POPS   CNO11435   9.343   8.558   5.354  0.0455 -0.1586 -0.2606
  802POPS   PO411436   9.651   8.540   5.692 -0.0554  0.0745  0.1025
  802POPS   GL111437  10.058   8.400   5.735  0.0847 -0.0964  0.1104
  802POPS   GL211438  10.262   8.693   5.853 -0.0578  0.2740 -0.1731
  802POPS   C1A11439  10.078   8.089   6.114 -0.1316 -0.2828  0.0859
  802POPS   D2A11440  10.180   7.947   6.562  0.2496  0.1357 -0.0036
  802POPS   C3A11441  10.423   8.297   6.742  0.0433  0.1775  0.0891
  802POPS   C4A11442  10.749   8.497   6.929 -0.0224 -0.2455  0.0208
  802POPS   C1B11443  10.049   8.590   6.312  0.2795 -0.0971 -0.1084
  802POPS   C2B11444  10.076   8.753   6.697 -0.0343  0.2677 -0.1189
  802POPS   C3B11445  10.223   8.654   7.035 -0.0260  0.1001  0.0378
  802POPS   C4B11446  10.506   8.396   7.336 -0.2103 -0.5228  0.1583
  803POPS   CNO11447   0.008   2.572   5.955 -0.0874 -0.2570  0.0562
  803POPS   PO411448  -0.269   2.648   6.336  0.1744 -0.1009 -0.4090
  803POPS   GL111449  -0.469   2.877   6.653 -0.2659  0.0378  0.0961
  803POPS   GL211450  -0.525   3.161   6.605  0.4337 -0.1683 -0.2675
  803POPS   C1A11451  -0.370   2.897   7.099 -0.1292 -0.0234 -0.0486
  803POPS   D2A11452  -0.390   2.945   7.534  0.2916  0.0659  0.2051
  803POPS   C3A11453  -0.402   2.727   7.990 -0.0024  0.3620  0.0000
  803POPS   C4A11454  -0.735   2.646   8.239  0.0061 -0.1214 -0.0337
  803POPS   C1B11455  -0.718   3.290   6.859  0.0586  0.1897  0.1916
  803POPS   C2B11456  -0.747   3.297   7.319 -0.2814 -0.0742 -0.1940
  803POPS   C3B11457  -0.608   3.418   7.685  0.3173  0.1967 -0.2908
  803POPS   C4B11458  -0.464   3.465   8.030  0.1216 -0.2113  0.1042
  804POPS   CNO11459   5.771   1.291   5.064 -0.1796  0.0405  0.3560
  804POPS   PO411460   5.985   1.267   5.526  0.0893 -0.2480  0.2148
  804POPS   GL111461   6.097   1.124   5.929 -0.0191 -0.0080  0.0171
  804POPS   GL211462   6.066   0.850   6.174  0.1328  0.2086 -0.0225
  804POPS   C1A11463   6.338   1.341   6.209 -0.0430  0.0170  0.2443
  804POPS   D2A11464   6.497   1.268   6.652  0.2666 -0.0321  0.1448
  804POPS   C3A11465   6.457   1.092   7.133  0.0065 -0.1168  0.2623
  804POPS   C4A11466   6.286   1.240   7.601  0.0209 -0.0115 -0.1449
  804POPS   C1B11467   5.724   0.619   6.387  0.1349 -0.0541 -0.0463
  804POPS   C2B11468   5.503   0.873   6.714  0.1507 -0.1697 -0.1027
  804POPS   C3B11469   5.165   0.917   7.010 -0.2565 -0.2443  0.0686
  804POPS   C4B11470   4.803   1.008   7.289 -0.0540 -0.2252  0.1409
  805POPS   CNO11471   5.857  13.759   6.213 -0.1224 -0.6113  0.1132
  805POPS   PO411472   5.884  13.368   5.808 -0.0419  0.2867 -0.1530
  805POPS   GL111473   6.221  13.356   6.138  0.1455 -0.3763 -0.0457
  805POPS   GL211474   6.224  13.042   6.298 -0.0319 -0.1189  0.0926
  805POPS   C1A11475   6.562  13.455   6.466 -0.0389  0.0209  0.1022
  805POPS   D2A11476   6.708  13.544   6.869 -0.0637 -0.0875 -0.0768
  805POPS   C3A11477   6.397  13.376   7.198  0.1628  0.0219 -0.1144
  805POPS   C4A11478   6.030  13.604   7.307 -0.1122 -0.2042 -0.2101
  805POPS   C1B11479   6.270  13.111   6.739 -0.0224 -0.1862  0.1483
  805POPS   C2B11480   6.114  12.970   7.231  0.0021 -0.2273 -0.2276
  805POPS   C3B11481   6.185  13.168   7.634 -0.5427 -0.3539 -0.3677
  805POPS   C4B11482   6.147  13.417   7.874  0.0417  0.0682  0.1108
  806POPS   CNO11483   3.461   9.220   5.794 -0.2928 -0.5766 -0.1409
  806POPS   PO411484   3.520   9.065   6.110  0.0394 -0.2984 -0.1079
  806POPS   GL111485   3.794   9.031   6.440 -0.0388  0.2385 -0.0236
  806POPS   GL211486   4.151   8.996   6.428 -0.0113  0.1508 -0.1050
  806POPS   C1A11487   3.669   9.029   6.822  0.2188 -0.0950  0.2218
  806POPS   D2A11488   3.432   9.204   7.246  0.0939  0.3046 -0.2129
  806POPS   C3A11489   3.535   9.599   7.453  0.1214  0.2125  0.1901
  806POPS   C4A11490   3.698   9.882   7.696 -0.0336  0.1883  0.0597
  806POPS   C1B11491   4.442   9.307   6.514  0.1622 -0.1555 -0.0041
  806POPS   C2B11492   4.466   9.625   6.869 -0.1334  0.1339  0.0771
  806POPS   C3B11493   4.195   9.791   7.234  0.0528  0.2355 -0.0293
  806POPS   C4B11494   4.186   9.892   7.722 -0.0681  0.2224  0.2112
  807POPS   CNO11495   6.476  14.841   5.297 -0.0798  0.0262  0.0081
  807POPS   PO411496   6.216  14.582   5.628  0.3087 -0.0523 -0.0238
  807POPS   GL111497   6.217  14.767   6.047 -0.2717  0.2178 -0.0878
  807POPS   GL211498   6.221  15.037   6.262 -0.1158 -0.2371  0.0701
  807POPS   C1A11499   6.293  14.358   6.271  0.2846  0.0022  0.0397
  807POPS   D2A11500   6.282  13.951   6.466  0.1328  0.1763  0.3351
  807POPS   C3A11501   6.305  13.843   6.941  0.0640 -0.1350 -0.0713
  807POPS   C4A11502   6.473  14.196   7.208  0.1750  0.2713  0.3111
  807POPS   C1B11503   6.127  14.778   6.545  0.3472  0.3426 -0.1841
  807POPS   C2B11504   6.264  14.790   6.994 -0.0507  0.1525  0.1037
  807POPS   C3B11505   6.206  14.639   7.302 -0.1385  0.0029  0.1324
  807POPS   C4B11506   6.419  14.538   7.649 -0.2830 -0.1854 -0.1362
  808POPS   CNO11507   5.456   5.920   5.642  0.0612  0.0124  0.0764
  808POPS   PO411508   5.475   6.236   5.906 -0.3023  0.1329 -0.2162
  808POPS   GL111509   5.409   6.256   6.357 -0.1047  0.3646  0.2670
  808POPS   GL211510   5.334   6.583   6.372 -0.2396  0.2114  0.0423
  808POPS   C1A11511   5.313   6.070   6.753  0.1432  0.0938 -0.1875
  808POPS   D2A11512   5.327   6.103   7.233 -0.0399  0.1878 -0.1527
  808POPS   C3A11513   5.424   6.320   7.593  0.4527  0.1587  0.1450
  808POPS   C4A11514   5.135   6.320   7.891  0.0831  0.1144  0.2476
  808POPS   C1B11515   5.328   6.607   6.752  0.0255 -0.0085 -0.1598
  808POPS   C2B11516   5.473   6.581   7.135  0.0869 -0.1473 -0.0420
  808POPS   C3B11517   5.122   6.666   7.457 -0.0616  0.1381 -0.2106
  808POPS   C4B11518   4.869   6.723   7.927 -0.1596 -0.3279  0.1204
  809POPS   CNO11519   6.590   0.975   5.553 -0.1334  0.2114  0.0081
  809POPS   PO411520   6.543   1.362   5.428 -0.2598  0.1652  0.3477
  809POPS   GL111521   6.604   1.491   5.808  0.2717  0.1087 -0.0459
  809POPS   GL211522   6.746   1.225   5.940  0.2935 -0.0673 -0.1841
  809POPS   C1A11523   6.645   1.763   6.161 -0.0845  0.2142 -0.4144
  809POPS   D2A11524   6.817   1.744   6.516  0.0304 -0.0543  0.4017
  809POPS   C3A11525   6.815   1.444   6.987  0.0513 -0.2441 -0.2204
  809POPS   C4A11526   6.772   1.391   7.415  0.0249 -0.2354  0.0681
  809POPS   C1B11527   6.999   1.199   6.341  0.1511  0.1479 -0.0345
  809POPS   C2B11528   7.039   0.992   6.744 -0.2268  0.2717  0.0749
  809POPS   C3B11529   7.288   1.129   7.094  0.1573  0.1773 -0.1740
  809POPS   C4B11530   7.615   0.956   7.313  0.3250  0.0227 -0.0207
  810POPS   CNO11531   0.198  15.558   5.987  0.4774  0.0649 -0.0167
  810POPS   PO411532   0.049  15.145   5.669 -0.0309 -0.0044  0.1695
  810POPS   GL111533  -0.123  15.156   6.139  0.0601  0.1850 -0.2857
  810POPS   GL211534  -0.110  15.116   6.367  0.0192  0.1977  0.1745
  810POPS   C1A11535  -0.256  15.559   6.326 -0.3008 -0.3607 -0.0934
  810POPS   D2A11536  -0.131  15.808   6.713 -0.2282 -0.0868 -0.0465
  810POPS   C3A11537   0.206  15.761   6.864  0.0516 -0.0326  0.0454
  810POPS   C4A11538   0.432  15.503   7.126  0.1634  0.2436  0.1926
  810POPS   C1B11539   0.030  15.348   6.705 -0.0646 -0.0183 -0.0203
  810POPS   C2B11540  -0.101  15.492   7.139 -0.0697 -0.0928  0.4439
  810POPS   C3B11541  -0.011  15.359   7.527  0.0164 -0.1728 -0.1895
  810POPS   C4B11542   0.245  15.368   7.888 -0.1382  0.1467  0.1435
  811POPS   CNO11543  10.740   4.131   4.875  0.0444 -0.0817  0.0713
  811POPS   PO411544  10.569   4.254   5.229 -0.3386 -0.1740 -0.1756
  811POPS   GL111545  10.506   3.993   5.545 -0.0930  0.1890  0.0588
  811POPS   GL211546  10.328   4.087   5.823 -0.1952 -0.2058 -0.2652
  811POPS   C1A11547  10.718   3.839   6.007  0.1947  0.1379  0.0640
  811POPS   D2A11548  10.511   3.446   6.246  0.3091 -0.0030 -0.2930
  811POPS   C3A11549  10.613   3.392   6.708  0.2298  0.2449 -0.2971
  811POPS   C4A11550  10.666   3.451   7.209  0.1189  0.0554  0.0794
  811POPS   C1B11551  10.069   4.308   6.123 -0.3992  0.0825  0.1495
  811POPS   C2B11552   9.741   4.392   6.348 -0.2078 -0.2435 -0.1842
  811POPS   C3B11553   9.812   4.520   6.788 -0.3775  0.3004 -0.2139
  811POPS   C4B11554  10.044   4.782   7.116  0.0353  0.2537  0.1645
  812YOPS   CNO11555   7.224  17.533   5.182 -0.0009 -0.1709 -0.1280
  812YOPS   PO411556   7.134  17.679   5.568  0.0373  0.1637 -0.0407
  812YOPS   GL111557   7.135  17.474   5.962  0.1098  0.0497 -0.2945
  812YOPS   GL211558   7.141  17.790   6.082  0.3019 -0.1703  0.2643
  812YOPS   C1A11559   7.311  17.320   6.250 -0.0770  0.0874  0.1220
  812YOPS   D2A11560   7.117  17.056   6.502  0.1226 -0.0371  0.0421
  812YOPS   C3A11561   7.281  16.825   6.824 -0.1970  0.4251  0.0172
  812YOPS   C4A11562   7.085  16.335   7.021 -0.0699  0.0337  0.1913
  812YOPS   C1B11563   7.373  17.824   6.364 -0.0571 -0.1341 -0.1167
  812YOPS   C2B11564   7.789  17.550   6.434 -0.1256 -0.0848  0.1827
  812YOPS   D3B11565   8.000  17.471   6.794  0.0771 -0.2614 -0.2404
  812YOPS   C4B11566   7.845  17.569   7.250  0.1611  0.0070 -0.1776
  813YOPS   CNO11567   0.083   1.548   5.871 -0.0294 -0.3474  0.2172
  813YOPS   PO411568   0.019   1.745   6.233 -0.1978 -0.1193 -0.0054
  813YOPS   GL111569   0.027   1.747   6.583 -0.0861  0.0943  0.3944
  813YOPS   GL211570   0.276   1.479   6.635 -0.1331 -0.0809 -0.1933
  813YOPS   C1A11571  -0.012   1.593   7.006  0.2531  0.1360 -0.0534
  813YOPS   D2A11572   0.017   1.656   7.513  0.2288  0.0071  0.3093
  813YOPS   C3A11573   0.165   1.435   7.833  0.0975  0.1998 -0.1019
  813YOPS   C4A11574   0.324   1.508   8.298  0.2115 -0.5038  0.1060
  813YOPS   C1B11575   0.489   1.613   7.037  0.0582 -0.0870 -0.1719
  813YOPS   C2B11576   0.541   1.708   7.494 -0.1864  0.0317  0.1190
  813YOPS   D3B11577   0.639   1.603   7.963 -0.0518  0.3082  0.0379
  813YOPS   C4B11578   0.928   1.765   8.167 -0.1670  0.1213 -0.3520
  814YOPS   CNO11579  16.464  12.050   6.127 -0.0143  0.2070  0.1710
  814YOPS   PO411580  16.274  12.410   6.070  0.1612 -0.2474  0.1538
  814YOPS   GL111581  16.271  12.593   6.467  0.0307  0.3377 -0.3364
  814YOPS   GL211582  16.182  12.979   6.531 -0.0532 -0.2099 -0.0353
  814YOPS   C1A11583  16.335  12.701   6.915  0.0509  0.1679  0.1000
  814YOPS   D2A11584  16.316  12.970   7.242 -0.0266 -0.1394 -0.1692
  814YOPS   C3A11585  16.271  13.188   7.621 -0.1007  0.0691 -0.0407
  814YOPS   C4A11586  16.148  13.118   7.998  0.0541 -0.0863 -0.0391
  814YOPS   C1B11587  16.009  13.074   6.881  0.2127 -0.2209 -0.3467
  814YOPS   C2B11588  16.023  13.399   7.246  0.1465  0.1437  0.0857
  814YOPS   D3B11589  16.234  13.782   7.424  0.0958  0.1793  0.0776
  814YOPS   C4B11590  15.906  14.091   7.621 -0.2434  0.0666 -0.0404
  815YOPS   CNO11591  12.531  14.849   5.570  0.0608  0.1622 -0.1771
  815YOPS   PO411592  12.747  14.671   5.863 -0.0962 -0.0140 -0.1466
  815YOPS   GL111593  12.969  14.627   6.188  0.0861  0.0556 -0.1601
  815YOPS   GL211594  13.332  14.678   6.189  0.1622  0.0344 -0.1316
  815YOPS   C1A11595  13.034  14.538   6.698 -0.1635  0.3693  0.1913
  815YOPS   D2A11596  13.020  14.331   7.083 -0.2413  0.2257  0.1214
  815YOPS   C3A11597  13.238  13.943   7.434  0.0715 -0.1809 -0.0380
  815YOPS   C4A11598  13.550  14.143   7.686  0.1455  0.0631 -0.1094
  815YOPS   C1B11599  13.337  14.353   6.323 -0.1433 -0.1691 -0.0425
  815YOPS   C2B11600  13.535  14.303   6.799 -0.2322  0.0939  0.4286
  815YOPS   D3B11601  13.606  14.252   7.211  0.1219  0.1478 -0.0704
  815YOPS   C4B11602  14.002  14.139   7.431  0.0732  0.1559 -0.2343
  816YOPS   CNO11603  12.855   5.477   5.919 -0.0106 -0.1503  0.3641
  816YOPS   PO411604  12.510   5.547   5.966  0.0623  0.1243  0.0077
  816YOPS   GL111605  12.616   5.454   6.434  0.1435 -0.3672 -0.1680
  816YOPS   GL211606  12.569   5.047   6.591  0.4000 -0.0148 -0.0253
  816YOPS   C1A11607  12.602   5.515   6.876  0.3179 -0.1067 -0.1650
  816YOPS   D2A11608  12.721   5.578   7.337 -0.2191  0.2204 -0.1801
  816YOPS   C3A11609  12.506   5.738   7.675  0.2973  0.0171 -0.2756
  816YOPS   C4A11610  12.393   5.399   7.928 -0.0966  0.1499 -0.1164
  816YOPS   C1B11611  12.433   4.801   6.902 -0.1375  0.5166 -0.2912
  816YOPS   C2B11612  12.239   4.639   7.267 -0.1926  0.0716 -0.3438
  816YOPS   D3B11613  12.299   4.520   7.619  0.0234 -0.2199  0.0443
  816YOPS   C4B11614  12.314   4.126   7.859 -0.1860  0.1727 -0.1882
  817YOPS   CNO11615   9.128   4.444   5.465 -0.3232 -0.0241 -0.1747
  817YOPS   PO411616   9.321   4.636   5.782 -0.0480 -0.0152 -0.1088
  817YOPS   GL111617   9.262   4.690   6.163 -0.1300  0.0101 -0.0532
  817YOPS   GL211618   8.950   4.630   6.269  0.0732  0.0281 -0.3291
  817YOPS   C1A11619   9.377   4.536   6.619  0.1492  0.3016 -0.0309
  817YOPS   D2A11620   9.410   4.461   7.126 -0.3733 -0.1832 -0.1201
  817YOPS   C3A11621   9.607   4.260   7.428 -0.1208  0.1726  0.3481
  817YOPS   C4A11622   9.876   3.914   7.566 -0.3677 -0.2109  0.0947
  817YOPS   C1B11623   8.851   4.624   6.640  0.0910 -0.0776 -0.1763
  817YOPS   C2B11624   8.870   4.700   7.042  0.0772 -0.1188  0.1029
  817YOPS   D3B11625   8.534   4.876   7.312 -0.2611  0.0991 -0.1871
  817YOPS   C4B11626   8.389   5.222   7.515  0.0868  0.2314  0.2808
  818YOPS   CNO11627   4.414  10.307   6.021  0.2772  0.1540 -0.2791
  818YOPS   PO411628   4.843  10.304   5.844  0.2594 -0.0623  0.1605
  818YOPS   GL111629   4.880  10.351   6.220  0.1702 -0.0284 -0.3878
  818YOPS   GL211630   4.706  10.029   6.312  0.3502  0.3491 -0.0823
  818YOPS   C1A11631   4.986  10.256   6.713  0.2408  0.0500 -0.0253
  818YOPS   D2A11632   4.763  10.038   6.970  0.1143  0.0311  0.1426
  818YOPS   C3A11633   4.642   9.827   7.414  0.0004 -0.3764  0.0400
  818YOPS   C4A11634   4.679  10.048   7.708 -0.0404  0.0256 -0.0297
  818YOPS   C1B11635   5.005   9.667   6.648  0.3961  0.0949  0.0075
  818YOPS   C2B11636   5.223   9.749   6.989 -0.0014 -0.0743 -0.0703
  818YOPS   D3B11637   5.613   9.637   7.052  0.0354 -0.2880 -0.0544
  818YOPS   C4B11638   6.058   9.818   7.165  0.2975 -0.1875  0.1563
  819YOPS   CNO11639  12.126   1.876   5.402  0.0854 -0.1780  0.0722
  819YOPS   PO411640  12.572   1.755   5.599 -0.0173 -0.1634  0.1445
  819YOPS   GL111641  12.680   1.981   6.031 -0.0111 -0.1845  0.3842
  819YOPS   GL211642  12.423   2.252   6.168 -0.0224  0.0979 -0.0428
  819YOPS   C1A11643  12.723   1.902   6.497 -0.0220  0.1676 -0.1885
  819YOPS   D2A11644  12.806   1.479   6.806  0.0155 -0.2594  0.0201
  819YOPS   C3A11645  12.522   1.209   7.102 -0.1056  0.0216 -0.0422
  819YOPS   C4A11646  12.239   0.886   7.383  0.2657  0.3453 -0.1746
  819YOPS   C1B11647  12.191   2.003   6.419 -0.0668  0.5100  0.1876
  819YOPS   C2B11648  12.015   2.148   6.786 -0.3164  0.0004 -0.0422
  819YOPS   D3B11649  11.845   2.413   7.072 -0.0503  0.4343  0.2034
  819YOPS   C4B11650  11.803   2.842   7.044  0.0957  0.3670 -0.1089
  820YOPS   CNO11651   2.401   2.807   5.879 -0.0745 -0.0422  0.0231
  820YOPS   PO411652   2.758   2.758   6.116  0.1805 -0.1456 -0.3757
  820YOPS   GL111653   2.723   2.868   6.597 -0.0343  0.2275  0.2588
  820YOPS   GL211654   2.568   2.602   6.656  0.0007 -0.0643  0.2655
  820YOPS   C1A11655   2.904   3.008   6.964 -0.0699  0.1803 -0.1312
  820YOPS   D2A11656   3.044   2.808   7.355  0.2190  0.0222  0.0333
  820YOPS   C3A11657   2.971   2.703   7.798  0.0398 -0.1271 -0.1769
  820YOPS   C4A11658   2.583   2.590   7.968  0.1003 -0.0181 -0.1126
  820YOPS   C1B11659   2.768   2.439   7.001 -0.0402  0.1417  0.1652
  820YOPS   C2B11660   2.802   2.317   7.403  0.0953 -0.1804  0.1653
  820YOPS   D3B11661   2.889   2.215   7.773 -0.0220 -0.1558  0.0141
  820YOPS   C4B11662   2.785   1.905   8.064 -0.0908  0.2315  0.1501
  821YOPS   CNO11663  10.799   6.717   4.987  0.1980 -0.0712 -0.1607
  821YOPS   PO411664  10.586   6.743   5.419 -0.3729 -0.1158 -0.0037
  821YOPS   GL111665  10.409   6.882   5.837  0.0654 -0.1886  0.2566
  821YOPS   GL211666  10.363   6.717   6.032 -0.0315 -0.0633  0.0510
  821YOPS   C1A11667  10.155   7.211   6.000  0.0498  0.0508  0.0661
  821YOPS   D2A11668   9.841   7.620   6.084 -0.0863 -0.2528  0.2936
  821YOPS   C3A11669   9.636   7.652   6.446 -0.2294  0.3236  0.1428
  821YOPS   C4A11670   9.632   7.412   6.849 -0.0061 -0.0827 -0.0689
  821YOPS   C1B11671  10.450   6.340   6.280 -0.2891  0.0454 -0.1346
  821YOPS   C2B11672  10.724   6.557   6.604 -0.0032 -0.2277 -0.1904
  821YOPS   D3B11673  10.842   6.707   7.049  0.1156  0.0915 -0.1966
  821YOPS   C4B11674  10.843   7.095   7.138  0.3569  0.1182 -0.1536
  822YOPS   CNO11675  10.357   3.128   5.418 -0.1909 -0.1884 -0.0156
  822YOPS   PO411676  10.135   2.861   5.597  0.4005 -0.0734 -0.1537
  822YOPS   GL111677  10.054   3.325   5.814  0.0307 -0.1200 -0.0610
  822YOPS   GL211678   9.961   3.210   6.131 -0.0117  0.1128 -0.1639
  822YOPS   C1A11679  10.118   3.699   6.116 -0.1993  0.0623  0.3290
  822YOPS   D2A11680  10.361   3.925   6.413  0.0184  0.1456  0.1016
  822YOPS   C3A11681  10.043   4.063   6.688 -0.0574 -0.0536 -0.0123
  822YOPS   C4A11682  10.041   4.194   7.162  0.0842  0.1058 -0.1204
  822YOPS   C1B11683  10.094   3.288   6.499  0.0629  0.1072 -0.3266
  822YOPS   C2B11684  10.121   3.605   6.731  0.0382 -0.1599  0.0304
  822YOPS   D3B11685  10.504   3.963   6.884 -0.0230  0.3530  0.2082
  822YOPS   C4B11686  10.885   3.873   7.123 -0.1456 -0.3137 -0.2600
  823YOPS   CNO11687   7.629   8.615   6.069 -0.1468 -0.0249  0.1254
  823YOPS   PO411688   7.316   8.429   5.909  0.0789  0.2173  0.0257
  823YOPS   GL111689   7.460   8.237   6.325 -0.0634  0.0518  0.1809
  823YOPS   GL211690   7.379   8.545   6.496 -0.1321 -0.0328 -0.2014
  823YOPS   C1A11691   7.785   8.120   6.574  0.1353  0.1322 -0.1561
  823YOPS   D2A11692   8.100   8.136   6.987  0.4454  0.0006  0.1536
  823YOPS   C3A11693   8.215   8.217   7.351 -0.0948  0.2047  0.2380
  823YOPS   C4A11694   7.951   8.362   7.659  0.0264  0.0503  0.1646
  823YOPS   C1B11695   7.630   8.510   6.879  0.2499 -0.0141 -0.1076
  823YOPS   C2B11696   7.710   8.437   7.275  0.0471 -0.0419 -0.3281
  823YOPS   D3B11697   7.747   8.771   7.487  0.3934 -0.0460 -0.0198
  823YOPS   C4B11698   7.989   9.086   7.406 -0.2197 -0.1791 -0.1951
  824YOPS   CNO11699   1.665   1.503   6.275 -0.0269 -0.1132  0.0395
  824YOPS   PO411700   1.780   1.115   6.082 -0.0632 -0.0501 -0.0452
  824YOPS   GL111701   1.788   0.862   6.461 -0.2755  0.1057 -0.0098
  824YOPS   GL211702   1.722   0.582   6.393  0.2562 -0.0552  0.3478
  824YOPS   C1A11703   1.738   0.720   6.945  0.3885  0.0794  0.1339
  824YOPS   D2A11704   1.545   0.468   7.212 -0.2598 -0.0961 -0.0821
  824YOPS   C3A11705   1.615   0.089   7.418  0.2151 -0.1339  0.0346
  824YOPS   C4A11706   1.962   0.064   7.734 -0.0697  0.1021  0.1997
  824YOPS   C1B11707   2.090   0.542   6.670  0.1228 -0.0583 -0.0281
  824YOPS   C2B11708   2.394   0.226   6.870  0.1564  0.1882  0.0826
  824YOPS   D3B11709   2.491   0.037   7.250 -0.1097  0.0380 -0.0706
  824YOPS   C4B11710   2.419   0.233   7.533  0.2428 -0.0523  0.1114
  825YOPS   CNO11711  10.928   9.523   5.422 -0.0253  0.4059 -0.1211
  825YOPS   PO411712  11.052   9.181   5.570  0.0455  0.0916  0.0352
  825YOPS   GL111713  11.006   8.849   5.737 -0.1470  0.0490 -0.3353
  825YOPS   GL211714  10.705   8.791   5.638  0.1172 -0.0399  0.1765
  825YOPS   C1A11715  10.979   8.569   6.087 -0.2934 -0.1070 -0.1210
  825YOPS   D2A11716  11.174   8.442   6.489 -0.1854  0.2864 -0.0635
  825YOPS   C3A11717  11.354   8.353   6.853 -0.1686  0.2851  0.3048
  825YOPS   C4A11718  11.164   8.284   7.172 -0.1774  0.1962  0.1789
  825YOPS   C1B11719  10.610   9.023   6.018 -0.1465 -0.3927  0.3379
  825YOPS   C2B11720  10.616   9.435   6.271  0.0654  0.3275  0.1105
  825YOPS   D3B11721  10.905   9.826   6.344 -0.0138  0.0134  0.1960
  825YOPS   C4B11722  10.959   9.974   6.755  0.2689 -0.0201 -0.2171
  826YOPS   CNO11723  16.135   6.603   5.656 -0.1630  0.1325  0.2704
  826YOPS   PO411724  15.810   6.751   5.956 -0.1039  0.0834  0.3345
  826YOPS   GL111725  15.887   6.712   6.340 -0.2660  0.0688  0.3071
  826YOPS   GL211726  15.779   6.535   6.716  0.0997 -0.0790  0.0046
  826YOPS   C1A11727  16.111   6.970   6.611  0.1894  0.0831  0.2542
  826YOPS   D2A11728  15.944   7.335   6.749  0.0682 -0.0278  0.2033
  826YOPS   C3A11729  15.765   7.687   6.940  0.0529 -0.0299 -0.0042
  826YOPS   C4A11730  15.756   7.853   7.490 -0.0297 -0.0150  0.0553
  826YOPS   C1B11731  15.692   6.511   7.100 -0.0577  0.1314 -0.3052
  826YOPS   C2B11732  15.645   6.371   7.520 -0.1047 -0.1118  0.0502
  826YOPS   D3B11733  15.881   6.049   7.734 -0.1212  0.3516 -0.1714
  826YOPS   C4B11734  16.244   6.133   7.985  0.3323  0.0035  0.4179
  827YOPS   CNO11735   7.341   2.666   5.054  0.0659  0.2029  0.3009
  827YOPS   PO411736   6.930   2.859   5.194 -0.0291 -0.0563 -0.0839
  827YOPS   GL111737   6.904   2.627   5.599 -0.0371  0.0318  0.2294
  827YOPS   GL211738   6.594   2.740   5.731  0.3274  0.2223 -0.1824
  827YOPS   C1A11739   7.133   2.427   5.993  0.0143  0.2250  0.1227
  827YOPS   D2A11740   7.083   2.156   6.338 -0.0456 -0.3197  0.0002
  827YOPS   C3A11741   7.220   1.960   6.689  0.0148  0.1334 -0.2014
  827YOPS   C4A11742   7.551   2.131   6.932 -0.1062 -0.0249 -0.3319
  827YOPS   C1B11743   6.713   2.729   6.223 -0.1363  0.1252  0.2965
  827YOPS   C2B11744   7.013   2.628   6.589  0.2220  0.0048  0.0926
  827YOPS   D3B11745   7.025   2.385   6.923  0.2164  0.3203  0.0182
  827YOPS   C4B11746   6.942   2.582   7.324  0.3632  0.0169  0.2169
  828YOPS   CNO11747   7.958  17.471   5.590  0.0113  0.1946 -0.0647
  828YOPS   PO411748   8.211  17.567   5.874 -0.1898  0.3217  0.5423
  828YOPS   GL111749   8.030  17.893   6.132  0.2526 -0.0700  0.0162
  828YOPS   GL211750   8.340  17.935   6.327 -0.1680 -0.3531  0.2034
  828YOPS   C1A11751   7.760  18.057   6.480 -0.3262 -0.2033  0.0157
  828YOPS   D2A11752   7.615  17.861   6.826  0.3089 -0.0844  0.0522
  828YOPS   C3A11753   7.345  17.730   7.241  0.1704 -0.0007  0.2302
  828YOPS   C4A11754   7.456  17.296   7.403 -0.0221  0.0993 -0.0958
  828YOPS   C1B11755   8.177  17.973   6.811 -0.1634  0.1776 -0.0010
  828YOPS   C2B11756   7.933  18.049   7.187 -0.0418 -0.0731 -0.2448
  828YOPS   D3B11757   7.742  18.392   7.367  0.2515  0.0071  0.2873
  828YOPS   C4B11758   7.897  18.758   7.433 -0.5325  0.0030 -0.0066
  829YOPS   CNO11759   0.447   1.955   5.873  0.1117  0.1577 -0.1543
  829YOPS   PO411760   0.831   1.983   5.874  0.1173 -0.2898  0.1829
  829YOPS   GL111761   0.899   1.776   6.337 -0.2033  0.1105  0.1925
  829YOPS   GL211762   0.576   1.904   6.445  0.0116 -0.1469 -0.2066
  829YOPS   C1A11763   0.807   1.516   6.642 -0.1788 -0.2010  0.1645
  829YOPS   D2A11764   1.102   1.236   6.861 -0.0464 -0.0239 -0.0320
  829YOPS   C3A11765   1.621   1.216   6.960  0.0142  0.1506  0.0939
  829YOPS   C4A11766   1.843   1.574   6.697 -0.0970 -0.2423 -0.0615
  829YOPS   C1B11767   0.363   2.018   6.831 -0.2947 -0.1577  0.3927
  829YOPS   C2B11768   0.148   2.024   7.275  0.0577 -0.0542 -0.0537
  829YOPS   D3B11769  -0.090   2.128   7.650 -0.1967 -0.1876  0.1927
  829YOPS   C4B11770  -0.071   2.505   7.743 -0.1500 -0.0264  0.0813
  830YOPS   CNO11771   5.015  15.048   5.713 -0.0817 -0.2487 -0.4276
  830YOPS   PO411772   5.318  14.851   5.913  0.0864  0.1443  0.0556
  830YOPS   GL111773   5.269  14.590   6.318  0.0767  0.0794  0.1499
  830YOPS   GL211774   4.930  14.636   6.475 -0.0831 -0.0657 -0.2888
  830YOPS   C1A11775   5.316  14.603   6.777  0.2073  0.1547 -0.3121
  830YOPS   D2A11776   5.402  14.576   7.209  0.1100  0.3405 -0.0975
  830YOPS   C3A11777   5.559  14.396   7.594 -0.1967 -0.0617 -0.3489
  830YOPS   C4A11778   5.254  14.489   7.872 -0.0100 -0.1245 -0.0789
  830YOPS   C1B11779   4.861  14.449   6.845  0.0286 -0.0771  0.1207
  830YOPS   C2B11780   4.909  14.374   7.280  0.0512 -0.1564 -0.0171
  830YOPS   D3B11781   4.871  14.111   7.659 -0.1615 -0.1602 -0.0429
  830YOPS   C4B11782   4.604  14.148   7.933  0.0018 -0.0280 -0.1126
  831YOPS   CNO11783   7.753  14.965   5.631 -0.0619  0.2089 -0.0366
  831YOPS   PO411784   8.027  14.824   5.871  0.0996  0.1267 -0.4701
  831YOPS   GL111785   8.162  14.849   6.356 -0.1206 -0.0256 -0.1444
  831YOPS   GL211786   8.322  15.105   6.407 -0.1095  0.0346  0.0567
  831YOPS   C1A11787   8.206  14.738   6.834  0.3171 -0.1827  0.0627
  831YOPS   D2A11788   8.280  14.420   6.957  0.0655 -0.0364  0.3580
  831YOPS   C3A11789   8.346  13.967   6.957  0.0156  0.0094 -0.0438
  831YOPS   C4A11790   8.316  13.518   7.078  0.0889  0.1390  0.0747
  831YOPS   C1B11791   8.346  15.235   6.898  0.0896  0.2902 -0.1020
  831YOPS   C2B11792   8.093  15.118   7.195 -0.2007  0.1570 -0.0423
  831YOPS   D3B11793   8.223  15.104   7.580  0.0331 -0.1000  0.2314
  831YOPS   C4B11794   8.452  14.752   7.805  0.1229  0.1353  0.1552
  832YOPS   CNO11795  14.601  17.632   6.042  0.0884 -0.0010 -0.3119
  832YOPS   PO411796  15.039  17.731   6.113  0.3365  0.0764 -0.1201
  832YOPS   GL111797  14.905  17.767   6.493  0.0553  0.2731 -0.1770
  832YOPS   GL211798  14.999  17.911   6.717 -0.1578 -0.2809 -0.2439
  832YOPS   C1A11799  15.105  17.444   6.722 -0.0301 -0.2044  0.2464
  832YOPS   D2A11800  15.157  17.059   6.730 -0.1058  0.0957 -0.3928
  832YOPS   C3A11801  14.978  16.684   6.903 -0.0572  0.1692  0.0689
  832YOPS   C4A11802  15.193  16.450   7.254  0.1016 -0.2024  0.1595
  832YOPS   C1B11803  14.982  17.830   7.123  0.2209  0.1568 -0.0889
  832YOPS   C2B11804  14.867  17.710   7.494  0.0807  0.0980  0.1395
  832YOPS   D3B11805  14.803  17.596   7.936  0.0882  0.0362  0.1746
  832YOPS   C4B11806  14.665  18.017   8.184 -0.1526  0.1077  0.1690
  833YOPS   CNO11807  10.525  16.898   6.287 -0.1190  0.0147 -0.2795
  833YOPS   PO411808  10.267  16.585   6.338  0.2347 -0.1992 -0.1164
  833YOPS   GL111809  10.652  16.527   6.619  0.1493 -0.1413  0.0268
  833YOPS   GL211810  10.816  16.805   6.645 -0.3212 -0.1906 -0.0404
  833YOPS   C1A11811  10.935  16.297   6.973 -0.0531  0.2689  0.2625
  833YOPS   D2A11812  10.988  16.316   7.382  0.1286  0.0859  0.2821
  833YOPS   C3A11813  11.056  16.391   7.830 -0.2508 -0.0592 -0.1809
  833YOPS   C4A11814  10.774  16.753   8.090 -0.2049  0.2045 -0.0220
  833YOPS   C1B11815  10.828  16.793   7.155  0.1619 -0.0504  0.0417
  833YOPS   C2B11816  11.018  16.880   7.533 -0.2239  0.2725 -0.1418
  833YOPS   D3B11817  11.313  16.872   7.811  0.1405  0.1180  0.3273
  833YOPS   C4B11818  11.747  16.965   7.604  0.1717  0.0729  0.1582
  834YOPS   CNO11819   6.456   4.912   5.476  0.2767  0.0372  0.0494
  834YOPS   PO411820   6.493   5.134   5.863 -0.0667  0.0177  0.1407
  834YOPS   GL111821   6.590   5.411   6.263 -0.2631  0.0434  0.0773
  834YOPS   GL211822   6.590   5.291   6.543  0.2579 -0.2566  0.2176
  834YOPS   C1A11823   6.677   5.744   6.591 -0.0432  0.1943 -0.0908
  834YOPS   D2A11824   6.811   5.800   7.079 -0.1659  0.1045 -0.0727
  834YOPS   C3A11825   7.235   5.648   7.215  0.2010  0.1657  0.0299
  834YOPS   C4A11826   7.605   5.819   7.394  0.3629  0.1286  0.0286
  834YOPS   C1B11827   6.580   5.334   6.984  0.0731 -0.1155 -0.0704
  834YOPS   C2B11828   6.527   5.457   7.331 -0.0140  0.4044  0.1678
  834YOPS   D3B11829   6.535   5.754   7.670 -0.0254  0.1983  0.0618
  834YOPS   C4B11830   6.366   5.511   7.994  0.3126 -0.1101 -0.2919
  835YOPS   CNO11831  13.117   5.047   5.969 -0.0683  0.1353  0.3312
  835YOPS   PO411832  13.458   5.167   6.118 -0.2388 -0.0937  0.3276
  835YOPS   GL111833  13.152   5.487   6.402  0.2811 -0.0021 -0.5068
  835YOPS   GL211834  13.256   5.802   6.558 -0.1950  0.1174 -0.1188
  835YOPS   C1A11835  13.067   5.393   6.827 -0.0146 -0.0190 -0.0388
  835YOPS   D2A11836  12.811   5.134   7.072 -0.0510  0.1449 -0.0509
  835YOPS   C3A11837  12.738   4.738   7.261  0.1209  0.1929  0.0335
  835YOPS   C4A11838  12.868   4.626   7.613  0.0241  0.0665 -0.1652
  835YOPS   C1B11839  13.536   5.833   6.912  0.2810  0.0839 -0.1449
  835YOPS   C2B11840  13.639   5.751   7.233  0.2231 -0.2241  0.0161
  835YOPS   D3B11841  13.974   5.737   7.530 -0.0940  0.0797  0.0374
  835YOPS   C4B11842  14.229   5.943   7.682 -0.2360 -0.2371  0.0715
  836YOPS   CNO11843   4.642  17.357   5.952 -0.0211 -0.2003  0.0372
  836YOPS   PO411844   4.340  17.159   6.057 -0.2222 -0.3404 -0.2226
  836YOPS   GL111845   4.610  17.082   6.365 -0.1867  0.2522  0.1067
  836YOPS   GL211846   4.819  16.999   6.275 -0.1218 -0.2664  0.0558
  836YOPS   C1A11847   4.697  16.725   6.670 -0.1723  0.1679  0.0737
  836YOPS   D2A11848   5.014  16.606   6.947 -0.2940 -0.0013  0.3266
  836YOPS   C3A11849   5.364  16.489   7.040 -0.3384 -0.1827 -0.1759
  836YOPS   C4A11850   5.252  16.241   7.413  0.0961  0.0027  0.3093
  836YOPS   C1B11851   5.120  17.044   6.748 -0.2064  0.0630  0.2040
  836YOPS   C2B11852   5.175  17.100   7.203  0.1647  0.0216  0.0300
  836YOPS   D3B11853   5.479  17.211   7.537 -0.0197  0.0241 -0.0226
  836YOPS   C4B11854   5.380  17.479   7.944  0.3433  0.0038 -0.0079
  837YOPS   CNO11855  10.030  17.398   5.621 -0.3125 -0.1990  0.2800
  837YOPS   PO411856   9.683  17.465   6.007 -0.1185 -0.1742  0.0809
  837YOPS   GL111857   9.452  17.431   6.398 -0.1625 -0.0831 -0.1313
  837YOPS   GL211858   9.134  17.298   6.303  0.0197  0.2783 -0.0334
  837YOPS   C1A11859   9.303  17.437   6.784  0.1082 -0.0507 -0.1756
  837YOPS   D2A11860   9.060  17.290   7.068 -0.0927  0.0278 -0.0205
  837YOPS   C3A11861   8.745  17.051   7.176 -0.0099  0.0404 -0.2518
  837YOPS   C4A11862   8.465  17.093   7.540  0.1752 -0.0827  0.1518
  837YOPS   C1B11863   8.910  17.123   6.564 -0.0267 -0.0564  0.0314
  837YOPS   C2B11864   8.452  16.929   6.657  0.4021 -0.0547  0.0161
  837YOPS   D3B11865   8.078  16.964   6.613  0.1574  0.1239 -0.1462
  837YOPS   C4B11866   7.605  17.009   6.478  0.2768  0.0174 -0.0730
  838YOPS   CNO11867  10.963  10.083   5.373  0.0196 -0.1106 -0.1774
  838YOPS   PO411868  10.895  10.560   5.567  0.1667  0.1871  0.4704
  838YOPS   GL111869  10.996  10.782   5.911 -0.0496 -0.2173  0.3124
  838YOPS   GL211870  11.371  10.736   5.914 -0.2219  0.0776 -0.0001
  838YOPS   C1A11871  10.760  10.878   6.283 -0.1403  0.3576 -0.1026
  838YOPS   D2A11872  10.685  11.026   6.559 -0.0110 -0.1508 -0.0051
  838YOPS   C3A11873  10.916  11.084   6.962 -0.1503 -0.1715  0.0576
  838YOPS   C4A11874  10.883  11.391   7.195  0.1105  0.1632  0.2357
  838YOPS   C1B11875  11.408  10.549   6.305 -0.0987 -0.1520 -0.3876
  838YOPS   C2B11876  11.573  10.633   6.746 -0.0531 -0.1965 -0.1695
  838YOPS   D3B11877  11.716  10.556   7.169  0.0630  0.2365 -0.0039
  838YOPS   C4B11878  12.110  10.287   7.323 -0.3137 -0.2235 -0.1217
  839YOPS   CNO11879   9.917  13.257   5.772 -0.0655 -0.0822  0.1033
  839YOPS   PO411880  10.016  12.846   5.771 -0.2328 -0.0955 -0.1435
  839YOPS   GL111881   9.926  12.914   6.194  0.0001 -0.0398 -0.0528
  839YOPS   GL211882   9.714  12.899   6.313 -0.0107 -0.0050 -0.1999
  839YOPS   C1A11883  10.196  13.036   6.540 -0.3979 -0.1416  0.1867
  839YOPS   D2A11884  10.518  12.899   6.725 -0.2180  0.0122 -0.0563
  839YOPS   C3A11885  10.735  12.574   6.588 -0.0603 -0.0001 -0.1274
  839YOPS   C4A11886  10.923  12.345   6.893 -0.1611 -0.0215 -0.3291
  839YOPS   C1B11887   9.766  12.993   6.706  0.0649  0.0018  0.0711
  839YOPS   C2B11888   9.774  13.282   7.099 -0.0884  0.0372 -0.0225
  839YOPS   D3B11889   9.943  13.544   7.379 -0.0902  0.0988  0.1748
  839YOPS   C4B11890  10.338  13.619   7.366 -0.2021  0.0541  0.1106
  840YOPS   CNO11891   5.294   0.758   5.655  0.3276  0.0372  0.0787
  840YOPS   PO411892   4.855   0.452   5.684  0.2413  0.0818 -0.1315
  840YOPS   GL111893   4.659   0.589   6.153  0.1703 -0.0863  0.0823
  840YOPS   GL211894   4.289   0.511   6.275  0.1192 -0.1471 -0.1993
  840YOPS   C1A11895   4.536   0.848   6.480  0.0581 -0.1850  0.0509
  840YOPS   D2A11896   4.496   0.978   6.925 -0.0295 -0.0549 -0.1376
  840YOPS   C3A11897   4.301   0.918   7.289  0.0905  0.0647 -0.0214
  840YOPS   C4A11898   4.570   0.958   7.690 -0.1377  0.1187  0.0315
  840YOPS   C1B11899   3.991   0.347   6.608 -0.2351  0.1294  0.1142
  840YOPS   C2B11900   3.899   0.105   6.872 -0.1738 -0.1381 -0.1004
  840YOPS   D3B11901   3.949  -0.119   7.196  0.0322 -0.0040  0.0799
  840YOPS   C4B11902   4.277  -0.238   7.427  0.1552  0.1851  0.1032
  841YOPS   CNO11903   0.208  16.187   5.708 -0.2392 -0.1244  0.0415
  841YOPS   PO411904  -0.156  16.081   5.833  0.2423  0.0452 -0.2337
  841YOPS   GL111905  -0.261  16.176   6.322 -0.1147 -0.1607 -0.2330
  841YOPS   GL211906  -0.255  16.514   6.351 -0.1733  0.4413 -0.0046
  841YOPS   C1A11907  -0.078  16.315   6.754  0.1089  0.1236 -0.1384
  841YOPS   D2A11908   0.217  16.499   6.985 -0.2257 -0.3472 -0.1275
  841YOPS   C3A11909   0.390  16.641   7.428 -0.2311 -0.5070  0.0345
  841YOPS   C4A11910   0.750  16.438   7.601 -0.0722 -0.2108  0.0553
  841YOPS   C1B11911  -0.511  16.570   6.832 -0.4656 -0.1730  0.0743
  841YOPS   C2B11912  -0.609  16.647   7.122  0.0075  0.2249 -0.1847
  841YOPS   D3B11913  -0.496  16.743   7.561 -0.2149  0.0222 -0.1247
  841YOPS   C4B11914  -0.759  16.691   7.962  0.0880 -0.0289 -0.2767
  842POPE   NH311915   8.628   7.675   5.909 -0.3501 -0.0225  0.0068
  842POPE   PO411916   8.214   7.900   5.878  0.0598  0.0675  0.2037
  842POPE   GL111917   8.249   7.882   6.275 -0.1428  0.2406 -0.0946
  842POPE   GL211918   8.323   7.643   6.502  0.3187 -0.0850 -0.1768
  842POPE   C1A11919   8.444   8.109   6.649 -0.2983  0.0687 -0.1216
  842POPE   D2A11920   8.649   8.103   7.066  0.0193 -0.0655  0.1308
  842POPE   C3A11921   9.126   8.201   7.235 -0.3340  0.0515 -0.0266
  842POPE   C4A11922   9.503   8.023   7.458 -0.4754 -0.2151  0.3778
  842POPE   C1B11923   8.331   7.251   6.758 -0.0114  0.0310 -0.0514
  842POPE   C2B11924   8.398   7.141   7.160  0.0776  0.0180  0.1147
  842POPE   C3B11925   8.343   7.050   7.605  0.1982  0.1419 -0.2455
  842POPE   C4B11926   8.424   6.950   7.964  0.3991  0.0875 -0.1347
  843POPE   NH311927   0.684   6.498   6.220 -0.1871 -0.2213  0.1678
  843POPE   PO411928   0.267   6.483   6.137 -0.3544  0.1652 -0.1061
  843POPE   GL111929   0.299   6.356   6.580 -0.1369 -0.0280 -0.2985
  843POPE   GL211930   0.567   6.409   6.721 -0.0553 -0.0794 -0.0366
  843POPE   C1A11931   0.221   6.338   7.004  0.1282 -0.0714 -0.2997
  843POPE   D2A11932   0.108   6.285   7.410 -0.1543 -0.3465 -0.0727
  843POPE   C3A11933   0.079   6.602   7.671 -0.0184 -0.3063  0.3145
  843POPE   C4A11934  -0.014   7.080   7.594 -0.2341  0.1016 -0.4034
  843POPE   C1B11935   0.649   6.700   7.077  0.0232 -0.0488  0.1146
  843POPE   C2B11936   1.006   6.650   7.366  0.4033  0.1558 -0.1944
  843POPE   C3B11937   1.398   6.591   7.564  0.0862  0.1905 -0.0116
  843POPE   C4B11938   1.778   6.575   7.512  0.2816  0.1135 -0.1488
  844POPE   NH311939  10.758  13.425   5.898  0.0189  0.1070  0.1823
  844POPE   PO411940  11.122  13.148   6.001  0.2691 -0.0903  0.1712
  844POPE   GL111941  10.921  13.181   6.360  0.0676 -0.1169 -0.2300
  844POPE   GL211942  11.072  13.471   6.396  0.0845 -0.2040  0.0250
  844POPE   C1A11943  10.902  13.242   6.815 -0.0282  0.2779 -0.4480
  844POPE   D2A11944  10.684  13.228   7.238  0.0027 -0.0324  0.1703
  844POPE   C3A11945  10.968  13.080   7.492  0.0693 -0.2226 -0.0272
  844POPE   C4A11946  11.167  13.031   7.900  0.1943  0.1416  0.0771
  844POPE   C1B11947  11.406  13.254   6.601  0.3866 -0.4072  0.0578
  844POPE   C2B11948  11.685  13.067   6.982  0.1832 -0.0660  0.0710
  844POPE   C3B11949  11.562  12.896   7.353  0.1923 -0.1909  0.1400
  844POPE   C4B11950  11.470  12.689   7.686 -0.1142  0.0241  0.1922
  845POPE   NH311951   4.452   6.648   6.050  0.1266 -0.1526  0.2525
  845POPE   PO411952   4.400   6.253   6.017  0.0494  0.3235 -0.0529
  845POPE   GL111953   4.347   6.187   6.411  0.1376 -0.1260  0.0487
  845POPE   GL211954   4.620   5.893   6.357  0.0615  0.0013 -0.0714
  845POPE   C1A11955   4.262   6.158   6.794 -0.3023 -0.1331  0.1482
  845POPE   D2A11956   4.376   5.992   7.124  0.0200  0.3960 -0.0068
  845POPE   C3A11957   4.137   6.061   7.578 -0.1680  0.0653 -0.0234
  845POPE   C4A11958   4.248   6.073   8.020  0.3067 -0.3070  0.1814
  845POPE   C1B11959   4.889   5.830   6.669  0.2896 -0.2230  0.2731
  845POPE   C2B11960   4.914   5.794   7.086 -0.2455  0.1383  0.1378
  845POPE   C3B11961   4.924   5.708   7.546  0.1129  0.1331 -0.2354
  845POPE   C4B11962   4.856   5.374   7.911 -0.1348  0.2231 -0.0968
  846POPE   NH311963   9.076   9.365   5.859 -0.1713  0.1187 -0.2169
  846POPE   PO411964   9.539   9.463   5.787 -0.0613 -0.0172  0.0253
  846POPE   GL111965   9.508   9.278   6.245 -0.1740  0.1035  0.1528
  846POPE   GL211966   9.193   9.252   6.360 -0.0944 -0.0648 -0.0966
  846POPE   C1A11967   9.643   9.121   6.716 -0.4104 -0.0689 -0.2102
  846POPE   D2A11968   9.756   8.895   7.044 -0.2347  0.2306 -0.1578
  846POPE   C3A11969   9.645   8.962   7.432 -0.0975  0.1102 -0.1681
  846POPE   C4A11970   9.505   9.011   7.786  0.3095  0.0328  0.2590
  846POPE   C1B11971   9.187   8.972   6.662 -0.0742  0.0040 -0.0763
  846POPE   C2B11972   9.271   8.980   7.079  0.0879  0.1702  0.0980
  846POPE   C3B11973   9.221   9.269   7.426  0.1072  0.1872 -0.2211
  846POPE   C4B11974   9.154   9.396   7.771  0.1972 -0.1501 -0.0859
  847POPE   NH311975  17.543   9.034   5.685  0.3398 -0.1447 -0.2737
  847POPE   PO411976  17.598   8.597   5.689  0.1390  0.4787  0.2496
  847POPE   GL111977  17.742   8.756   6.086  0.0890  0.0471  0.1112
  847POPE   GL211978  18.087   8.865   6.174  0.0866  0.0192 -0.0869
  847POPE   C1A11979  17.508   8.610   6.465  0.0421 -0.0441  0.0373
  847POPE   D2A11980  17.569   8.190   6.707 -0.1549  0.1918  0.1189
  847POPE   C3A11981  17.314   7.951   6.966 -0.0082  0.1421 -0.3060
  847POPE   C4A11982  17.137   7.865   7.377 -0.1075 -0.1386 -0.0832
  847POPE   C1B11983  17.982   9.015   6.612  0.1136 -0.0702 -0.3829
  847POPE   C2B11984  18.010   9.036   7.136  0.1502  0.1535 -0.1662
  847POPE   C3B11985  17.762   9.046   7.501  0.1586  0.0133  0.0511
  847POPE   C4B11986  17.642   9.152   7.849 -0.0370  0.1792 -0.0488
  848POPE   NH311987   8.941   5.821   5.390  0.1844  0.4390  0.1701
  848POPE   PO411988   8.780   5.585   5.768 -0.1383  0.0762 -0.0427
  848POPE   GL111989   8.930   5.200   5.965 -0.1240  0.1063 -0.0043
  848POPE   GL211990   9.142   5.155   6.122 -0.0546 -0.0100 -0.3096
  848POPE   C1A11991   8.715   5.123   6.379  0.0989 -0.1457  0.2222
  848POPE   D2A11992   8.570   5.116   6.833 -0.0250  0.1321  0.2552
  848POPE   C3A11993   8.382   5.509   7.097 -0.0028  0.0635  0.2056
  848POPE   C4A11994   8.055   5.656   7.295 -0.2128 -0.3400 -0.2343
  848POPE   C1B11995   9.164   5.009   6.596  0.0360 -0.2698 -0.2472
  848POPE   C2B11996   9.020   5.173   6.938  0.0770 -0.3373 -0.0245
  848POPE   C3B11997   8.822   5.245   7.296  0.1618 -0.0651 -0.3595
  848POPE   C4B11998   8.896   5.120   7.660 -0.3333  0.0088  0.1403
  849POPE   NH311999   8.428   2.802   5.674  0.1001 -0.4547  0.5012
  849POPE   PO412000   8.603   2.513   5.630  0.0789  0.1491  0.1901
  849POPE   GL112001   8.575   2.373   5.973 -0.0698 -0.1197 -0.1920
  849POPE   GL212002   8.955   2.568   6.089  0.2627  0.2679  0.1837
  849POPE   C1A12003   8.402   2.113   6.246 -0.2018 -0.0117 -0.2107
  849POPE   D2A12004   8.185   1.974   6.628 -0.1562  0.4044  0.0894
  849POPE   C3A12005   8.266   1.559   6.788  0.0199 -0.1131 -0.2830
  849POPE   C4A12006   8.353   1.172   6.872 -0.1738  0.0005 -0.4054
  849POPE   C1B12007   8.775   2.487   6.491 -0.1916 -0.1950 -0.1492
  849POPE   C2B12008   8.587   2.336   6.801 -0.0895 -0.1110 -0.1198
  849POPE   C3B12009   8.382   2.228   7.190  0.0027  0.3999  0.1335
  849POPE   C4B12010   7.976   2.256   7.551  0.0769  0.2033  0.0068
  850POPE   NH312011   4.501   0.851   5.760  0.0199  0.1144 -0.1784
  850POPE   PO412012   4.439   1.128   5.483 -0.1282 -0.3495 -0.1662
  850POPE   GL112013   4.367   1.301   5.898 -0.1369 -0.2945 -0.2239
  850POPE   GL212014   4.700   1.174   6.091 -0.0029  0.0203 -0.2692
  850POPE   C1A12015   4.225   1.157   6.294  0.0063  0.1074 -0.0423
  850POPE   D2A12016   4.071   0.845   6.641 -0.2596 -0.2522 -0.2517
  850POPE   C3A12017   3.898   0.924   6.932  0.1565 -0.0294 -0.0100
  850POPE   C4A12018   3.843   0.877   7.375  0.1281  0.1339  0.4866
  850POPE   C1B12019   4.695   1.465   6.517  0.0966  0.0300  0.1929
  850POPE   C2B12020   4.526   1.648   6.840 -0.0158 -0.1649 -0.2211
  850POPE   C3B12021   4.671   1.836   7.177 -0.3263 -0.1123 -0.1516
  850POPE   C4B12022   4.949   1.666   7.420  0.1901  0.3171  0.1598
  851POPE   NH312023   7.562  14.535   5.952  0.1420  0.1224 -0.4184
  851POPE   PO412024   7.960  14.306   5.895 -0.0766 -0.0740  0.1484
  851POPE   GL112025   7.834  14.413   6.346 -0.2947 -0.0787 -0.2631
  851POPE   GL212026   7.825  14.168   6.577  0.0821 -0.2467  0.4621
  851POPE   C1A12027   7.723  14.628   6.746  0.0491  0.0308 -0.0985
  851POPE   D2A12028   7.925  14.560   7.201 -0.0524 -0.2879 -0.0692
  851POPE   C3A12029   7.881  14.711   7.560  0.1600 -0.0926 -0.0191
  851POPE   C4A12030   8.010  14.828   7.984  0.0182  0.3450 -0.1052
  851POPE   C1B12031   7.730  14.154   6.989 -0.4793 -0.0445 -0.1813
  851POPE   C2B12032   7.603  14.158   7.371  0.1203 -0.1975  0.1958
  851POPE   C3B12033   7.212  14.177   7.553  0.1624 -0.3697 -0.0047
  851POPE   C4B12034   6.861  14.450   7.455  0.1972 -0.0939  0.1522
  852POPE   NH312035  17.380   0.864   6.086 -0.2348  0.1550 -0.3259
  852POPE   PO412036  17.158   1.088   6.423 -0.1911  0.1192 -0.2646
  852POPE   GL112037  17.047   1.141   6.839 -0.3122 -0.3125 -0.0302
  852POPE   GL212038  16.901   0.922   6.837  0.2655  0.1008  0.1104
  852POPE   C1A12039  16.929   1.235   7.200 -0.1510  0.3060  0.0791
  852POPE   D2A12040  16.864   1.078   7.551 -0.2581  0.1822 -0.1451
  852POPE   C3A12041  16.653   0.648   7.726 -0.2730 -0.2751 -0.1972
  852POPE   C4A12042  16.719   0.178   7.727 -0.1241 -0.0959  0.3038
  852POPE   C1B12043  16.927   0.675   7.167 -0.2726 -0.1778 -0.2093
  852POPE   C2B12044  17.068   0.463   7.573 -0.3231 -0.1405 -0.1958
  852POPE   C3B12045  17.310   0.310   7.882 -0.3188  0.1074  0.0901
  852POPE   C4B12046  17.588   0.113   8.159  0.2428  0.3780 -0.2820
  853POPE   NH312047  10.021  12.349   5.570 -0.1084 -0.0265  0.0545
  853POPE   PO412048   9.672  12.111   5.769 -0.0950 -0.0852  0.0619
  853POPE   GL112049   9.860  11.912   6.125 -0.2192 -0.0538 -0.2425
  853POPE   GL212050   9.612  11.778   6.259 -0.1702 -0.1414  0.0740
  853POPE   C1A12051  10.054  11.884   6.510  0.1636 -0.3267 -0.0148
  853POPE   D2A12052  10.103  11.779   6.869 -0.0802 -0.1487 -0.2827
  853POPE   C3A12053  10.133  11.550   7.240 -0.0679 -0.1620 -0.2919
  853POPE   C4A12054  10.065  11.604   7.752  0.1588 -0.1096  0.0780
  853POPE   C1B12055   9.583  11.779   6.679  0.0707 -0.1226  0.3224
  853POPE   C2B12056   9.643  11.809   7.060  0.0704 -0.0686  0.2699
  853POPE   C3B12057   9.568  11.663   7.430 -0.0961  0.1028 -0.1780
  853POPE   C4B12058   9.574  11.720   7.893 -0.0649 -0.0579  0.1475
  854POPE   NH312059  17.340  16.915   5.674 -0.0625  0.0044  0.1114
  854POPE   PO412060  17.245  16.413   5.733 -0.0369  0.0865  0.0097
  854POPE   GL112061  17.186  16.428   6.184 -0.1475  0.0778 -0.2295
  854POPE   GL212062  17.430  16.165   6.345  0.6845 -0.3624  0.0556
  854POPE   C1A12063  17.286  16.678   6.563 -0.1753 -0.2215 -0.0776
  854POPE   D2A12064  17.181  16.835   6.927 -0.2449 -0.0143 -0.2117
  854POPE   C3A12065  17.159  16.678   7.379 -0.1926 -0.1047  0.0957
  854POPE   C4A12066  17.092  16.501   7.734  0.0277 -0.0298  0.3010
  854POPE   C1B12067  17.662  16.078   6.781 -0.1195 -0.0690 -0.0023
  854POPE   C2B12068  17.745  16.120   7.081  0.1962  0.0644  0.2161
  854POPE   C3B12069  17.750  15.891   7.391  0.0426  0.0204  0.1943
  854POPE   C4B12070  17.450  15.710   7.696 -0.0818 -0.2436 -0.1231
  855POPE   NH312071  13.045  16.671   6.227  0.0009  0.0461  0.1800
  855POPE   PO412072  12.789  16.962   6.320 -0.0900  0.1097 -0.0253
  855POPE   GL112073  12.511  17.050   6.759  0.1699 -0.0396 -0.1127
  855POPE   GL212074  12.275  16.729   6.806  0.0231 -0.0043  0.1681
  855POPE   C1A12075  12.401  16.973   7.258 -0.1935 -0.0822  0.1797
  855POPE   D2A12076  12.420  17.019   7.618 -0.2502  0.1550  0.0602
  855POPE   C3A12077  12.152  17.162   7.952 -0.0004  0.1353 -0.1749
  855POPE   C4A12078  11.825  17.064   8.303 -0.0287 -0.0414 -0.0547
  855POPE   C1B12079  12.462  16.436   7.044  0.0030 -0.0302  0.0538
  855POPE   C2B12080  12.650  16.136   7.298  0.0055 -0.1470 -0.1581
  855POPE   C3B12081  13.087  15.758   7.276  0.0101 -0.2452  0.2186
  855POPE   C4B12082  13.387  15.680   7.041  0.1215  0.1572 -0.3325
  856POPE   NH312083   4.300  11.550   5.544 -0.1925  0.0274 -0.3261
  856POPE   PO412084   4.627  11.200   5.559 -0.0410 -0.1663  0.0350
  856POPE   GL112085   4.751  11.499   5.767  0.0037 -0.2306  0.1419
  856POPE   GL212086   4.614  11.597   6.027  0.1073  0.0399 -0.2110
  856POPE   C1A12087   5.082  11.533   6.132 -0.1794 -0.0143 -0.1892
  856POPE   D2A12088   5.099  11.711   6.560 -0.1636  0.2802  0.3148
  856POPE   C3A12089   4.945  11.334   6.767 -0.0985 -0.1504  0.5074
  856POPE   C4A12090   4.955  11.192   7.151  0.2363 -0.0906  0.2211
  856POPE   C1B12091   4.633  11.686   6.444 -0.2722 -0.0233  0.1668
  856POPE   C2B12092   4.734  11.916   6.903 -0.2426  0.1318 -0.0979
  856POPE   C3B12093   4.871  12.021   7.312  0.1705 -0.1985  0.0987
  856POPE   C4B12094   5.002  11.907   7.652  0.3592 -0.2898  0.3629
  857POPE   NH312095  17.002   2.903   6.184 -0.0272 -0.4181 -0.2120
  857POPE   PO412096  17.107   2.514   6.084  0.1521 -0.2336 -0.3174
  857POPE   GL112097  16.858   2.367   6.428  0.0093 -0.0072  0.0841
  857POPE   GL212098  16.540   2.351   6.553 -0.1065  0.1247  0.0990
  857POPE   C1A12099  17.165   2.333   6.833  0.2840 -0.0381 -0.2145
  857POPE   D2A12100  17.554   2.382   6.953 -0.1148 -0.1137 -0.0691
  857POPE   C3A12101  17.761   2.373   7.333  0.3413 -0.2876 -0.1941
  857POPE   C4A12102  17.627   2.236   7.808  0.1051 -0.0757  0.0321
  857POPE   C1B12103  16.757   2.631   6.975  0.3655  0.0510 -0.1583
  857POPE   C2B12104  16.663   2.617   7.378 -0.1620  0.2096  0.2955
  857POPE   C3B12105  16.778   2.806   7.730  0.0816 -0.4577 -0.0156
  857POPE   C4B12106  16.514   2.753   8.021  0.2089  0.0818 -0.2869
  858POPE   NH312107  13.597  10.272   4.976 -0.1100 -0.1641 -0.4682
  858POPE   PO412108  13.491  10.133   5.369  0.0779 -0.0835  0.1680
  858POPE   GL112109  13.481   9.842   5.708  0.0882 -0.3113 -0.0028
  858POPE   GL212110  13.307   9.619   5.667  0.1438  0.2158  0.1647
  858POPE   C1A12111  13.568   9.739   6.198 -0.0824  0.2857  0.0086
  858POPE   D2A12112  13.523   9.496   6.652 -0.2475 -0.1603  0.1286
  858POPE   C3A12113  13.286   9.720   6.985  0.2914  0.0953 -0.1661
  858POPE   C4A12114  13.112  10.124   7.047  0.0281 -0.0899  0.3403
  858POPE   C1B12115  13.072   9.315   6.078  0.3320 -0.1493  0.1297
  858POPE   C2B12116  13.056   9.454   6.526  0.0642  0.2912 -0.4029
  858POPE   C3B12117  13.066   9.244   7.012 -0.0996 -0.3442 -0.0435
  858POPE   C4B12118  12.987   9.128   7.403  0.2821 -0.1467 -0.0505
  859POPE   NH312119  17.745  15.054   5.801 -0.3643  0.0538  0.0083
  859POPE   PO412120  17.352  14.914   5.984  0.1715  0.1769  0.0659
  859POPE   GL112121  17.262  14.606   6.228 -0.1686  0.0675  0.0060
  859POPE   GL212122  17.020  14.823   6.396  0.0870  0.0054 -0.0047
  859POPE   C1A12123  17.480  14.298   6.384 -0.0904 -0.0570 -0.0438
  859POPE   D2A12124  17.611  14.080   6.692  0.0222 -0.4144  0.0038
  859POPE   C3A12125  17.418  13.866   7.049 -0.0593  0.1339 -0.1599
  859POPE   C4A12126  17.426  13.703   7.450  0.0281 -0.0701  0.1124
  859POPE   C1B12127  17.147  14.524   6.736 -0.1115  0.1925 -0.0511
  859POPE   C2B12128  17.238  14.294   7.140 -0.1825  0.1063  0.1494
  859POPE   C3B12129  17.143  14.070   7.516  0.2068 -0.0056 -0.1513
  859POPE   C4B12130  17.339  13.947   7.896  0.1150  0.0374  0.1619
  860POPE   NH312131  14.265   8.979   5.330 -0.4165 -0.1825 -0.0006
  860POPE   PO412132  14.323   9.388   5.625  0.1816 -0.0473 -0.1300
  860POPE   GL112133  14.495   9.482   6.100  0.1410  0.0138  0.1500
  860POPE   GL212134  14.721   9.327   6.275 -0.3905 -0.1995  0.0027
  860POPE   C1A12135  14.301   9.523   6.452  0.3576  0.0466  0.3069
  860POPE   D2A12136  14.342   9.827   6.733  0.3949 -0.3457  0.0219
  860POPE   C3A12137  14.392   9.552   7.186 -0.1126 -0.2004  0.2533
  860POPE   C4A12138  14.250   9.429   7.686 -0.1984 -0.1499 -0.2997
  860POPE   C1B12139  14.941   9.429   6.604 -0.2492 -0.0883  0.1067
  860POPE   C2B12140  14.832   9.681   6.911  0.3979  0.2704  0.2256
  860POPE   C3B12141  14.843   9.637   7.327 -0.0659  0.1244  0.0455
  860POPE   C4B12142  14.994   9.626   7.712  0.0391  0.2224  0.3285
  861POPE   NH312143   5.776  17.568   5.771  0.1308  0.0722 -0.1632
  861POPE   PO412144   5.908  17.137   5.735 -0.0451  0.1425  0.2115
  861POPE   GL112145   5.730  17.236   6.197 -0.1400  0.3054 -0.2099
  861POPE   GL212146   5.367  17.204   6.334  0.2721 -0.0297 -0.0802
  861POPE   C1A12147   5.941  17.533   6.402  0.0656  0.3171 -0.0450
  861POPE   D2A12148   5.969  17.683   6.765 -0.0300 -0.0200  0.0856
  861POPE   C3A12149   5.654  17.523   7.135  0.0106 -0.3664  0.2754
  861POPE   C4A12150   5.616  17.748   7.515 -0.1649  0.3090  0.0853
  861POPE   C1B12151   5.581  17.203   6.729  0.1037  0.0782 -0.1584
  861POPE   C2B12152   5.620  16.965   7.127  0.1935  0.3653 -0.0678
  861POPE   C3B12153   5.951  16.870   7.474  0.2354  0.0401 -0.3061
  861POPE   C4B12154   6.276  17.079   7.777 -0.0378 -0.1801 -0.1247
  862POPE   NH312155   2.633   4.923   6.219 -0.2346 -0.0050 -0.1196
  862POPE   PO412156   2.995   5.062   6.032  0.0382 -0.1546 -0.0721
  862POPE   GL112157   3.171   4.928   6.434 -0.0550  0.0258  0.0576
  862POPE   GL212158   3.428   5.120   6.614  0.0742  0.0184 -0.2013
  862POPE   C1A12159   3.115   4.733   6.851 -0.0789  0.1974 -0.2258
  862POPE   D2A12160   3.052   4.625   7.174 -0.1243 -0.2562  0.3979
  862POPE   C3A12161   2.743   4.328   7.177  0.0709  0.0169 -0.4918
  862POPE   C4A12162   2.408   4.291   7.014  0.1008  0.0275 -0.1316
  862POPE   C1B12163   3.492   5.025   6.974  0.0791  0.2388 -0.1772
  862POPE   C2B12164   3.529   4.947   7.561  0.1077 -0.3314  0.0919
  862POPE   C3B12165   3.471   5.247   7.945  0.0363  0.1765  0.0581
  862POPE   C4B12166   3.698   5.329   8.288 -0.0323  0.0074  0.0781
  863POPE   NH312167   2.435  17.582   5.793 -0.2295 -0.1707  0.1175
  863POPE   PO412168   2.741  17.766   5.865  0.1703 -0.1932  0.2190
  863POPE   GL112169   2.640  17.682   6.327  0.1102 -0.2078  0.1568
  863POPE   GL212170   2.377  17.712   6.340  0.3282  0.0935  0.2383
  863POPE   C1A12171   2.828  17.294   6.601  0.1561  0.1086 -0.3302
  863POPE   D2A12172   2.675  17.087   6.952  0.1951 -0.0778 -0.0008
  863POPE   C3A12173   3.012  17.072   7.195  0.0977 -0.0529 -0.1672
  863POPE   C4A12174   3.093  16.719   7.473  0.1293  0.2159  0.2449
  863POPE   C1B12175   2.236  17.411   6.608  0.0115  0.0827  0.0890
  863POPE   C2B12176   2.203  17.452   7.039  0.1157  0.2121  0.4088
  863POPE   C3B12177   2.225  17.547   7.403 -0.3286 -0.0271 -0.1877
  863POPE   C4B12178   2.183  17.826   7.730  0.1406  0.1079  0.1799
  864POPE   NH312179  18.018   2.180   6.348  0.0962  0.1647  0.2052
  864POPE   PO412180  17.765   1.861   6.315 -0.1790 -0.0064 -0.0102
  864POPE   GL112181  17.619   1.700   6.676 -0.0907 -0.2042  0.0062
  864POPE   GL212182  17.517   1.329   6.677  0.1326  0.2181 -0.2289
  864POPE   C1A12183  17.388   1.904   6.994  0.2334  0.0943 -0.1380
  864POPE   D2A12184  17.279   2.032   7.513  0.0475 -0.1206  0.1783
  864POPE   C3A12185  17.316   1.775   7.872  0.2507 -0.0354  0.2325
  864POPE   C4A12186  17.415   2.145   8.294 -0.2487 -0.2673  0.1009
  864POPE   C1B12187  17.466   1.434   7.070  0.2376  0.1005 -0.1631
  864POPE   C2B12188  17.333   1.440   7.412  0.0796 -0.0961  0.0035
  864POPE   C3B12189  17.520   1.368   7.741  0.0926  0.2068 -0.3740
  864POPE   C4B12190  17.602   1.172   8.044 -0.0471 -0.0399 -0.2610
  865POPE   NH312191   2.736  15.631   5.649 -0.1274  0.0156  0.0264
  865POPE   PO412192   3.133  15.562   5.742 -0.0523 -0.0162 -0.0036
  865POPE   GL112193   3.361  15.697   6.144 -0.2641 -0.1164  0.3279
  865POPE   GL212194   3.509  15.462   6.235  0.1702  0.2533  0.3096
  865POPE   C1A12195   3.267  15.663   6.654 -0.1865 -0.0112  0.0032
  865POPE   D2A12196   3.310  15.848   6.899  0.1912 -0.0298 -0.1345
  865POPE   C3A12197   3.445  16.150   6.861  0.0521  0.1025  0.0454
  865POPE   C4A12198   3.799  16.341   6.812  0.1592 -0.1267  0.0171
  865POPE   C1B12199   3.691  15.404   6.708  0.1300 -0.0518 -0.3172
  865POPE   C2B12200   3.662  15.412   7.241 -0.1561 -0.0700  0.2433
  865POPE   C3B12201   3.599  15.489   7.682 -0.0632 -0.0852  0.0497
  865POPE   C4B12202   3.352  15.615   8.013 -0.3578  0.1527  0.0309
  866POPE   NH312203   6.227  11.994   5.939 -0.0148 -0.1945  0.1223
  866POPE   PO412204   6.179  12.458   5.757 -0.0237  0.0381  0.2420
  866POPE   GL112205   6.167  12.500   6.139 -0.2318  0.1149 -0.2492
  866POPE   GL212206   6.535  12.524   6.303 -0.1499 -0.3778 -0.3218
  866POPE   C1A12207   6.145  12.621   6.596 -0.1213 -0.1582 -0.0242
  866POPE   D2A12208   6.180  12.456   7.048  0.1690 -0.0765 -0.0431
  866POPE   C3A12209   5.884  12.439   7.410 -0.0027  0.1906 -0.2939
  866POPE   C4A12210   5.636  12.085   7.609 -0.4861 -0.0636  0.0360
  866POPE   C1B12211   6.920  12.520   6.686  0.1190  0.2257  0.2321
  866POPE   C2B12212   7.047  12.663   7.128 -0.0302 -0.0953  0.1263
  866POPE   C3B12213   7.052  12.684   7.601  0.2248 -0.0896 -0.2060
  866POPE   C4B12214   6.953  12.649   8.077  0.1053  0.2419  0.0590
  867POPE   NH312215  17.411  15.164   5.458  0.2514 -0.1595  0.0173
  867POPE   PO412216  17.427  15.441   5.819 -0.1854  0.0471 -0.0354
  867POPE   GL112217  17.462  15.392   6.221 -0.1239  0.2829  0.1390
  867POPE   GL212218  17.304  15.217   6.489  0.1084  0.1136  0.0241
  867POPE   C1A12219  17.477  15.722   6.500  0.1899  0.0978 -0.1488
  867POPE   D2A12220  17.185  16.026   6.733  0.2252 -0.0498  0.4065
  867POPE   C3A12221  17.302  16.288   7.024 -0.0753  0.1540  0.0832
  867POPE   C4A12222  17.445  16.256   7.419 -0.0315  0.0901 -0.2039
  867POPE   C1B12223  17.692  15.296   6.684  0.0652  0.0314  0.1782
  867POPE   C2B12224  17.621  15.624   7.001 -0.0279 -0.0108 -0.1868
  867POPE   C3B12225  17.180  15.760   7.212  0.1700 -0.0904  0.0488
  867POPE   C4B12226  16.881  16.148   7.291 -0.0246 -0.1150 -0.0204
  868POPE   NH312227   8.906  11.065   5.632  0.1626  0.0929 -0.2463
  868POPE   PO412228   8.843  10.572   5.831  0.0218  0.0972  0.2308
  868POPE   GL112229   8.760  10.431   6.226 -0.0404  0.2183 -0.0288
  868POPE   GL212230   8.555  10.644   6.321 -0.1220 -0.0107  0.2344
  868POPE   C1A12231   8.787  10.423   6.717  0.2668 -0.1305  0.0386
  868POPE   D2A12232   9.056  10.577   6.959 -0.0592 -0.0284  0.0983
  868POPE   C3A12233   9.226  10.253   7.238  0.0076  0.0791  0.2156
  868POPE   C4A12234   9.256   9.768   7.370 -0.2321 -0.0733  0.1482
  868POPE   C1B12235   8.376  10.698   6.661  0.3036  0.0106  0.0228
  868POPE   C2B12236   8.483  10.694   7.097  0.0086 -0.1623 -0.1027
  868POPE   C3B12237   8.299  10.478   7.473 -0.5156  0.2215  0.2045
  868POPE   C4B12238   8.311  10.275   7.860  0.1085 -0.3201 -0.2433
  869POPE   NH312239   2.875  15.065   5.480 -0.0873 -0.0042  0.0470
  869POPE   PO412240   2.460  15.163   5.683  0.0595  0.1205 -0.1031
  869POPE   GL112241   2.378  15.404   6.073  0.0021 -0.2318  0.0799
  869POPE   GL212242   2.605  15.526   6.101  0.0136  0.1582 -0.0943
  869POPE   C1A12243   2.358  15.285   6.495 -0.0981 -0.0778  0.3350
  869POPE   D2A12244   2.234  15.162   6.859 -0.2991 -0.1050 -0.1516
  869POPE   C3A12245   1.857  15.248   7.004 -0.2150 -0.1476  0.0797
  869POPE   C4A12246   1.845  15.565   7.299  0.0352  0.1741  0.0439
  869POPE   C1B12247   2.811  15.524   6.380 -0.1447 -0.1235 -0.2047
  869POPE   C2B12248   2.805  15.615   6.789  0.0191 -0.0403  0.2786
  869POPE   C3B12249   2.677  15.778   7.200 -0.1434  0.0146 -0.0270
  869POPE   C4B12250   2.561  15.672   7.654 -0.1196  0.1956  0.0567
  870POPE   NH312251   0.281  14.838   5.997  0.2522  0.3729 -0.2405
  870POPE   PO412252   0.688  14.702   6.031  0.0527 -0.2657 -0.3431
  870POPE   GL112253   0.476  14.584   6.444  0.1278 -0.3783 -0.0860
  870POPE   GL212254   0.161  14.518   6.371 -0.1687 -0.0368  0.1939
  870POPE   C1A12255   0.425  14.675   6.846  0.5092  0.0826 -0.1792
  870POPE   D2A12256   0.262  15.069   7.064  0.0028 -0.1141  0.3462
  870POPE   C3A12257   0.453  15.002   7.428  0.2410  0.0810  0.0421
  870POPE   C4A12258   0.567  14.974   7.905 -0.0751 -0.0529  0.0072
  870POPE   C1B12259   0.030  14.786   6.637 -0.0861 -0.4294  0.0079
  870POPE   C2B12260  -0.227  14.927   6.865  0.1027 -0.0551 -0.1482
  870POPE   C3B12261  -0.569  15.137   7.148 -0.0674 -0.0392  0.2231
  870POPE   C4B12262  -0.979  15.281   7.369 -0.1239  0.1725  0.1346
  871POPE   NH312263  15.800   9.792   5.644  0.2938 -0.0331 -0.1071
  871POPE   PO412264  16.290   9.657   5.606 -0.0779  0.0760  0.1242
  871POPE   GL112265  16.188   9.548   5.960 -0.0046  0.1530 -0.2456
  871POPE   GL212266  16.047   9.649   6.267 -0.1289 -0.3250 -0.2862
  871POPE   C1A12267  16.239   9.216   6.194 -0.0749 -0.0217 -0.3006
  871POPE   D2A12268  16.614   9.146   6.424  0.1602 -0.2544 -0.1759
  871POPE   C3A12269  16.531   9.131   6.835 -0.1634 -0.2054  0.1099
  871POPE   C4A12270  16.300   8.912   7.109 -0.0152 -0.1163 -0.0157
  871POPE   C1B12271  16.072   9.948   6.618 -0.1458  0.0065  0.1261
  871POPE   C2B12272  16.235  10.156   7.006  0.1172 -0.1014 -0.1689
  871POPE   C3B12273  16.688  10.157   7.292  0.0494 -0.1080  0.0138
  871POPE   C4B12274  16.874  10.121   7.733 -0.0568 -0.0217 -0.1292
  872YOPE   NH312275   2.860  13.483   5.721  0.1017 -0.1641  0.1992
  872YOPE   PO412276   2.748  13.084   5.716 -0.1173  0.2682 -0.0016
  872YOPE   GL112277   2.456  12.875   6.072  0.1233  0.0669 -0.0201
  872YOPE   GL212278   2.219  12.605   6.070 -0.4801 -0.1151 -0.1522
  872YOPE   C1A12279   2.430  12.840   6.472  0.0399  0.4985 -0.3177
  872YOPE   D2A12280   2.508  12.736   6.819 -0.1490  0.1150  0.0303
  872YOPE   C3A12281   2.244  12.996   7.099  0.0013 -0.2076 -0.0239
  872YOPE   C4A12282   1.969  13.261   7.382 -0.2043 -0.1731 -0.1467
  872YOPE   C1B12283   2.087  12.463   6.455 -0.0963 -0.1578  0.0499
  872YOPE   C2B12284   1.967  12.533   6.919  0.3136 -0.2387 -0.0693
  872YOPE   D3B12285   1.856  12.520   7.348  0.0006  0.2332 -0.1242
  872YOPE   C4B12286   1.524  12.579   7.760  0.1367 -0.0714  0.4690
  873YOPE   NH312287   7.355  15.888   6.027  0.0720  0.0290  0.4340
  873YOPE   PO412288   7.151  16.427   5.875  0.0196  0.0825  0.2682
  873YOPE   GL112289   7.017  16.589   6.264 -0.0145  0.1117  0.0950
  873YOPE   GL212290   6.833  16.673   6.195  0.4014  0.0536 -0.2677
  873YOPE   C1A12291   7.277  16.342   6.587 -0.1735  0.2860 -0.5748
  873YOPE   D2A12292   7.587  15.999   6.866 -0.0085  0.1813  0.0829
  873YOPE   C3A12293   7.604  16.056   7.272 -0.0539  0.0931  0.0672
  873YOPE   C4A12294   7.574  15.856   7.720 -0.3684 -0.2466  0.0632
  873YOPE   C1B12295   6.831  16.650   6.744  0.2265  0.1533  0.2467
  873YOPE   C2B12296   6.867  16.834   7.059 -0.2303 -0.0361 -0.1685
  873YOPE   D3B12297   6.958  16.987   7.517  0.3930  0.1814 -0.2823
  873YOPE   C4B12298   6.762  17.023   7.892 -0.5232  0.2853  0.1278
  874YOPE   NH312299  17.628   0.045   5.987  0.0757  0.0824  0.1967
  874YOPE   PO412300  17.206   0.301   6.011  0.2476  0.2673 -0.0663
  874YOPE   GL112301  17.168   0.075   6.414 -0.0026 -0.0856  0.3165
  874YOPE   GL212302  17.274  -0.136   6.282 -0.2132 -0.0342 -0.2638
  874YOPE   C1A12303  17.249   0.324   6.752 -0.1753  0.1339  0.2724
  874YOPE   D2A12304  17.316   0.370   7.041  0.1179 -0.1374  0.0300
  874YOPE   C3A12305  17.473   0.275   7.316 -0.2596  0.1838 -0.2168
  874YOPE   C4A12306  17.798   0.387   7.562 -0.2855 -0.4093 -0.1969
  874YOPE   C1B12307  17.186  -0.520   6.466 -0.0774  0.1279  0.0372
  874YOPE   C2B12308  17.287  -0.858   6.833 -0.0714  0.1040 -0.0007
  874YOPE   D3B12309  17.235  -0.859   7.248  0.1109 -0.3118 -0.0319
  874YOPE   C4B12310  17.236  -0.645   7.579 -0.0049 -0.1114 -0.4401
  875YOPE   NH312311   5.367   7.539   5.751 -0.0406  0.1310 -0.2616
  875YOPE   PO412312   5.469   7.197   5.799 -0.1763  0.1533 -0.1189
  875YOPE   GL112313   5.257   7.054   6.191  0.0262 -0.1221  0.1761
  875YOPE   GL212314   4.894   6.933   6.329 -0.2893  0.1688 -0.2138
  875YOPE   C1A12315   5.497   7.073   6.647  0.3331  0.0792 -0.3613
  875YOPE   D2A12316   5.341   7.062   7.046 -0.0414 -0.0842  0.0481
  875YOPE   C3A12317   5.556   7.058   7.346 -0.0707 -0.2181 -0.1522
  875YOPE   C4A12318   5.496   6.876   7.789 -0.1222  0.0083  0.2156
  875YOPE   C1B12319   4.878   6.918   6.685 -0.2265 -0.0321  0.1802
  875YOPE   C2B12320   4.802   6.872   7.122 -0.0620 -0.1639  0.1856
  875YOPE   D3B12321   4.602   6.803   7.557  0.1668 -0.1249 -0.0955
  875YOPE   C4B12322   4.584   7.149   7.812  0.0234  0.4250 -0.0571
  876YOPE   NH312323  13.184   7.940   5.506 -0.1139  0.0307  0.1936
  876YOPE   PO412324  12.772   8.041   5.548 -0.0229 -0.1765  0.3278
  876YOPE   GL112325  12.860   8.329   5.894  0.1215  0.1757 -0.0012
  876YOPE   GL212326  13.269   8.226   5.940  0.0017  0.3017 -0.0474
  876YOPE   C1A12327  12.708   8.470   6.337  0.2305 -0.2777  0.2590
  876YOPE   D2A12328  12.748   8.499   6.829  0.1714 -0.1201 -0.3652
  876YOPE   C3A12329  12.643   8.769   7.033 -0.3934 -0.3949 -0.4536
  876YOPE   C4A12330  12.389   8.689   7.362 -0.0597 -0.0638  0.2771
  876YOPE   C1B12331  13.263   8.371   6.370 -0.3785  0.1154 -0.1191
  876YOPE   C2B12332  13.276   8.596   6.719 -0.0410 -0.1439  0.0511
  876YOPE   D3B12333  13.240   8.688   7.201 -0.1146 -0.1541  0.1820
  876YOPE   C4B12334  13.478   8.962   7.608  0.0237 -0.0581 -0.3186
  877YOPE   NH312335  15.208   9.415   6.013  0.1097  0.1652 -0.0561
  877YOPE   PO412336  15.101   9.877   5.782  0.0357 -0.0751  0.0502
  877YOPE   GL112337  14.955   9.805   6.181  0.2693  0.0616  0.1700
  877YOPE   GL212338  14.701   9.880   6.367 -0.3786 -0.0493 -0.0528
  877YOPE   C1A12339  15.130   9.881   6.585  0.0329  0.0440  0.0278
  877YOPE   D2A12340  15.034  10.043   7.055  0.1105  0.1442 -0.0350
  877YOPE   C3A12341  14.606  10.053   7.105 -0.1274  0.2336  0.1419
  877YOPE   C4A12342  14.287  10.190   7.448  0.1725 -0.0143  0.1398
  877YOPE   C1B12343  14.767  10.277   6.662  0.0070  0.1695  0.1686
  877YOPE   C2B12344  15.135  10.441   6.684 -0.0735  0.0779 -0.5842
  877YOPE   D3B12345  15.300  10.571   7.099  0.0409  0.2501  0.1221
  877YOPE   C4B12346  15.232  10.529   7.641 -0.2456 -0.1103 -0.1183
  878YOPE   NH312347   3.255   3.480   6.096  0.2402 -0.0752 -0.3742
  878YOPE   PO412348   3.509   3.642   5.753 -0.0309 -0.1648  0.1502
  878YOPE   GL112349   3.692   3.693   6.174 -0.3295  0.0284  0.0352
  878YOPE   GL212350   3.984   3.781   6.067  0.1705  0.2082 -0.0011
  878YOPE   C1A12351   3.678   3.356   6.590  0.2643  0.2279  0.1629
  878YOPE   D2A12352   3.811   2.988   6.904 -0.2522  0.0673 -0.6102
  878YOPE   C3A12353   3.600   2.856   7.135  0.1294 -0.1647 -0.1536
  878YOPE   C4A12354   3.539   2.907   7.620 -0.1035 -0.1678  0.0194
  878YOPE   C1B12355   4.056   3.759   6.559  0.1068  0.3222 -0.1132
  878YOPE   C2B12356   4.103   3.691   7.041 -0.1808  0.1131 -0.1235
  878YOPE   D3B12357   4.319   3.675   7.429  0.2138  0.0487 -0.4035
  878YOPE   C4B12358   4.287   3.635   7.842 -0.3775 -0.3070 -0.0631
  879YOPE   NH312359   9.494  13.234   6.001  0.1798  0.1818 -0.0037
  879YOPE   PO412360   9.143  12.953   6.110 -0.1845 -0.0280 -0.2906
  879YOPE   GL112361   9.163  13.051   6.504 -0.0623 -0.3918  0.1289
  879YOPE   GL212362   9.398  13.300   6.522  0.0779 -0.0597  0.1386
  879YOPE   C1A12363   9.178  13.095   6.887  0.1824  0.1246  0.0204
  879YOPE   D2A12364   9.270  13.147   7.333 -0.4780 -0.3146 -0.3397
  879YOPE   C3A12365   8.873  13.257   7.514  0.0787  0.0260 -0.1904
  879YOPE   C4A12366   8.497  13.520   7.553 -0.2588 -0.1899  0.1504
  879YOPE   C1B12367   9.467  13.552   6.877  0.0806  0.0318  0.0521
  879YOPE   C2B12368   9.484  13.620   7.326  0.1731 -0.3413 -0.0762
  879YOPE   D3B12369   9.562  13.858   7.629  0.0185 -0.1915  0.1332
  879YOPE   C4B12370   9.538  13.830   8.096 -0.1174 -0.0852  0.1060
  880YOPE   NH312371   4.687  16.295   5.711  0.1020 -0.0047 -0.2267
  880YOPE   PO412372   4.592  15.926   5.815  0.3016 -0.3101 -0.2927
  880YOPE   GL112373   4.515  16.070   6.236 -0.2267 -0.1593  0.1271
  880YOPE   GL212374   4.664  16.265   6.341  0.1042 -0.2226  0.1495
  880YOPE   C1A12375   4.296  16.012   6.637 -0.0803  0.1286 -0.1223
  880YOPE   D2A12376   4.312  15.899   7.045 -0.0775 -0.1098 -0.1714
  880YOPE   C3A12377   4.612  15.782   7.086 -0.1338 -0.0505  0.1196
  880YOPE   C4A12378   4.938  15.828   7.418  0.0410 -0.0706 -0.3323
  880YOPE   C1B12379   4.717  16.218   6.743  0.3575  0.2462  0.0352
  880YOPE   C2B12380   4.636  16.280   7.197  0.2908  0.2534  0.3260
  880YOPE   D3B12381   4.511  16.007   7.568 -0.2602 -0.0556  0.1989
  880YOPE   C4B12382   4.624  15.661   7.813  0.0222 -0.1121 -0.0996
  881YOPE   NH312383   8.256  16.115   6.094  0.1829  0.2529  0.1774
  881YOPE   PO412384   8.592  16.355   6.087 -0.1637 -0.0149 -0.0915
  881YOPE   GL112385   8.864  16.425   6.449  0.3061  0.1577  0.1544
  881YOPE   GL212386   9.066  16.257   6.528  0.1915  0.0211 -0.0477
  881YOPE   C1A12387   8.861  16.716   6.824 -0.2082  0.0641 -0.0419
  881YOPE   D2A12388   8.909  16.541   7.283  0.3162  0.1652 -0.0831
  881YOPE   C3A12389   8.956  16.321   7.658  0.1553  0.0887 -0.0505
  881YOPE   C4A12390   9.162  16.378   8.053  0.1436 -0.0458 -0.1533
  881YOPE   C1B12391   9.234  16.338   6.880  0.1335  0.0098 -0.1766
  881YOPE   C2B12392   9.429  16.213   7.327 -0.0919 -0.0919  0.0252
  881YOPE   D3B12393   9.438  16.060   7.732  0.1009  0.0686  0.1493
  881YOPE   C4B12394   9.368  15.889   8.085  0.0159 -0.1291 -0.0118
  882YOPE   NH312395   7.548   6.844   5.760  0.0699  0.0660 -0.2319
  882YOPE   PO412396   7.590   6.506   5.968 -0.0193  0.1218 -0.0630
  882YOPE   GL112397   7.484   6.726   6.385 -0.3931  0.0401 -0.2754
  882YOPE   GL212398   7.233   6.771   6.485  0.0894  0.0657 -0.1159
  882YOPE   C1A12399   7.579   6.928   6.797 -0.1728 -0.0469  0.2047
  882YOPE   D2A12400   7.795   7.172   7.081  0.0269  0.2083  0.1220
  882YOPE   C3A12401   7.772   7.501   7.288 -0.1188  0.3321 -0.4138
  882YOPE   C4A12402   7.905   7.842   7.546 -0.0120 -0.2160  0.1657
  882YOPE   C1B12403   7.430   6.423   6.809  0.1442 -0.3275  0.0941
  882YOPE   C2B12404   7.268   6.203   7.223 -0.0309 -0.0894 -0.1192
  882YOPE   D3B12405   7.514   6.164   7.668 -0.0861 -0.1682 -0.1371
  882YOPE   C4B12406   7.699   6.313   8.161  0.0580 -0.1678  0.1273
  883YOPE   NH312407   1.781   1.968   6.152  0.0422 -0.0891 -0.1927
  883YOPE   PO412408   1.681   2.434   6.030  0.1003  0.2561 -0.4828
  883YOPE   GL112409   1.809   2.402   6.460 -0.1505 -0.0727 -0.1811
  883YOPE   GL212410   1.550   2.299   6.540 -0.1396 -0.0479 -0.1304
  883YOPE   C1A12411   1.711   2.586   6.918  0.4252 -0.0463 -0.1015
  883YOPE   D2A12412   1.411   2.429   7.255 -0.1376  0.1623 -0.2021
  883YOPE   C3A12413   1.025   2.457   7.422 -0.2009  0.2872  0.0253
  883YOPE   C4A12414   0.800   2.437   7.841 -0.2132 -0.2837  0.3109
  883YOPE   C1B12415   1.619   1.992   6.922  0.1084  0.1323 -0.0549
  883YOPE   C2B12416   1.560   1.663   7.106 -0.1096 -0.0373  0.1205
  883YOPE   D3B12417   1.529   1.386   7.443  0.0107 -0.2182 -0.3238
  883YOPE   C4B12418   1.726   0.956   7.383 -0.1037  0.1427  0.2665
  884YOPE   NH312419   4.471   1.611   5.556  0.1465  0.1627 -0.0599
  884YOPE   PO412420   4.284   1.765   5.849  0.3257 -0.2460 -0.0504
  884YOPE   GL112421   4.296   1.837   6.170 -0.2287 -0.0604 -0.0390
  884YOPE   GL212422   4.245   2.147   6.390  0.0099 -0.0476 -0.0090
  884YOPE   C1A12423   4.166   1.609   6.511  0.1687 -0.0372  0.1274
  884YOPE   D2A12424   4.140   1.321   6.834  0.1374 -0.1988  0.0960
  884YOPE   C3A12425   3.916   1.387   7.178 -0.1592 -0.1229 -0.2926
  884YOPE   C4A12426   3.996   1.407   7.618  0.3640  0.0871  0.4620
  884YOPE   C1B12427   4.079   2.016   6.861 -0.1264 -0.3362  0.1382
  884YOPE   C2B12428   4.219   2.166   7.235 -0.0697  0.0017 -0.0700
  884YOPE   D3B12429   4.271   2.275   7.639  0.1612 -0.0209 -0.2762
  884YOPE   C4B12430   4.501   2.565   7.947  0.2897  0.0614  0.0528
  885YOPE   NH312431   8.466   7.069   5.633  0.1410 -0.1968 -0.2683
  885YOPE   PO412432   8.762   6.762   5.896 -0.1503  0.0825 -0.3289
  885YOPE   GL112433   8.587   6.590   6.352 -0.0707 -0.1390  0.0931
  885YOPE   GL212434   8.413   6.806   6.393 -0.2876 -0.1583 -0.2893
  885YOPE   C1A12435   8.462   6.384   6.737 -0.0887 -0.1848 -0.0570
  885YOPE   D2A12436   8.377   6.534   7.214 -0.0863  0.0666 -0.2580
  885YOPE   C3A12437   8.596   6.586   7.509 -0.1474 -0.1915  0.0940
  885YOPE   C4A12438   9.036   6.559   7.651  0.3826  0.1604 -0.1091
  885YOPE   C1B12439   8.609   6.877   6.861 -0.0586  0.1430  0.0940
  885YOPE   C2B12440   8.835   6.977   7.309 -0.0678  0.0745  0.0265
  885YOPE   D3B12441   9.019   7.055   7.807  0.2143 -0.2789 -0.2476
  885YOPE   C4B12442   8.986   7.243   8.126 -0.3450  0.1779  0.0679
  886YOPE   NH312443  15.797   1.216   6.359  0.4106 -0.3004  0.0974
  886YOPE   PO412444  16.188   1.266   6.185  0.2752  0.2683 -0.0575
  886YOPE   GL112445  16.191   1.131   6.610  0.0137 -0.3127 -0.0125
  886YOPE   GL212446  16.360   0.920   6.704 -0.2494  0.1014  0.1191
  886YOPE   C1A12447  16.030   1.054   7.060 -0.3671  0.1066 -0.0747
  886YOPE   D2A12448  15.911   1.271   7.348 -0.3518 -0.0586 -0.0711
  886YOPE   C3A12449  15.897   1.087   7.770 -0.0822  0.3213 -0.0599
  886YOPE   C4A12450  15.963   0.995   8.315  0.0618 -0.2189  0.2656
  886YOPE   C1B12451  16.445   0.868   7.144 -0.2610 -0.2025 -0.5207
  886YOPE   C2B12452  16.350   0.960   7.520 -0.2164  0.0300  0.0915
  886YOPE   D3B12453  16.568   1.157   7.949 -0.1108  0.2769  0.2671
  886YOPE   C4B12454  16.420   1.280   8.394  0.0855  0.0106  0.0510
  887YOPE   NH312455   3.818   8.607   6.065  0.1747 -0.1643 -0.1607
  887YOPE   PO412456   4.164   8.574   6.027  0.0448 -0.0310 -0.0996
  887YOPE   GL112457   4.400   8.528   6.330  0.0345 -0.1952 -0.1348
  887YOPE   GL212458   4.367   8.182   6.463 -0.0063  0.0034 -0.1288
  887YOPE   C1A12459   4.452   8.770   6.713  0.3816  0.0520 -0.0873
  887YOPE   D2A12460   4.471   9.031   7.073  0.2392 -0.1909 -0.0155
  887YOPE   C3A12461   4.691   8.908   7.478 -0.1245  0.0847 -0.1668
  887YOPE   C4A12462   4.545   8.694   7.782  0.2587 -0.2069 -0.2634
  887YOPE   C1B12463   4.348   8.199   6.928  0.4018  0.0742 -0.1801
  887YOPE   C2B12464   4.628   8.060   7.325  0.0293 -0.0562  0.2006
  887YOPE   D3B12465   4.688   8.239   7.727  0.2707 -0.3606  0.1034
  887YOPE   C4B12466   4.926   8.435   8.073  0.1156 -0.0062  0.1386
  888YOPE   NH312467   0.683   2.391   6.148  0.3739 -0.2748 -0.1011
  888YOPE   PO412468   0.280   2.301   6.246 -0.0935  0.0449  0.1565
  888YOPE   GL112469   0.084   2.426   6.688  0.2575 -0.1911  0.0081
  888YOPE   GL212470  -0.169   2.560   6.843  0.4856  0.2364  0.2459
  888YOPE   C1A12471  -0.203   2.103   6.930 -0.0236 -0.2429 -0.3683
  888YOPE   D2A12472  -0.455   1.842   7.298  0.1247 -0.4258 -0.1557
  888YOPE   C3A12473  -0.394   1.802   7.847  0.0753  0.0188  0.2142
  888YOPE   C4A12474  -0.279   1.518   8.128 -0.3112  0.1312  0.1475
  888YOPE   C1B12475   0.013   2.508   7.240 -0.2841  0.0124  0.1509
  888YOPE   C2B12476   0.398   2.681   7.521  0.0411  0.0637 -0.3689
  888YOPE   D3B12477   0.549   2.874   7.941  0.0279  0.0251  0.0681
  888YOPE   C4B12478   0.595   2.935   8.426  0.0052  0.0583  0.1799
  889YOPE   NH312479   3.948  10.245   6.179  0.1614  0.1823  0.0937
  889YOPE   PO412480   3.704  10.002   6.010  0.1886  0.0366  0.0073
  889YOPE   GL112481   3.616   9.888   6.458 -0.3536 -0.0247 -0.2692
  889YOPE   GL212482   3.712   9.858   6.773 -0.1351 -0.1436 -0.2139
  889YOPE   C1A12483   3.429   9.476   6.829 -0.1445  0.1179  0.2410
  889YOPE   D2A12484   3.103   9.211   6.824  0.1885 -0.0241  0.0089
  889YOPE   C3A12485   3.234   8.852   6.991  0.1921  0.1501 -0.1638
  889YOPE   C4A12486   3.560   8.750   7.286 -0.1920 -0.0891 -0.2398
  889YOPE   C1B12487   3.298   9.871   7.047  0.0705  0.0918 -0.0455
  889YOPE   C2B12488   3.050   9.562   7.227  0.1326 -0.1166  0.1345
  889YOPE   D3B12489   2.993   9.522   7.578  0.0198 -0.2616  0.2178
  889YOPE   C4B12490   2.841   9.672   7.838  0.0636 -0.1594  0.1025
  890YOPE   NH312491  15.813  16.700   5.440 -0.1655 -0.2472  0.1052
  890YOPE   PO412492  15.988  16.796   5.769 -0.0986 -0.2811 -0.0492
  890YOPE   GL112493  15.852  16.754   6.202 -0.0862 -0.5427 -0.0389
  890YOPE   GL212494  15.888  16.443   6.204 -0.0312 -0.1526  0.0780
  890YOPE   C1A12495  15.799  17.012   6.570 -0.1055 -0.1606  0.1195
  890YOPE   D2A12496  15.647  17.309   6.817  0.3242 -0.0460 -0.0324
  890YOPE   C3A12497  15.731  17.391   7.225  0.0967  0.1321  0.2881
  890YOPE   C4A12498  15.747  17.518   7.636  0.1483 -0.1867 -0.0409
  890YOPE   C1B12499  16.135  16.640   6.614 -0.3192  0.0081  0.0406
  890YOPE   C2B12500  16.209  16.606   7.083  0.1381 -0.4674  0.2339
  890YOPE   D3B12501  16.119  16.782   7.465  0.0322  0.1537  0.0100
  890YOPE   C4B12502  16.063  17.049   7.842  0.1784  0.3756  0.3255
  891YOPE   NH312503   8.761  10.079   5.874  0.0571 -0.1330 -0.1368
  891YOPE   PO412504   9.218   9.903   5.810  0.0499 -0.0889  0.0020
  891YOPE   GL112505   9.149  10.187   6.126 -0.2565  0.0819  0.1215
  891YOPE   GL212506   8.976   9.961   6.348 -0.0605  0.0364  0.0528
  891YOPE   C1A12507   9.237  10.339   6.495  0.1099  0.2721 -0.2239
  891YOPE   D2A12508   9.500  10.342   6.842  0.1199 -0.0084  0.0171
  891YOPE   C3A12509   9.546   9.940   6.992  0.1609 -0.3050 -0.2119
  891YOPE   C4A12510   9.758   9.882   7.360 -0.0873 -0.0811 -0.3693
  891YOPE   C1B12511   9.284   9.769   6.498 -0.0056 -0.3081  0.1473
  891YOPE   C2B12512   9.325   9.499   6.819 -0.0712 -0.1134 -0.0522
  891YOPE   D3B12513   9.591   9.379   7.143  0.2045  0.0390  0.0498
  891YOPE   C4B12514   9.643   9.488   7.627 -0.1661 -0.1687  0.1241
  892YOPE   NH312515  12.935   1.541   5.321 -0.1189 -0.1965  0.2713
  892YOPE   PO412516  13.084   1.828   5.752  0.0683  0.2518 -0.2555
  892YOPE   GL112517  13.060   1.649   6.151  0.0691  0.1675 -0.0199
  892YOPE   GL212518  13.057   1.311   6.287 -0.3066  0.0925  0.0096
  892YOPE   C1A12519  13.206   1.703   6.603  0.0179 -0.0999 -0.0038
  892YOPE   D2A12520  13.232   1.484   7.054 -0.1091 -0.2890 -0.0292
  892YOPE   C3A12521  13.370   1.200   7.334  0.1334 -0.1403  0.2187
  892YOPE   C4A12522  13.377   1.186   7.696 -0.0565  0.0609  0.1919
  892YOPE   C1B12523  13.124   1.147   6.678  0.0036 -0.2405 -0.1022
  892YOPE   C2B12524  12.992   1.054   6.996 -0.1489 -0.0250 -0.3946
  892YOPE   D3B12525  12.900   1.006   7.392  0.2329  0.1871  0.1151
  892YOPE   C4B12526  13.008   0.890   7.816  0.0066 -0.0272  0.0499
  893YOPE   NH312527  16.408   1.722   6.150 -0.1363  0.2318  0.0788
  893YOPE   PO412528  16.184   2.116   6.125 -0.0485 -0.1690  0.2612
  893YOPE   GL112529  16.200   1.997   6.538 -0.1002  0.1266  0.2513
  893YOPE   GL212530  16.065   1.632   6.574 -0.0564  0.2504 -0.1838
  893YOPE   C1A12531  16.202   2.167   6.997  0.0718 -0.3062  0.0624
  893YOPE   D2A12532  16.448   2.123   7.373  0.3432 -0.1809 -0.2477
  893YOPE   C3A12533  16.431   1.986   7.769  0.1161 -0.1329  0.1719
  893YOPE   C4A12534  16.548   1.659   8.047  0.0271 -0.1374  0.0542
  893YOPE   C1B12535  15.835   1.548   6.940  0.0492  0.0691 -0.0220
  893YOPE   C2B12536  15.968   1.766   7.240  0.1893  0.2475  0.1402
  893YOPE   D3B12537  15.928   2.039   7.517  0.0665  0.1035 -0.1654
  893YOPE   C4B12538  15.662   2.015   7.875  0.1776 -0.2353 -0.3391
  894YOPE   NH312539  14.196   3.208   6.175 -0.4618  0.0981  0.0907
  894YOPE   PO412540  14.062   2.766   6.048  0.0316  0.2852  0.0808
  894YOPE   GL112541  14.267   2.822   6.497  0.0292  0.0862  0.0870
  894YOPE   GL212542  14.197   2.467   6.624 -0.1797 -0.0994  0.0693
  894YOPE   C1A12543  14.178   2.865   6.872  0.2275  0.1476 -0.0622
  894YOPE   D2A12544  13.988   2.791   7.185  0.3213 -0.0839 -0.1888
  894YOPE   C3A12545  13.756   2.502   7.362  0.3828 -0.0676 -0.2712
  894YOPE   C4A12546  13.816   2.188   7.623 -0.2269  0.0026  0.1112
  894YOPE   C1B12547  13.817   2.402   6.828 -0.0408  0.1505  0.0460
  894YOPE   C2B12548  13.443   2.383   7.022 -0.0216  0.0655 -0.0321
  894YOPE   D3B12549  13.296   2.524   7.438 -0.1941  0.2192  0.3497
  894YOPE   C4B12550  13.124   2.484   7.865 -0.1847 -0.0457  0.1055
  895YOPE   NH312551   7.960  13.876   6.129 -0.1241  0.2253 -0.2772
  895YOPE   PO412552   7.479  13.921   5.891 -0.6241 -0.0018 -0.2423
  895YOPE   GL112553   7.412  14.105   6.231 -0.1557 -0.0032  0.0431
  895YOPE   GL212554   7.168  13.930   6.393 -0.1261 -0.0310  0.1515
  895YOPE   C1A12555   7.334  14.300   6.650 -0.1526 -0.1054 -0.1480
  895YOPE   D2A12556   7.244  14.358   7.079  0.1561 -0.3060 -0.0102
  895YOPE   C3A12557   6.891  14.560   6.946  0.3244  0.1514 -0.0266
  895YOPE   C4A12558   6.627  14.778   6.568 -0.0038 -0.0379  0.0048
  895YOPE   C1B12559   6.896  14.019   6.717 -0.0338  0.1934 -0.3639
  895YOPE   C2B12560   6.589  14.260   6.727  0.4039 -0.1824 -0.0133
  895YOPE   D3B12561   6.159  14.325   6.745  0.0370  0.0613 -0.2317
  895YOPE   C4B12562   5.820  14.552   6.931 -0.0010  0.0680 -0.0447
  896YOPE   NH312563  15.188   0.456   6.245 -0.0575  0.3701  0.0085
  896YOPE   PO412564  14.861   0.807   6.249  0.1706  0.2562 -0.0216
  896YOPE   GL112565  15.006   0.724   6.639  0.1933 -0.1551 -0.0441
  896YOPE   GL212566  14.763   0.811   6.793 -0.1690 -0.1239  0.1684
  896YOPE   C1A12567  14.892   0.494   7.173 -0.3224 -0.0112  0.1037
  896YOPE   D2A12568  14.745   0.519   7.578  0.1726 -0.0491 -0.0909
  896YOPE   C3A12569  14.892   0.726   7.887 -0.0676 -0.2716 -0.1451
  896YOPE   C4A12570  15.085   0.668   8.292 -0.2256 -0.0649 -0.2892
  896YOPE   C1B12571  14.472   0.797   7.180 -0.0612 -0.2171 -0.0934
  896YOPE   C2B12572  14.355   0.793   7.659  0.1576 -0.1206  0.4133
  896YOPE   D3B12573  14.274   0.613   8.103  0.0243 -0.1064  0.1686
  896YOPE   C4B12574  14.699   0.394   8.163  0.0938 -0.1245 -0.1777
  897YOPE   NH312575  14.155   6.471   5.822  0.0330  0.2560 -0.1255
  897YOPE   PO412576  13.868   6.581   6.043 -0.0559 -0.1240 -0.0945
  897YOPE   GL112577  14.157   6.666   6.334  0.3564 -0.2631 -0.3188
  897YOPE   GL212578  14.466   6.441   6.329 -0.3069 -0.0865 -0.1109
  897YOPE   C1A12579  14.316   7.091   6.548  0.0934 -0.0338  0.1244
  897YOPE   D2A12580  14.637   7.103   6.879  0.0066  0.0277 -0.0071
  897YOPE   C3A12581  14.599   7.286   7.243 -0.0088 -0.1022  0.1577
  897YOPE   C4A12582  14.613   7.164   7.673  0.1640 -0.1377 -0.2497
  897YOPE   C1B12583  14.175   6.121   6.421 -0.0699  0.1782 -0.0920
  897YOPE   C2B12584  13.873   6.115   6.627 -0.4321 -0.2140  0.3553
  897YOPE   D3B12585  13.989   6.426   6.988  0.1870  0.2795 -0.1121
  897YOPE   C4B12586  14.361   6.439   7.306  0.0213  0.2010  0.1007
  898YOPE   NH312587   2.183   6.575   6.265  0.1222  0.3938  0.0922
  898YOPE   PO412588   1.845   6.450   6.276  0.1562 -0.2939 -0.2182
  898YOPE   GL112589   1.870   6.554   6.670  0.0859 -0.7384  0.2852
  898YOPE   GL212590   2.177   6.605   6.791 -0.0906  0.0762 -0.1740
  898YOPE   C1A12591   1.607   6.428   7.055 -0.0658  0.0921  0.1514
  898YOPE   D2A12592   1.243   6.220   7.262  0.1916  0.4077  0.1039
  898YOPE   C3A12593   1.059   6.152   7.677  0.0472  0.2999  0.1680
  898YOPE   C4A12594   0.890   6.130   8.031  0.1201 -0.0000  0.2058
  898YOPE   C1B12595   2.163   6.293   7.136  0.0844  0.2565 -0.0390
  898YOPE   C2B12596   2.300   6.408   7.572 -0.0038  0.4368 -0.0780
  898YOPE   D3B12597   2.196   6.753   7.904 -0.0248  0.0901 -0.0472
  898YOPE   C4B12598   2.059   7.022   8.186  0.3450 -0.1571 -0.2107
  899YOPE   NH312599   5.418  10.447   6.037  0.1082 -0.2134  0.0997
  899YOPE   PO412600   5.710  10.205   5.926 -0.1322 -0.1728  0.1750
  899YOPE   GL112601   5.822  10.302   6.265 -0.1926  0.2799 -0.1962
  899YOPE   GL212602   6.064  10.437   6.437 -0.0961 -0.0758  0.0255
  899YOPE   C1A12603   5.583  10.248   6.602 -0.1431  0.1076 -0.1160
  899YOPE   D2A12604   5.566  10.111   7.078  0.2386 -0.6921  0.0186
  899YOPE   C3A12605   5.480  10.372   7.491  0.0226  0.0193 -0.2875
  899YOPE   C4A12606   5.171  10.476   7.760 -0.2005 -0.1246 -0.1141
  899YOPE   C1B12607   6.023  10.365   6.904  0.1002 -0.4205 -0.2430
  899YOPE   C2B12608   5.971  10.325   7.320  0.0684  0.2769  0.0226
  899YOPE   D3B12609   5.819   9.997   7.543 -0.0538  0.0316  0.2051
  899YOPE   C4B12610   5.451   9.679   7.580  0.2105  0.1615 -0.2307
  900YOPE   NH312611   5.915  15.512   6.173  0.2927  0.1429 -0.0075
  900YOPE   PO412612   5.544  15.774   6.170 -0.0904 -0.0583 -0.1037
  900YOPE   GL112613   5.648  15.948   6.457  0.0824 -0.1172  0.0892
  900YOPE   GL212614   6.005  15.959   6.433  0.0039  0.3070  0.2773
  900YOPE   C1A12615   5.643  15.799   6.836  0.0670  0.0522 -0.2588
  900YOPE   D2A12616   5.609  15.926   7.272 -0.0442 -0.6491 -0.0382
  900YOPE   C3A12617   5.446  15.710   7.591 -0.1438  0.0303 -0.2410
  900YOPE   C4A12618   5.321  15.391   7.815 -0.0190 -0.1284 -0.1159
  900YOPE   C1B12619   6.200  15.737   6.765  0.1534  0.1002 -0.0673
  900YOPE   C2B12620   6.652  15.618   7.003  0.4721 -0.0057 -0.1986
  900YOPE   D3B12621   6.808  15.466   7.310  0.2132  0.1233  0.0820
  900YOPE   C4B12622   6.777  15.230   7.750  0.0092  0.1854  0.1542
  901YOPE   NH312623   5.865   3.144   5.291 -0.1564  0.1281 -0.1508
  901YOPE   PO412624   6.176   3.437   5.348  0.0765 -0.1020  0.1484
  901YOPE   GL112625   6.336   3.513   5.700 -0.3005  0.0316  0.1631
  901YOPE   GL212626   6.474   3.249   5.885  0.0638  0.1222  0.0681
  901YOPE   C1A12627   6.302   3.577   6.156  0.1740 -0.3828 -0.2933
  901YOPE   D2A12628   6.381   3.797   6.500  0.0889  0.2667  0.0569
  901YOPE   C3A12629   6.385   3.941   6.928 -0.0202  0.2124  0.0196
  901YOPE   C4A12630   6.637   4.168   6.987 -0.4517  0.0502 -0.1315
  901YOPE   C1B12631   6.430   3.140   6.389  0.0814 -0.1280 -0.1135
  901YOPE   C2B12632   6.344   3.335   6.774  0.0216  0.1470 -0.2389
  901YOPE   D3B12633   6.314   3.154   7.206 -0.0565 -0.1376  0.4180
  901YOPE   C4B12634   6.338   2.786   7.255 -0.2255  0.1706 -0.2720
  902YOPE   NH312635   9.635   0.083   5.903 -0.1690 -0.1112  0.2264
  902YOPE   PO412636   9.920   0.404   5.830  0.0244 -0.1176 -0.2024
  902YOPE   GL112637  10.012   0.336   6.246  0.0638 -0.0378  0.1138
  902YOPE   GL212638  10.039   0.527   6.395  0.1830  0.2681 -0.1098
  902YOPE   C1A12639   9.722   0.140   6.647 -0.0306 -0.3209  0.2986
  902YOPE   D2A12640   9.526   0.049   7.015 -0.1718  0.0378 -0.1784
  902YOPE   C3A12641   9.103   0.071   7.109  0.0021 -0.1991 -0.0921
  902YOPE   C4A12642   8.779   0.269   7.319 -0.2088 -0.2332 -0.0388
  902YOPE   C1B12643   9.862   0.723   6.647  0.0404 -0.2228 -0.0473
  902YOPE   C2B12644   9.763   0.796   7.039  0.1194  0.1479  0.1450
  902YOPE   D3B12645   9.552   0.885   7.503  0.1816  0.1974 -0.1408
  902YOPE   C4B12646   9.542   1.080   7.868  0.2864 -0.1072  0.1317
  903YOPE   NH312647   0.969  13.462   5.796  0.1684 -0.4487  0.4986
  903YOPE   PO412648   1.391  13.657   5.651  0.2828 -0.2177 -0.0938
  903YOPE   GL112649   1.267  13.717   6.161 -0.2086  0.0724 -0.3448
  903YOPE   GL212650   1.068  13.487   6.311  0.3665 -0.0467  0.3500
  903YOPE   C1A12651   1.300  13.944   6.591 -0.1318  0.3879 -0.1559
  903YOPE   D2A12652   1.344  14.080   6.996 -0.1550  0.0501  0.1073
  903YOPE   C3A12653   1.344  13.820   7.434 -0.0010  0.0719  0.2083
  903YOPE   C4A12654   1.613  13.521   7.697  0.0442 -0.0425  0.3758
  903YOPE   C1B12655   0.810  13.790   6.472  0.1484 -0.0381 -0.0493
  903YOPE   C2B12656   0.786  14.070   6.728 -0.4450 -0.1919 -0.1006
  903YOPE   D3B12657   0.902  14.513   6.856  0.1241  0.2177  0.1795
  903YOPE   C4B12658   0.761  14.716   7.194 -0.0469 -0.1760 -0.0089
  904YOPE   NH312659   0.159   4.746   6.359 -0.1340  0.0747 -0.0912
  904YOPE   PO412660   0.525   4.400   6.233 -0.1235 -0.4270 -0.0149
  904YOPE   GL112661   0.569   4.624   6.649  0.1764 -0.3784 -0.0327
  904YOPE   GL212662   0.308   4.825   6.858 -0.2778  0.3860  0.3850
  904YOPE   C1A12663   0.521   4.372   7.081 -0.0111  0.0215  0.0212
  904YOPE   D2A12664   0.430   4.154   7.372 -0.0217  0.0125  0.2483
  904YOPE   C3A12665   0.651   4.381   7.729  0.3094  0.0316 -0.0161
  904YOPE   C4A12666   0.687   4.320   8.228  0.2278 -0.1556  0.2336
  904YOPE   C1B12667   0.039   5.000   7.202 -0.1956  0.0337 -0.1190
  904YOPE   C2B12668  -0.217   5.321   7.469  0.1532  0.3128  0.1111
  904YOPE   D3B12669  -0.302   5.726   7.633 -0.1203 -0.0023 -0.1517
  904YOPE   C4B12670  -0.413   6.139   7.435 -0.2489  0.1230  0.0632
  905YOPE   NH312671  13.950   9.782   5.588 -0.0053 -0.1228  0.0910
  905YOPE   PO412672  13.801   9.319   5.431  0.3432  0.2372  0.2188
  905YOPE   GL112673  13.746   9.427   5.862  0.0463  0.0106  0.0132
  905YOPE   GL212674  14.024   9.468   6.006 -0.2702  0.0914  0.6290
  905YOPE   C1A12675  13.575   9.231   6.197  0.2287 -0.3023  0.1482
  905YOPE   D2A12676  13.293   9.023   6.454  0.0791 -0.0670  0.3184
  905YOPE   C3A12677  12.834   8.960   6.528  0.0665 -0.0664 -0.1054
  905YOPE   C4A12678  12.384   9.029   6.646 -0.3844 -0.0176  0.6041
  905YOPE   C1B12679  14.099   9.129   6.270  0.0255  0.1902  0.0381
  905YOPE   C2B12680  14.454   9.071   6.589  0.2274 -0.4013 -0.2330
  905YOPE   D3B12681  14.600   9.086   7.023 -0.0669 -0.0276  0.1623
  905YOPE   C4B12682  14.472   9.042   7.426 -0.0015 -0.1667 -0.2745
  906YOPE   NH312683   4.124  17.556   5.957 -0.3202 -0.0626 -0.3873
  906YOPE   PO412684   4.240  17.969   5.830 -0.0226  0.0436  0.1774
  906YOPE   GL112685   4.296  17.943   6.290 -0.0788  0.3276 -0.0745
  906YOPE   GL212686   4.511  17.577   6.351  0.0842  0.1310  0.0377
  906YOPE   C1A12687   4.296  18.047   6.686  0.2700 -0.3040 -0.0159
  906YOPE   D2A12688   4.373  18.310   7.015  0.2672  0.2241  0.3227
  906YOPE   C3A12689   4.762  18.365   7.241  0.2323 -0.0916  0.1973
  906YOPE   C4A12690   5.081  18.560   7.500 -0.2754 -0.2913 -0.2846
  906YOPE   C1B12691   4.340  17.586   6.730  0.0176  0.1432  0.0133
  906YOPE   C2B12692   4.205  17.551   7.114  0.2010 -0.0534 -0.2471
  906YOPE   D3B12693   4.459  17.522   7.506 -0.2207  0.1366 -0.1346
  906YOPE   C4B12694   4.474  17.311   7.902 -0.1325 -0.5065  0.0740
  907YOPE   NH312695  16.567   8.694   5.743  0.1564  0.0163 -0.0858
  907YOPE   PO412696  16.505   8.321   5.905  0.2750  0.1870 -0.1560
  907YOPE   GL112697  16.503   7.978   6.209 -0.0304 -0.0444  0.0621
  907YOPE   GL212698  16.595   7.759   6.317 -0.0719 -0.1413  0.3453
  907YOPE   C1A12699  16.627   8.146   6.625  0.0857  0.0721 -0.0211
  907YOPE   D2A12700  16.813   8.106   7.043 -0.4824 -0.1716  0.0163
  907YOPE   C3A12701  16.663   8.090   7.428 -0.0735 -0.2302 -0.0433
  907YOPE   C4A12702  16.594   8.268   7.844  0.0450  0.0661 -0.1373
  907YOPE   C1B12703  16.756   7.666   6.718 -0.3142  0.1773 -0.0213
  907YOPE   C2B12704  16.952   7.481   7.043 -0.0447 -0.2348  0.3338
  907YOPE   D3B12705  17.020   7.374   7.409  0.4448  0.0403 -0.2519
  907YOPE   C4B12706  17.070   7.421   7.869 -0.0408  0.0412  0.0874
  908YOPE   NH312707   7.082  13.632   5.851 -0.1998  0.0718  0.3326
  908YOPE   PO412708   7.297  13.166   5.943  0.3860 -0.2281  0.1986
  908YOPE   GL112709   7.503  13.059   6.401 -0.2917  0.1805  0.1743
  908YOPE   GL212710   7.242  12.842   6.389  0.1412  0.1708 -0.1827
  908YOPE   C1A12711   7.684  13.249   6.895  0.0014  0.0577  0.1636
  908YOPE   D2A12712   7.781  13.443   7.231  0.2036 -0.2894  0.4350
  908YOPE   C3A12713   7.923  13.474   7.625 -0.2347  0.2789 -0.0481
  908YOPE   C4A12714   8.200  13.284   7.895 -0.1205  0.1359  0.0494
  908YOPE   C1B12715   7.378  12.798   6.789  0.0404  0.0699  0.2349
  908YOPE   C2B12716   7.459  12.909   7.213  0.1976 -0.2598  0.0759
  908YOPE   D3B12717   7.613  13.085   7.549  0.4218  0.2909  0.0146
  908YOPE   C4B12718   7.650  13.369   7.991 -0.0560 -0.1230 -0.0227
  909YOPE   NH312719   6.959   6.464   6.077  0.2382 -0.1985 -0.0664
  909YOPE   PO412720   6.519   6.520   6.097  0.0076 -0.1754  0.1925
  909YOPE   GL112721   6.640   6.472   6.501  0.0099  0.2851  0.1384
  909YOPE   GL212722   6.865   6.285   6.564  0.0758 -0.3014  0.0278
  909YOPE   C1A12723   6.887   6.712   6.855 -0.0385 -0.1687  0.1962
  909YOPE   D2A12724   7.162   6.853   7.079  0.0774  0.1398  0.2552
  909YOPE   C3A12725   7.480   6.678   7.225 -0.2455 -0.2237 -0.0974
  909YOPE   C4A12726   7.606   6.656   7.731 -0.3128  0.1464  0.2761
  909YOPE   C1B12727   7.149   5.954   6.691  0.1568 -0.0233 -0.0342
  909YOPE   C2B12728   7.563   5.819   6.865 -0.2456 -0.0768 -0.0162
  909YOPE   D3B12729   7.932   5.593   6.749 -0.0966  0.0316  0.0409
  909YOPE   C4B12730   8.246   5.417   6.560  0.0805 -0.1826  0.0721
  910YOPE   NH312731  13.124   3.325   5.842 -0.0057  0.0740  0.2113
  910YOPE   PO412732  13.384   3.731   5.916 -0.1553  0.5557 -0.0004
  910YOPE   GL112733  13.292   3.573   6.327 -0.1698 -0.0883 -0.0792
  910YOPE   GL212734  13.275   3.273   6.460 -0.2161  0.0024 -0.1863
  910YOPE   C1A12735  13.119   3.701   6.671  0.0622 -0.0465  0.1679
  910YOPE   D2A12736  12.871   3.914   6.930  0.2018  0.0705  0.1767
  910YOPE   C3A12737  12.869   3.801   7.319  0.1102 -0.1537  0.3807
  910YOPE   C4A12738  12.970   3.638   7.729  0.0799 -0.1953  0.0963
  910YOPE   C1B12739  13.010   3.104   6.771 -0.2144 -0.0488  0.2139
  910YOPE   C2B12740  12.914   3.363   7.078 -0.0275  0.0995  0.0865
  910YOPE   D3B12741  12.671   3.361   7.460 -0.0175  0.1329  0.0597
  910YOPE   C4B12742  12.663   3.123   7.904 -0.1307 -0.3773  0.0071
  911YOPE   NH312743   2.003   3.370   6.483  0.0280 -0.1808 -0.0089
  911YOPE   PO412744   2.346   3.078   6.357  0.1033 -0.1513 -0.1328
  911YOPE   GL112745   2.451   3.302   6.716 -0.2092 -0.0027  0.1483
  911YOPE   GL212746   2.159   3.267   6.960 -0.1103  0.1655  0.3490
  911YOPE   C1A12747   2.626   3.373   7.115 -0.0131  0.1373 -0.0996
  911YOPE   D2A12748   2.583   3.535   7.544 -0.1573 -0.0553 -0.3104
  911YOPE   C3A12749   2.867   3.696   7.854  0.2423 -0.1405 -0.2911
  911YOPE   C4A12750   3.289   3.886   7.958  0.3213  0.1902 -0.0659
  911YOPE   C1B12751   1.841   3.050   7.232 -0.0377  0.1760  0.0693
  911YOPE   C2B12752   1.844   2.720   7.351 -0.1243 -0.2299 -0.1911
  911YOPE   D3B12753   1.783   2.336   7.624 -0.0092  0.0342 -0.0586
  911YOPE   C4B12754   1.766   2.031   7.848 -0.1488 -0.2534  0.4136
  912YOPE   NH312755  17.307   6.607   5.833  0.1445  0.0549 -0.1473
  912YOPE   PO412756  17.758   6.422   5.705  0.2174 -0.1774 -0.1444
  912YOPE   GL112757  17.842   6.634   6.122  0.0366  0.0670 -0.1888
  912YOPE   GL212758  18.107   6.684   6.369  0.1347 -0.1541  0.0954
  912YOPE   C1A12759  17.568   6.650   6.488 -0.0514  0.1813  0.0169
  912YOPE   D2A12760  17.226   6.720   6.759 -0.2794  0.0965 -0.0072
  912YOPE   C3A12761  17.274   6.507   7.092  0.0434 -0.4983  0.0541
  912YOPE   C4A12762  17.407   6.468   7.444  0.3998  0.3539  0.4666
  912YOPE   C1B12763  18.261   6.805   6.796  0.2210 -0.0969 -0.1587
  912YOPE   C2B12764  18.431   6.885   7.227 -0.1488  0.2402  0.2051
  912YOPE   D3B12765  18.786   6.818   7.531  0.3664  0.1424  0.1097
  912YOPE   C4B12766  18.980   6.580   7.814 -0.0492  0.0105 -0.1184
  913YOPE   NH312767  11.059   1.319   5.455 -0.3360  0.0952 -0.0247
  913YOPE   PO412768  11.052   1.057   5.811 -0.1009  0.3733  0.2390
  913YOPE   GL112769  10.948   1.086   6.240  0.1228 -0.1648 -0.1667
  913YOPE   GL212770  10.720   1.239   6.367 -0.0071  0.0722 -0.1142
  913YOPE   C1A12771  11.297   0.997   6.622  0.2219 -0.2677  0.0193
  913YOPE   D2A12772  11.553   0.831   6.985 -0.1784  0.0624 -0.1254
  913YOPE   C3A12773  11.636   0.818   7.477 -0.0182  0.0434  0.0177
  913YOPE   C4A12774  11.762   0.791   7.983  0.0850 -0.4163  0.3429
  913YOPE   C1B12775  10.914   1.275   6.756 -0.1388 -0.0298 -0.1886
  913YOPE   C2B12776  10.767   1.379   7.054 -0.0227  0.1661  0.0637
  913YOPE   D3B12777  10.698   1.435   7.446 -0.4029  0.3719 -0.3852
  913YOPE   C4B12778  10.766   1.788   7.721 -0.2085 -0.0559 -0.0728
  914YOPE   NH312779  12.896   0.852   6.083 -0.0349  0.0782  0.1853
  914YOPE   PO412780  13.309   0.959   6.112 -0.4315  0.1741  0.2459
  914YOPE   GL112781  13.542   0.953   6.419 -0.2997 -0.0811  0.0911
  914YOPE   GL212782  13.778   0.695   6.376  0.2341  0.1198  0.0456
  914YOPE   C1A12783  13.473   0.882   6.921  0.2331 -0.4169  0.2667
  914YOPE   D2A12784  13.312   0.680   7.326 -0.0003 -0.3026  0.1173
  914YOPE   C3A12785  13.012   0.443   7.569 -0.0254 -0.0166 -0.3448
  914YOPE   C4A12786  12.556   0.540   7.606  0.3243 -0.3410  0.1041
  914YOPE   C1B12787  13.639   0.465   6.810  0.2491 -0.0452  0.1694
  914YOPE   C2B12788  13.738   0.277   7.223 -0.2148 -0.1400  0.0332
  914YOPE   D3B12789  13.608   0.194   7.587 -0.1889  0.0028  0.0713
  914YOPE   C4B12790  13.528  -0.251   7.789  0.0528  0.0799 -0.0105
  915YOPE   NH312791   5.281   3.786   5.564 -0.0713  0.1557  0.0951
  915YOPE   PO412792   4.907   3.500   5.609  0.0064  0.1185 -0.0191
  915YOPE   GL112793   4.899   3.459   6.097  0.0485  0.1682 -0.0480
  915YOPE   GL212794   4.927   3.695   6.259 -0.1446  0.0968 -0.0616
  915YOPE   C1A12795   4.614   3.315   6.396 -0.1817 -0.2000  0.0902
  915YOPE   D2A12796   4.597   2.847   6.595 -0.3022  0.1689 -0.0677
  915YOPE   C3A12797   4.389   2.872   6.916  0.0317  0.2716 -0.1460
  915YOPE   C4A12798   4.237   3.176   7.277 -0.0307  0.1312  0.3454
  915YOPE   C1B12799   5.026   3.485   6.686  0.2309 -0.1243  0.0720
  915YOPE   C2B12800   5.097   3.399   7.155 -0.0222  0.1833 -0.0355
  915YOPE   D3B12801   5.245   3.287   7.601 -0.2444 -0.0355 -0.1206
  915YOPE   C4B12802   5.259   3.318   8.127  0.1927 -0.0279  0.1255
  916YOPE   NH312803   2.258  13.284   5.819 -0.2785  0.0205 -0.2082
  916YOPE   PO412804   2.336  13.692   5.664  0.0283 -0.0418 -0.2042
  916YOPE   GL112805   2.175  13.673   6.047 -0.0087 -0.0691  0.0942
  916YOPE   GL212806   2.535  13.545   6.166 -0.0526 -0.3768 -0.0345
  916YOPE   C1A12807   2.142  13.741   6.451  0.0385  0.3040  0.0077
  916YOPE   D2A12808   1.805  13.791   6.733 -0.0337  0.0350 -0.0458
  916YOPE   C3A12809   1.728  13.728   7.163  0.0323 -0.1692  0.2240
  916YOPE   C4A12810   1.507  13.420   7.193 -0.1210  0.1946 -0.0464
  916YOPE   C1B12811   2.523  13.464   6.597  0.2895  0.2054  0.0755
  916YOPE   C2B12812   2.649  13.267   6.956  0.1033 -0.0008 -0.0667
  916YOPE   D3B12813   2.547  13.285   7.347 -0.0999 -0.1259 -0.0101
  916YOPE   C4B12814   2.416  13.068   7.571 -0.0887 -0.1200  0.0264
  917YOPE   NH312815  17.436   7.827   5.890  0.0346 -0.2874 -0.0547
  917YOPE   PO412816  17.019   7.946   5.640  0.0061  0.0045  0.1905
  917YOPE   GL112817  16.979   7.947   6.008 -0.0160  0.1001  0.1397
  917YOPE   GL212818  17.029   7.693   6.176 -0.5446 -0.2155  0.0429
  917YOPE   C1A12819  17.125   8.085   6.481  0.0000  0.0402  0.0683
  917YOPE   D2A12820  17.132   8.476   6.661 -0.0962 -0.1738 -0.1772
  917YOPE   C3A12821  17.229   8.459   7.124  0.0100  0.0083 -0.3166
  917YOPE   C4A12822  17.110   8.356   7.503  0.1366 -0.1300  0.0759
  917YOPE   C1B12823  17.170   7.503   6.551 -0.3831 -0.1288 -0.0788
  917YOPE   C2B12824  17.362   7.220   6.691  0.1291  0.3934 -0.0063
  917YOPE   D3B12825  17.411   7.059   7.099  0.1107  0.0909 -0.0012
  917YOPE   C4B12826  17.342   6.961   7.343  0.0232  0.0603 -0.1971
  918YOPE   NH312827   5.654  10.554   5.550  0.2498 -0.0037  0.1135
  918YOPE   PO412828   5.154  10.708   5.631 -0.2839 -0.2141 -0.0567
  918YOPE   GL112829   5.121  10.849   6.146  0.0105 -0.1202  0.3244
  918YOPE   GL212830   4.788  10.801   6.068  0.1560  0.1871  0.0982
  918YOPE   C1A12831   4.995  10.747   6.511 -0.2694  0.1006  0.0650
  918YOPE   D2A12832   5.044  10.826   6.864  0.0225 -0.1375  0.0092
  918YOPE   C3A12833   5.050  10.418   7.225 -0.0749  0.1310  0.0360
  918YOPE   C4A12834   5.095  10.029   7.419 -0.0482  0.2646  0.0106
  918YOPE   C1B12835   4.743  11.160   6.245 -0.1143 -0.1730  0.0297
  918YOPE   C2B12836   4.430  11.193   6.527  0.0722 -0.1719  0.2196
  918YOPE   D3B12837   4.454  11.449   6.940  0.1656 -0.2259 -0.0716
  918YOPE   C4B12838   4.131  11.577   7.189 -0.2230  0.0665 -0.3367
  919YOPE   NH312839  17.811   4.886   6.332 -0.2014 -0.1596  0.1341
  919YOPE   PO412840  17.913   4.449   6.328 -0.1386  0.0180 -0.1849
  919YOPE   GL112841  17.774   4.358   6.651  0.1963  0.3009  0.1678
  919YOPE   GL212842  17.363   4.407   6.592  0.1519  0.2910 -0.3037
  919YOPE   C1A12843  18.028   4.244   7.008 -0.0707  0.4829 -0.3158
  919YOPE   D2A12844  18.112   4.420   7.288  0.1088  0.2963 -0.2917
  919YOPE   C3A12845  17.889   4.337   7.623 -0.1054 -0.2087 -0.1091
  919YOPE   C4A12846  17.640   4.497   7.969  0.0161  0.0112 -0.0428
  919YOPE   C1B12847  17.335   4.193   6.984  0.0940  0.0358  0.2743
  919YOPE   C2B12848  17.332   4.219   7.430  0.0648  0.0766  0.0558
  919YOPE   D3B12849  17.490   3.925   7.812  0.1561 -0.3442 -0.0582
  919YOPE   C4B12850  17.753   4.067   8.138  0.2246  0.2846  0.1882
  920YOPE   NH312851  14.621   2.115   6.055  0.4894 -0.1259  0.1060
  920YOPE   PO412852  14.483   2.476   6.214  0.0417  0.2666 -0.1565
  920YOPE   GL112853  14.646   2.150   6.530  0.1389  0.3608 -0.2046
  920YOPE   GL212854  14.930   2.107   6.692  0.0828  0.0964  0.0389
  920YOPE   C1A12855  14.478   2.067   6.836  0.2187  0.1235 -0.4274
  920YOPE   D2A12856  14.118   2.145   7.195  0.2015  0.3477 -0.1413
  920YOPE   C3A12857  13.746   2.023   7.175  0.0436 -0.1583 -0.2551
  920YOPE   C4A12858  13.507   1.836   6.974  0.0663 -0.0544  0.1198
  920YOPE   C1B12859  14.945   2.115   7.090 -0.0455 -0.0409 -0.1334
  920YOPE   C2B12860  14.788   2.144   7.529  0.1642  0.3592  0.1167
  920YOPE   D3B12861  14.407   2.145   7.719  0.1118 -0.1580  0.0909
  920YOPE   C4B12862  14.214   1.855   7.996  0.0556 -0.1165  0.2924
  921YOPE   NH312863  14.933   5.814   5.973  0.2437  0.1420 -0.0767
  921YOPE   PO412864  14.552   5.661   6.005 -0.3168 -0.0519 -0.2282
  921YOPE   GL112865  14.693   5.948   6.396 -0.1838  0.0542 -0.2009
  921YOPE   GL212866  14.756   5.722   6.634 -0.0266 -0.2610 -0.2482
  921YOPE   C1A12867  14.562   6.245   6.779  0.0310 -0.0389  0.2467
  921YOPE   D2A12868  14.506   6.631   6.753 -0.0824 -0.4675 -0.2109
  921YOPE   C3A12869  14.258   6.910   7.156  0.1153  0.6281  0.3298
  921YOPE   C4A12870  14.092   7.048   7.533 -0.0699  0.3623  0.3594
  921YOPE   C1B12871  14.391   5.781   6.794 -0.1656  0.0773  0.1914
  921YOPE   C2B12872  14.130   5.975   7.106 -0.1040  0.1970 -0.0524
  921YOPE   D3B12873  13.836   6.154   7.382  0.0800 -0.0749  0.0605
  921YOPE   C4B12874  13.430   6.368   7.578  0.2666 -0.0140 -0.0248
  922YOPE   NH312875   0.220  11.665   5.624  0.0382  0.0469 -0.4847
  922YOPE   PO412876   0.653  11.726   5.875 -0.2849 -0.0875  0.0208
  922YOPE   GL112877   0.624  11.967   6.243  0.2924 -0.2515  0.0930
  922YOPE   GL212878   0.766  12.315   6.174 -0.2361  0.1311  0.3479
  922YOPE   C1A12879   0.714  12.228   6.638  0.1559  0.0245  0.0196
  922YOPE   D2A12880   0.738  12.302   7.098  0.0672  0.0349 -0.0057
  922YOPE   C3A12881   0.754  12.386   7.526  0.4959  0.0927 -0.1122
  922YOPE   C4A12882   1.078  12.146   7.814  0.1080 -0.0754  0.1279
  922YOPE   C1B12883   1.016  12.564   6.373 -0.1387  0.2738 -0.1100
  922YOPE   C2B12884   0.873  12.738   6.831 -0.0244 -0.0789 -0.1448
  922YOPE   D3B12885   0.612  12.751   7.182  0.3274  0.3124  0.1790
  922YOPE   C4B12886   0.383  12.824   7.532 -0.3225 -0.0633  0.2589
  923YOPE   NH312887  15.150   5.073   6.170 -0.1161  0.1099  0.1989
  923YOPE   PO412888  14.960   5.394   6.247 -0.1009 -0.1290 -0.3902
  923YOPE   GL112889  15.065   5.387   6.676  0.1877  0.1401 -0.0786
  923YOPE   GL212890  15.224   5.687   6.876 -0.1212  0.0738  0.0690
  923YOPE   C1A12891  15.068   5.311   7.096  0.0009  0.3149  0.0901
  923YOPE   D2A12892  15.093   5.125   7.483  0.2113 -0.1201  0.2750
  923YOPE   C3A12893  15.160   5.430   7.876 -0.0768 -0.1053  0.0687
  923YOPE   C4A12894  15.175   5.542   8.326 -0.1224  0.2863  0.1105
  923YOPE   C1B12895  15.207   5.732   7.334  0.2525 -0.0311 -0.1921
  923YOPE   C2B12896  15.405   5.850   7.624  0.0162 -0.0969 -0.1220
  923YOPE   D3B12897  15.507   5.789   7.998  0.2620 -0.0775 -0.4045
  923YOPE   C4B12898  15.666   5.677   8.448 -0.2877 -0.0699 -0.2168
  924YOPE   NH312899   1.519  17.719   5.656  0.0350  0.0680  0.1138
  924YOPE   PO412900   1.241  18.060   5.573 -0.0357  0.1500 -0.2545
  924YOPE   GL112901   1.460  18.075   6.050 -0.5455  0.0766 -0.0184
  924YOPE   GL212902   1.464  18.372   6.106  0.3359  0.1301 -0.2709
  924YOPE   C1A12903   1.284  17.930   6.501 -0.0705 -0.0570 -0.0780
  924YOPE   D2A12904   1.043  17.751   6.875 -0.1350 -0.0442  0.1277
  924YOPE   C3A12905   0.919  18.042   7.153 -0.0550  0.1446 -0.1537
  924YOPE   C4A12906   1.119  17.943   7.424 -0.0143 -0.1727  0.2798
  924YOPE   C1B12907   1.654  18.239   6.481 -0.2249 -0.1584  0.0234
  924YOPE   C2B12908   1.908  18.315   6.866  0.1132  0.0029  0.0195
  924YOPE   D3B12909   1.997  18.536   7.229 -0.1512 -0.0089 -0.1641
  924YOPE   C4B12910   1.934  18.740   7.574  0.1066 -0.1231  0.1967
  925YOPE   NH312911   2.785  14.193   5.525  0.0645  0.2696  0.0613
  925YOPE   PO412912   2.674  14.629   5.714 -0.1319 -0.1574 -0.1456
  925YOPE   GL112913   2.906  14.527   6.096  0.1577  0.3341  0.0054
  925YOPE   GL212914   2.664  14.531   6.348 -0.1456  0.1363  0.2462
  925YOPE   C1A12915   3.194  14.614   6.427  0.3825 -0.0453  0.1410
  925YOPE   D2A12916   3.184  14.672   6.874 -0.2039  0.4163  0.2361
  925YOPE   C3A12917   3.193  14.596   7.233 -0.0693 -0.2143  0.0798
  925YOPE   C4A12918   3.465  14.672   7.608 -0.2754  0.1267  0.0984
  925YOPE   C1B12919   2.743  14.401   6.676  0.0606 -0.2446 -0.1017
  925YOPE   C2B12920   2.985  14.209   7.039 -0.1810  0.0792 -0.1314
  925YOPE   D3B12921   2.977  14.124   7.480 -0.0479  0.2620  0.4584
  925YOPE   C4B12922   2.569  14.109   7.643  0.1413 -0.1813 -0.1535
  926YOPE   NH312923  18.146  17.653   6.014  0.1236  0.1435  0.0848
  926YOPE   PO412924  18.042  18.026   6.167  0.4390  0.2602  0.0753
  926YOPE   GL112925  17.994  17.952   6.547 -0.1102 -0.0777 -0.1637
  926YOPE   GL212926  18.019  17.752   6.636 -0.1470 -0.1767  0.0123
  926YOPE   C1A12927  18.233  17.875   7.024  0.0009  0.1524 -0.0328
  926YOPE   D2A12928  18.342  17.944   7.487 -0.0160  0.3120 -0.2287
  926YOPE   C3A12929  18.756  18.004   7.536 -0.0320 -0.2268 -0.3313
  926YOPE   C4A12930  18.881  18.388   7.554 -0.2733  0.0715  0.2206
  926YOPE   C1B12931  17.730  17.619   6.895  0.1119  0.1754 -0.2386
  926YOPE   C2B12932  17.716  17.607   7.386  0.1227  0.5809  0.1046
  926YOPE   D3B12933  17.944  17.753   7.696 -0.1238  0.0703 -0.0007
  926YOPE   C4B12934  18.022  18.212   7.822 -0.2846 -0.3289  0.0066
  927YOPE   NH312935   0.043  12.859   5.804  0.0973 -0.0938  0.2448
  927YOPE   PO412936   0.387  12.520   5.708 -0.3111  0.0094 -0.0458
  927YOPE   GL112937   0.302  12.607   6.153 -0.0803  0.0526  0.0663
  927YOPE   GL212938   0.305  12.358   6.318 -0.2304  0.0266 -0.2816
  927YOPE   C1A12939   0.565  12.832   6.431 -0.0715 -0.0854 -0.0851
  927YOPE   D2A12940   0.653  13.229   6.581 -0.2140 -0.1120 -0.0959
  927YOPE   C3A12941   0.620  13.296   7.004  0.1746  0.1812 -0.0632
  927YOPE   C4A12942   0.673  13.309   7.461  0.0701  0.0572 -0.0851
  927YOPE   C1B12943   0.329  12.528   6.799  0.0871 -0.0017 -0.0350
  927YOPE   C2B12944   0.238  12.449   7.229  0.1813  0.3372 -0.2424
  927YOPE   D3B12945  -0.044  12.407   7.623  0.1162 -0.1158 -0.2125
  927YOPE   C4B12946  -0.248  12.440   7.968 -0.1300 -0.0171  0.2287
  928YOPE   NH312947   2.765   5.944   5.950  0.0514 -0.1630 -0.0701
  928YOPE   PO412948   2.855   6.071   6.309  0.0452 -0.2772 -0.1962
  928YOPE   GL112949   2.871   5.929   6.694  0.1281 -0.0575  0.3506
  928YOPE   GL212950   2.912   5.716   6.846 -0.2213 -0.0689 -0.5232
  928YOPE   C1A12951   3.026   6.202   7.082 -0.0130  0.3890 -0.0969
  928YOPE   D2A12952   3.433   5.996   7.283  0.0936  0.1422 -0.0014
  928YOPE   C3A12953   3.602   6.121   7.540  0.0369  0.1795 -0.1635
  928YOPE   C4A12954   3.657   6.175   7.996 -0.0227  0.0955  0.0306
  928YOPE   C1B12955   3.004   5.593   7.285  0.0145  0.2710  0.1209
  928YOPE   C2B12956   2.950   5.571   7.739 -0.1493  0.0312 -0.0888
  928YOPE   D3B12957   2.998   5.396   8.103  0.1779  0.3797  0.2316
  928YOPE   C4B12958   3.191   5.030   8.279 -0.1931  0.0579 -0.2184
  929YOPE   NH312959   5.671   7.981   6.098  0.0990 -0.0931 -0.2122
  929YOPE   PO412960   5.236   8.031   5.963  0.4459 -0.1515 -0.0934
  929YOPE   GL112961   5.106   7.581   6.162 -0.3114  0.1292  0.0179
  929YOPE   GL212962   5.394   7.534   6.306 -0.0075 -0.2504  0.1480
  929YOPE   C1A12963   4.937   7.412   6.486 -0.2895  0.1302  0.2481
  929YOPE   D2A12964   4.952   7.344   6.943 -0.2229 -0.2353 -0.1240
  929YOPE   C3A12965   4.942   7.585   7.368 -0.0796  0.3318 -0.2593
  929YOPE   C4A12966   4.855   7.644   7.736  0.2133  0.1339  0.0625
  929YOPE   C1B12967   5.405   7.544   6.788 -0.1845 -0.0015 -0.3056
  929YOPE   C2B12968   5.392   7.579   7.108  0.2792 -0.0173 -0.0144
  929YOPE   D3B12969   5.266   7.931   7.399 -0.1695 -0.1168  0.1335
  929YOPE   C4B12970   5.098   8.063   7.677 -0.3426 -0.0408 -0.2336
  930YOPE   NH312971   5.502   9.464   6.054  0.2131 -0.0081 -0.0128
  930YOPE   PO412972   5.891   9.320   6.154 -0.0104  0.2248 -0.0515
  930YOPE   GL112973   6.230   9.265   6.393  0.0664  0.2992 -0.0197
  930YOPE   GL212974   6.376   9.550   6.457  0.1166  0.0155  0.2113
  930YOPE   C1A12975   6.265   8.979   6.824  0.0310 -0.0112 -0.1433
  930YOPE   D2A12976   6.174   8.839   7.283 -0.2131  0.1253 -0.0590
  930YOPE   C3A12977   6.437   8.702   7.575 -0.0677 -0.1253  0.0283
  930YOPE   C4A12978   6.559   8.548   8.003  0.0558 -0.0117  0.0480
  930YOPE   C1B12979   6.375   9.470   6.781  0.1625 -0.1425  0.1289
  930YOPE   C2B12980   6.271   9.376   7.155 -0.0978 -0.1487  0.1139
  930YOPE   D3B12981   6.258   9.308   7.529  0.0831  0.1196  0.0201
  930YOPE   C4B12982   6.248   9.718   7.660 -0.1766  0.1212 -0.0146
  931YOPE   NH312983  17.933   1.386   6.404  0.3621 -0.2002  0.1331
  931YOPE   PO412984  17.723   1.242   6.130  0.2166 -0.0082 -0.5207
  931YOPE   GL112985  17.740   0.948   6.439 -0.4160 -0.0771  0.3747
  931YOPE   GL212986  18.032   1.002   6.622  0.2259 -0.0255  0.1241
  931YOPE   C1A12987  17.821   0.582   6.699 -0.0529  0.0373 -0.2377
  931YOPE   D2A12988  17.850   0.529   7.078  0.0886  0.0779 -0.0723
  931YOPE   C3A12989  18.100   0.833   7.363 -0.1957 -0.2157 -0.3785
  931YOPE   C4A12990  18.423   0.844   7.791  0.0252 -0.2827 -0.0534
  931YOPE   C1B12991  17.892   1.192   7.037 -0.0152 -0.2397 -0.1694
  931YOPE   C2B12992  17.868   1.342   7.423 -0.0844 -0.0458 -0.0628
  931YOPE   D3B12993  17.980   1.144   7.768 -0.1918 -0.1219  0.0421
  931YOPE   C4B12994  18.190   1.064   8.181  0.0223 -0.3641 -0.1243
  932YOPE   NH312995  12.062   5.287   5.828  0.0631 -0.1236 -0.0628
  932YOPE   PO412996  11.781   4.968   5.778  0.0355  0.2996  0.2577
  932YOPE   GL112997  11.823   4.978   6.193 -0.0157 -0.1387  0.1437
  932YOPE   GL212998  12.177   5.112   6.275 -0.0183 -0.2814 -0.1909
  932YOPE   C1A12999  12.054   4.747   6.526 -0.1534 -0.1062  0.0340
  932YOPE   D2A13000  11.903   4.624   6.889  0.2268 -0.0441  0.2954
  932YOPE   C3A13001  11.863   4.918   7.205  0.1003 -0.4698 -0.2416
  932YOPE   C4A13002  12.090   5.016   7.633 -0.0942  0.0663  0.3120
  932YOPE   C1B13003  12.083   5.180   6.750  0.0120 -0.0528 -0.0111
  932YOPE   C2B13004  12.143   5.350   7.068 -0.0920 -0.2417  0.1079
  932YOPE   D3B13005  12.276   5.343   7.309  0.0421 -0.1065 -0.0809
  932YOPE   C4B13006  12.591   5.155   7.531 -0.1928  0.0300  0.0650
  933YOPE   NH313007  15.754  11.444   6.138 -0.0147  0.0859  0.0295
  933YOPE   PO413008  15.306  11.349   6.046 -0.0229  0.0380  0.0970
  933YOPE   GL113009  15.361  11.451   6.496  0.2210 -0.0183  0.5735
  933YOPE   GL213010  15.664  11.375   6.683  0.3944 -0.0338  0.3256
  933YOPE   C1A13011  15.287  11.749   6.820  0.3183 -0.6335  0.2910
  933YOPE   D2A13012  15.196  12.191   6.920  0.4108 -0.5097 -0.2258
  933YOPE   C3A13013  15.515  12.487   7.068  0.1603  0.1530  0.0628
  933YOPE   C4A13014  15.880  12.720   7.201 -0.3785 -0.0657 -0.2673
  933YOPE   C1B13015  15.654  11.543   7.093 -0.1518 -0.1109 -0.1578
  933YOPE   C2B13016  15.454  11.497   7.478 -0.0180  0.2171  0.1794
  933YOPE   D3B13017  15.262  11.159   7.846  0.1204  0.2586 -0.2370
  933YOPE   C4B13018  14.845  11.145   8.089 -0.0700  0.0699  0.2941
  934YOPE   NH313019   7.896   6.323   5.627  0.1813 -0.2052 -0.2124
  934YOPE   PO413020   8.042   6.032   5.983  0.0352 -0.0856  0.1573
  934YOPE   GL113021   8.240   5.874   6.330  0.1846 -0.0627 -0.2832
  934YOPE   GL213022   8.479   5.801   6.209  0.0982 -0.3389  0.1325
  934YOPE   C1A13023   8.384   5.888   6.749  0.0054 -0.2053 -0.1452
  934YOPE   D2A13024   8.484   5.983   7.147 -0.0903  0.0203 -0.3660
  934YOPE   C3A13025   8.641   5.665   7.505 -0.0453  0.1551 -0.0426
  934YOPE   C4A13026   8.363   5.630   7.800 -0.1318  0.0162  0.1639
  934YOPE   C1B13027   8.796   6.058   6.447  0.0437 -0.0794  0.2946
  934YOPE   C2B13028   9.000   6.063   6.827 -0.0021 -0.2683  0.1159
  934YOPE   D3B13029   9.291   6.052   7.094 -0.0216  0.1500  0.0593
  934YOPE   C4B13030   9.670   6.197   7.125 -0.1695 -0.2254 -0.0203
  935YOPE   NH313031  14.085   1.156   5.410 -0.2768  0.1318  0.0465
  935YOPE   PO413032  14.414   1.128   5.785  0.0003 -0.0621 -0.4564
  935YOPE   GL113033  14.514   1.252   6.168  0.0017  0.2108 -0.0829
  935YOPE   GL213034  14.731   1.230   6.476 -0.0963 -0.2002  0.2834
  935YOPE   C1A13035  14.288   1.343   6.615 -0.1711  0.1742 -0.0470
  935YOPE   D2A13036  14.479   1.223   6.978 -0.2654 -0.0629 -0.1979
  935YOPE   C3A13037  14.284   1.291   7.289 -0.0305  0.4779 -0.2284
  935YOPE   C4A13038  14.298   1.331   7.707  0.0102 -0.0573 -0.0590
  935YOPE   C1B13039  14.766   1.602   6.743 -0.2806  0.0221 -0.0322
  935YOPE   C2B13040  14.702   1.648   7.179  0.0073 -0.1672 -0.1385
  935YOPE   D3B13041  14.599   1.707   7.667 -0.0259 -0.0555  0.1027
  935YOPE   C4B13042  14.620   1.604   8.112  0.0465  0.2315 -0.0470
  936YOPE   NH313043   6.210   3.995   5.295 -0.0109 -0.0168 -0.0395
  936YOPE   PO413044   5.749   4.083   5.514  0.1254 -0.0173  0.2129
  936YOPE   GL113045   5.820   4.400   5.902 -0.2784  0.0825 -0.0835
  936YOPE   GL213046   5.583   4.683   5.950  0.0484  0.1785  0.2683
  936YOPE   C1A13047   6.104   4.406   6.223 -0.2316 -0.0433  0.2287
  936YOPE   D2A13048   6.346   4.793   6.419 -0.1312  0.1205 -0.2658
  936YOPE   C3A13049   6.168   5.110   6.768 -0.0944  0.2463  0.0629
  936YOPE   C4A13050   6.233   5.004   7.157  0.2950 -0.1154  0.0340
  936YOPE   C1B13051   5.620   4.381   6.339  0.1261 -0.1241 -0.0905
  936YOPE   C2B13052   5.565   4.159   6.677 -0.1000  0.0266 -0.0380
  936YOPE   D3B13053   5.536   3.949   7.076  0.0240  0.2190  0.1878
  936YOPE   C4B13054   5.438   3.839   7.534  0.0151 -0.0943  0.1897
  937YOPE   NH313055  17.689   6.931   5.766 -0.0348 -0.1159 -0.0846
  937YOPE   PO413056  17.682   7.384   5.712 -0.2645 -0.0390  0.1666
  937YOPE   GL113057  17.678   7.378   6.206 -0.1616 -0.1061 -0.0443
  937YOPE   GL213058  17.670   7.105   6.355 -0.5828  0.1258 -0.0674
  937YOPE   C1A13059  17.763   7.642   6.672  0.4952  0.1955  0.1091
  937YOPE   D2A13060  17.574   7.502   7.038 -0.0139 -0.0710  0.0574
  937YOPE   C3A13061  17.622   7.636   7.425 -0.1192  0.2013 -0.1528
  937YOPE   C4A13062  17.560   7.692   7.798  0.2654 -0.2280  0.3172
  937YOPE   C1B13063  17.832   7.114   6.853 -0.3582  0.1566  0.4114
  937YOPE   C2B13064  17.801   7.189   7.359  0.2522  0.2363  0.1672
  937YOPE   D3B13065  17.635   7.208   7.774  0.2336  0.1692  0.2428
  937YOPE   C4B13066  17.348   7.043   8.129  0.0521  0.1960  0.1130
  938YOPE   NH313067  10.192   1.334   5.783  0.1291  0.0727 -0.2629
  938YOPE   PO413068   9.853   1.354   6.049  0.2198 -0.2294  0.0755
  938YOPE   GL113069   9.821   1.228   6.369 -0.3101 -0.0489 -0.2594
  938YOPE   GL213070   9.480   1.165   6.315 -0.0441 -0.3606 -0.0670
  938YOPE   C1A13071   9.740   1.312   6.836 -0.4750 -0.1912 -0.2053
  938YOPE   D2A13072   9.588   1.309   7.294 -0.0715  0.1891 -0.0980
  938YOPE   C3A13073   9.153   1.218   7.507 -0.1525  0.2127 -0.1132
  938YOPE   C4A13074   9.020   1.100   7.903 -0.1083 -0.1308 -0.2843
  938YOPE   C1B13075   9.424   1.001   6.617  0.1919 -0.1622 -0.0657
  938YOPE   C2B13076   9.265   0.985   6.984  0.3183  0.1415 -0.1911
  938YOPE   D3B13077   9.021   0.716   7.279  0.2838 -0.0034 -0.1406
  938YOPE   C4B13078   8.990   0.551   7.708 -0.1640  0.0833 -0.0756
  939YOPE   NH313079  14.508   4.169   6.152  0.0442 -0.1623  0.0998
  939YOPE   PO413080  14.098   4.261   6.185 -0.4685 -0.1239 -0.2121
  939YOPE   GL113081  14.240   4.260   6.602 -0.1824  0.0728 -0.1164
  939YOPE   GL213082  14.622   4.384   6.661  0.2065  0.0358 -0.0585
  939YOPE   C1A13083  13.876   4.224   6.908  0.1322  0.1851 -0.1769
  939YOPE   D2A13084  13.700   4.310   7.362 -0.0398 -0.1870  0.0298
  939YOPE   C3A13085  13.975   4.618   7.515  0.1358 -0.0361 -0.0961
  939YOPE   C4A13086  14.017   4.815   7.910 -0.1893  0.0923  0.0293
  939YOPE   C1B13087  14.610   4.124   7.023 -0.0706 -0.0946  0.2143
  939YOPE   C2B13088  14.198   4.045   7.243 -0.2768 -0.2044  0.3412
  939YOPE   D3B13089  14.104   4.170   7.701  0.0089  0.0868 -0.1213
  939YOPE   C4B13090  13.777   4.233   8.029 -0.2147 -0.1454 -0.0132
  940YOPE   NH313091   7.958  15.314   6.019 -0.2427 -0.1485  0.1880
  940YOPE   PO413092   7.455  15.397   5.981 -0.2993  0.2479  0.0603
  940YOPE   GL113093   7.178  15.210   6.359 -0.2137  0.4817  0.3178
  940YOPE   GL213094   7.047  15.466   6.476  0.0869 -0.0214  0.0401
  940YOPE   C1A13095   7.034  15.041   6.799 -0.0668  0.0848  0.1194
  940YOPE   D2A13096   6.708  15.024   6.991 -0.0630 -0.1625  0.1680
  940YOPE   C3A13097   6.644  14.924   7.334  0.0357  0.1205  0.0214
  940YOPE   C4A13098   6.278  15.033   7.661 -0.1153  0.3455 -0.0138
  940YOPE   C1B13099   7.073  15.832   6.778 -0.3257  0.2513  0.0638
  940YOPE   C2B13100   7.134  15.889   7.221  0.2126  0.0950 -0.0689
  940YOPE   D3B13101   7.151  16.208   7.524 -0.0853  0.1076  0.0412
  940YOPE   C4B13102   6.806  16.550   7.536  0.2046  0.0441 -0.0964
  941YOPE   NH313103  17.303  15.887   5.633  0.2729  0.3086  0.0496
  941YOPE   PO413104  17.123  15.862   5.971  0.0403 -0.1270  0.0391
  941YOPE   GL113105  16.963  15.602   6.436  0.1371 -0.3592 -0.0884
  941YOPE   GL213106  16.677  15.672   6.558  0.1254  0.3209 -0.0542
  941YOPE   C1A13107  17.001  15.351   6.901  0.1448  0.1259  0.1274
  941YOPE   D2A13108  17.183  14.909   7.065  0.0394  0.1697 -0.0488
  941YOPE   C3A13109  16.964  14.858   7.501 -0.1506 -0.0313 -0.2044
  941YOPE   C4A13110  16.820  14.926   7.833  0.2899 -0.2078 -0.0573
  941YOPE   C1B13111  16.630  15.690   6.971 -0.1742 -0.3941 -0.4061
  941YOPE   C2B13112  16.691  15.630   7.387  0.1997  0.2336  0.0187
  941YOPE   D3B13113  16.738  15.377   7.705 -0.2965 -0.0549  0.0848
  941YOPE   C4B13114  16.322  15.294   7.950 -0.1146 -0.2145  0.0526
  942POPC   NC313115  17.709  14.526   5.660 -0.2354  0.1397  0.1408
  942POPC   PO413116  18.042  14.677   5.873 -0.0210 -0.2134 -0.2660
  942POPC   GL113117  17.813  14.663   6.196 -0.0155  0.0869 -0.0829
  942POPC   GL213118  17.903  14.398   6.506  0.0351 -0.2140  0.0827
  942POPC   C1A13119  17.579  14.775   6.607  0.0004  0.0557 -0.0030
  942POPC   D2A13120  17.690  14.534   6.951 -0.0860  0.0611  0.0643
  942POPC   C3A13121  17.531  14.699   7.323 -0.3837 -0.1790  0.1370
  942POPC   C4A13122  17.430  14.841   7.624  0.2084  0.0508  0.1325
  942POPC   C1B13123  18.133  14.373   6.954 -0.0671  0.3879 -0.1730
  942POPC   C2B13124  18.209  14.214   7.313  0.2465  0.3084 -0.0590
  942POPC   C3B13125  18.193  14.117   7.775 -0.0724  0.3023  0.0562
  942POPC   C4B13126  17.833  13.948   7.897 -0.2038 -0.0330 -0.0894
  943POPC   NC313127  13.833  13.856   5.577  0.1656 -0.1902 -0.0336
  943POPC   PO413128  14.026  14.236   5.650 -0.0792  0.2011 -0.1189
  943POPC   GL113129  14.245  14.424   6.053  0.0153  0.3228 -0.2730
  943POPC   GL213130  13.874  14.563   6.234  0.1922  0.0140 -0.1855
  943POPC   C1A13131  14.514  14.302   6.327  0.2789 -0.1144  0.1515
  943POPC   D2A13132  14.964  14.447   6.353 -0.0736 -0.1409 -0.0057
  943POPC   C3A13133  15.095  14.494   6.764 -0.2086  0.1515 -0.0270
  943POPC   C4A13134  15.167  14.439   7.259 -0.2125  0.2052 -0.0079
  943POPC   C1B13135  13.750  14.709   6.598 -0.1052  0.2181  0.2337
  943POPC   C2B13136  13.797  14.675   7.058  0.1463 -0.2218  0.0714
  943POPC   C3B13137  13.869  14.595   7.540 -0.0711 -0.0715 -0.2669
  943POPC   C4B13138  14.049  14.611   7.926  0.3155  0.1501 -0.0404
  944POPC   NC313139   0.934   4.668   6.164 -0.0335 -0.0768 -0.2403
  944POPC   PO413140   0.636   5.030   6.176  0.1218 -0.2015 -0.1115
  944POPC   GL113141   0.784   5.158   6.584 -0.1025  0.2562  0.1444
  944POPC   GL213142   0.419   5.285   6.645  0.0196 -0.2031  0.0692
  944POPC   C1A13143   0.806   4.898   6.950 -0.0338  0.1882 -0.4215
  944POPC   D2A13144   0.884   4.596   7.330  0.1278 -0.4674 -0.0898
  944POPC   C3A13145   0.909   4.785   7.683  0.1489  0.0284  0.0450
  944POPC   C4A13146   0.657   5.015   7.953  0.0485 -0.1619  0.5031
  944POPC   C1B13147   0.485   5.259   7.024  0.0331 -0.1030  0.2471
  944POPC   C2B13148   0.563   5.186   7.466 -0.2535  0.0750 -0.2244
  944POPC   C3B13149   0.212   5.164   7.763 -0.0287 -0.1158  0.2950
  944POPC   C4B13150  -0.188   5.312   7.970  0.2106  0.2546  0.1474
  945POPC   NC313151   9.688   9.881   5.631 -0.1242  0.1393  0.4230
  945POPC   PO413152   9.947  10.129   5.396  0.2009 -0.1677 -0.0670
  945POPC   GL113153  10.012  10.151   5.873 -0.3159  0.0332 -0.0891
  945POPC   GL213154  10.235  10.378   5.946  0.1856 -0.0391 -0.0190
  945POPC   C1A13155   9.924  10.310   6.267 -0.1409  0.2696 -0.1011
  945POPC   D2A13156   9.972  10.301   6.834 -0.1636  0.0984 -0.1595
  945POPC   C3A13157  10.097  10.034   7.080  0.1429 -0.1249  0.1533
  945POPC   C4A13158  10.222   9.706   7.330 -0.1303  0.0528 -0.1472
  945POPC   C1B13159  10.424  10.356   6.345  0.0026 -0.1473 -0.0657
  945POPC   C2B13160  10.498  10.208   6.738  0.3053  0.2539 -0.3530
  945POPC   C3B13161  10.590  10.022   7.132  0.0212 -0.1231 -0.2039
  945POPC   C4B13162  10.697   9.807   7.520  0.1870  0.0702 -0.1871
  946POPC   NC313163  12.933  13.657   5.750  0.1630  0.0421 -0.0018
  946POPC   PO413164  12.507  13.454   5.956  0.1134 -0.1760  0.1163
  946POPC   GL113165  12.654  13.515   6.288 -0.0538 -0.1320 -0.0058
  946POPC   GL213166  12.947  13.512   6.280  0.3377  0.2371 -0.0058
  946POPC   C1A13167  12.577  13.696   6.765 -0.0795 -0.1241 -0.1457
  946POPC   D2A13168  12.354  13.835   7.073 -0.0132  0.1407 -0.0870
  946POPC   C3A13169  11.966  14.049   6.984  0.1510  0.0403 -0.0933
  946POPC   C4A13170  11.510  14.020   6.893  0.0693 -0.0463  0.0697
  946POPC   C1B13171  12.995  13.311   6.656  0.2294 -0.2724 -0.0220
  946POPC   C2B13172  13.121  13.051   7.017  0.2034  0.1428  0.1951
  946POPC   C3B13173  13.074  12.733   7.247 -0.1269 -0.1039  0.2520
  946POPC   C4B13174  13.339  12.434   7.401 -0.3490 -0.2250  0.2991
  947POPC   NC313175  11.667   3.314   5.314 -0.2012 -0.1030  0.1316
  947POPC   PO413176  11.737   2.875   5.267  0.2126  0.1287 -0.0271
  947POPC   GL113177  11.493   2.919   5.631 -0.0696 -0.0899  0.3401
  947POPC   GL213178  11.584   2.683   5.878 -0.0922 -0.1336  0.2158
  947POPC   C1A13179  11.296   3.206   5.893 -0.1477  0.0246  0.0259
  947POPC   D2A13180  10.998   3.408   6.187 -0.2507  0.0505 -0.1084
  947POPC   C3A13181  11.017   3.227   6.530  0.1430 -0.2207 -0.1370
  947POPC   C4A13182  11.027   3.013   6.875  0.2401 -0.0366  0.0033
  947POPC   C1B13183  11.467   2.461   6.209  0.3732  0.0071 -0.0422
  947POPC   C2B13184  11.538   2.333   6.634 -0.1726 -0.0393 -0.0675
  947POPC   C3B13185  11.341   2.178   7.038 -0.1865  0.0759 -0.0131
  947POPC   C4B13186  11.080   1.944   7.335 -0.0641 -0.1617  0.1523
  948POPC   NC313187   1.867  12.898   5.221  0.0654 -0.3561  0.1422
  948POPC   PO413188   1.813  12.945   5.705 -0.0399  0.5142  0.0788
  948POPC   GL113189   1.939  13.057   6.161 -0.3524  0.1596  0.2185
  948POPC   GL213190   2.172  13.228   6.309 -0.1052 -0.0689 -0.1277
  948POPC   C1A13191   1.824  12.969   6.626  0.2308 -0.1058 -0.2961
  948POPC   D2A13192   1.744  12.927   7.090  0.1505  0.0998 -0.2604
  948POPC   C3A13193   1.466  12.946   7.421  0.1357  0.0796 -0.3524
  948POPC   C4A13194   1.375  13.045   7.907 -0.1491 -0.0061 -0.1200
  948POPC   C1B13195   1.740  13.432   6.360 -0.0708  0.2222 -0.0160
  948POPC   C2B13196   1.439  13.470   6.664  0.0507 -0.1516 -0.0388
  948POPC   C3B13197   1.069  13.513   6.889 -0.1475  0.2469 -0.1323
  948POPC   C4B13198   0.930  13.641   7.191  0.1239  0.0694 -0.2946
  949POPC   NC313199   9.821  13.606   5.238  0.0215 -0.1864  0.2393
  949POPC   PO413200   9.601  13.695   5.619  0.0708 -0.0578  0.3038
  949POPC   GL113201   9.674  13.689   6.035  0.1689 -0.3989  0.1246
  949POPC   GL213202   9.858  13.464   6.250 -0.3150 -0.0288  0.2771
  949POPC   C1A13203   9.509  13.810   6.454  0.0634 -0.2764 -0.1001
  949POPC   D2A13204   9.247  13.958   6.847  0.0187 -0.1377  0.0188
  949POPC   C3A13205   9.398  14.092   7.158 -0.3503  0.1599  0.3673
  949POPC   C4A13206   9.535  14.301   7.418 -0.1070  0.4242  0.0555
  949POPC   C1B13207   9.883  13.617   6.612  0.0253  0.3275 -0.2273
  949POPC   C2B13208   9.813  13.855   7.014 -0.0869 -0.1021 -0.1804
  949POPC   C3B13209   9.980  14.097   7.328  0.0628  0.1655  0.1573
  949POPC   C4B13210  10.083  14.322   7.729  0.2608 -0.0017  0.2949
  950POPC   NC313211   2.226   2.576   6.297 -0.2405 -0.2774  0.1028
  950POPC   PO413212   2.214   2.122   6.387 -0.0794  0.0415 -0.0559
  950POPC   GL113213   2.114   1.997   6.704  0.0149 -0.0349  0.1727
  950POPC   GL213214   2.093   2.277   6.902 -0.2812  0.0374  0.2393
  950POPC   C1A13215   2.122   1.820   7.093 -0.0005  0.2765 -0.1695
  950POPC   D2A13216   1.979   1.881   7.378  0.0256  0.2742 -0.0947
  950POPC   C3A13217   1.442   1.934   7.458  0.1443 -0.1534 -0.0460
  950POPC   C4A13218   0.974   1.977   7.646  0.2222  0.0966 -0.0108
  950POPC   C1B13219   2.283   2.303   7.280 -0.1400 -0.0808 -0.1858
  950POPC   C2B13220   2.305   2.201   7.654 -0.1987 -0.0171 -0.0735
  950POPC   C3B13221   2.091   2.342   8.050 -0.1012 -0.1069 -0.1649
  950POPC   C4B13222   2.011   2.455   8.532 -0.1090  0.4503  0.2347
  951POPC   NC313223  12.108  12.144   5.800 -0.1427  0.0926 -0.2211
  951POPC   PO413224  11.982  12.545   5.807 -0.0362 -0.4014  0.1586
  951POPC   GL113225  12.117  12.712   6.211  0.0599 -0.1583  0.1470
  951POPC   GL213226  12.177  13.053   6.193  0.0308 -0.1466  0.1664
  951POPC   C1A13227  12.314  12.595   6.669 -0.3172  0.1716  0.3209
  951POPC   D2A13228  12.409  12.315   6.887 -0.2220 -0.1736  0.1864
  951POPC   C3A13229  12.141  12.116   7.202  0.2652 -0.0553  0.4464
  951POPC   C4A13230  11.969  11.709   7.216 -0.0121  0.1872  0.1680
  951POPC   C1B13231  12.495  13.160   6.604 -0.3158 -0.2657 -0.0413
  951POPC   C2B13232  12.594  13.281   6.995  0.0287 -0.0723  0.0230
  951POPC   C3B13233  12.408  13.450   7.384 -0.3381  0.0260 -0.1267
  951POPC   C4B13234  12.606  13.224   7.754  0.1333  0.1166 -0.3004
  952POPC   NC313235   6.406   2.980   5.351 -0.2777 -0.1167 -0.0430
  952POPC   PO413236   6.096   2.683   5.486 -0.1226 -0.1888 -0.1311
  952POPC   GL113237   6.098   2.665   5.933  0.0197  0.0650  0.0053
  952POPC   GL213238   5.831   2.671   6.017 -0.2113 -0.2655 -0.1288
  952POPC   C1A13239   6.185   2.707   6.326  0.0943 -0.0509 -0.1601
  952POPC   D2A13240   6.235   2.844   6.782  0.2898 -0.2071  0.4204
  952POPC   C3A13241   6.707   2.831   6.908  0.1077 -0.1045 -0.0404
  952POPC   C4A13242   6.817   3.099   7.250  0.1236 -0.1307  0.1666
  952POPC   C1B13243   5.680   2.738   6.438 -0.0971  0.0204  0.0725
  952POPC   C2B13244   5.646   2.653   6.789 -0.0043 -0.1002  0.2025
  952POPC   C3B13245   5.870   2.512   7.121  0.0490 -0.4021 -0.1542
  952POPC   C4B13246   6.015   2.516   7.498 -0.1771 -0.0905  0.0371
  953POPC   NC313247   1.872  14.306   5.185  0.3522  0.1076  0.2391
  953POPC   PO413248   2.325  14.272   5.346 -0.1004 -0.2300 -0.1277
  953POPC   GL113249   2.339  14.225   5.763 -0.1168 -0.3334 -0.5304
  953POPC   GL213250   2.601  14.084   5.975 -0.0797 -0.3526 -0.0609
  953POPC   C1A13251   2.162  14.259   6.256  0.1480 -0.0398  0.0537
  953POPC   D2A13252   2.284  14.170   6.666  0.1813 -0.3329 -0.2140
  953POPC   C3A13253   2.211  13.721   6.965  0.3271 -0.0841 -0.0606
  953POPC   C4A13254   2.056  13.377   6.835 -0.1235  0.0722 -0.0268
  953POPC   C1B13255   2.744  14.013   6.440  0.0779  0.0708  0.0404
  953POPC   C2B13256   2.677  13.892   6.836 -0.1575  0.2024  0.0835
  953POPC   C3B13257   2.608  13.757   7.236 -0.0070 -0.3419  0.0009
  953POPC   C4B13258   2.975  13.621   7.396 -0.0247 -0.1052 -0.2513
  954POPC   NC313259   0.461   3.247   6.350 -0.1939 -0.0608 -0.1411
  954POPC   PO413260   0.757   3.540   6.511  0.3064  0.1043  0.0805
  954POPC   GL113261   0.927   3.451   6.857  0.1521  0.0428 -0.0746
  954POPC   GL213262   0.810   3.088   6.811  0.3972  0.5555  0.1584
  954POPC   C1A13263   1.015   3.375   7.277  0.2277  0.1019 -0.0693
  954POPC   D2A13264   1.068   3.430   7.654  0.2760  0.1266  0.0131
  954POPC   C3A13265   0.906   3.697   7.878  0.0819  0.0745  0.0106
  954POPC   C4A13266   0.957   3.811   8.327  0.0921 -0.1195  0.0895
  954POPC   C1B13267   0.865   2.861   7.191  0.1691  0.2371  0.0143
  954POPC   C2B13268   0.966   2.946   7.666  0.2628  0.0149  0.0324
  954POPC   C3B13269   0.933   3.153   8.120 -0.1362 -0.1191  0.2680
  954POPC   C4B13270   0.982   3.357   8.531 -0.0584 -0.1180  0.0069
  955POPC   NC313271   1.344   2.718   6.241 -0.2285  0.0967 -0.0839
  955POPC   PO413272   0.844   2.837   6.355  0.1654 -0.1355 -0.3031
  955POPC   GL113273   0.622   2.626   6.672 -0.0497 -0.0936  0.2315
  955POPC   GL213274   0.588   2.419   6.643 -0.0514 -0.1856 -0.3063
  955POPC   C1A13275   0.363   2.781   7.025 -0.1995 -0.0300  0.0734
  955POPC   D2A13276   0.077   2.975   7.305 -0.0388  0.0126  0.1956
  955POPC   C3A13277   0.057   2.939   7.722  0.0341  0.2776  0.0288
  955POPC   C4A13278   0.016   3.019   8.166  0.0998 -0.1511  0.3560
  955POPC   C1B13279   0.624   2.405   7.130 -0.1942  0.3014  0.1030
  955POPC   C2B13280   0.561   2.214   7.407 -0.2815 -0.2036  0.1452
  955POPC   C3B13281   0.358   2.203   7.717 -0.2374 -0.2257 -0.0011
  955POPC   C4B13282   0.567   2.081   8.138  0.3047 -0.3628  0.1933
  956POPC   NC313283  13.476   5.757   6.145 -0.4872 -0.0772  0.0087
  956POPC   PO413284  13.116   5.909   6.089 -0.3340 -0.0591 -0.1102
  956POPC   GL113285  13.162   6.276   6.426  0.2374  0.1757  0.1923
  956POPC   GL213286  12.865   6.469   6.417 -0.1296  0.1396 -0.0792
  956POPC   C1A13287  13.130   6.134   6.828  0.0955  0.0762  0.0207
  956POPC   D2A13288  13.096   5.896   7.164 -0.0191  0.2189  0.1415
  956POPC   C3A13289  13.263   5.886   7.713 -0.3367  0.0478 -0.0666
  956POPC   C4A13290  13.573   5.573   7.794 -0.0773  0.1309  0.0824
  956POPC   C1B13291  13.078   6.603   6.795 -0.1994 -0.1317  0.0307
  956POPC   C2B13292  13.115   6.929   7.154  0.0367  0.1855 -0.3838
  956POPC   C3B13293  13.074   6.877   7.473  0.0477 -0.1095 -0.4041
  956POPC   C4B13294  13.080   6.903   7.920 -0.0944 -0.0388 -0.1872
  957POPC   NC313295  11.334  17.002   6.389  0.2699  0.2090  0.0083
  957POPC   PO413296  11.200  16.619   6.165  0.0512  0.0031  0.5618
  957POPC   GL113297  11.224  16.481   6.553 -0.2680 -0.3113  0.0428
  957POPC   GL213298  11.332  16.694   6.794 -0.3534 -0.3076 -0.1371
  957POPC   C1A13299  11.384  16.208   6.882  0.2063 -0.2799 -0.5146
  957POPC   D2A13300  11.587  16.056   7.246 -0.0171  0.0059  0.0654
  957POPC   C3A13301  11.923  15.687   7.127  0.2305  0.2066 -0.1362
  957POPC   C4A13302  12.141  15.344   7.196  0.2091 -0.0887 -0.0515
  957POPC   C1B13303  11.450  16.604   7.274 -0.1801  0.1203  0.0222
  957POPC   C2B13304  11.504  16.408   7.615  0.1073  0.1027 -0.0580
  957POPC   C3B13305  11.540  16.411   8.036 -0.0100 -0.1553  0.0141
  957POPC   C4B13306  11.661  16.129   8.350  0.1622  0.4428 -0.1646
  958POPC   NC313307   5.698   2.490   5.253 -0.3217 -0.0319 -0.0114
  958POPC   PO413308   5.756   2.195   5.643 -0.1940  0.1369  0.2542
  958POPC   GL113309   5.705   2.197   6.074 -0.2124  0.2166  0.1119
  958POPC   GL213310   5.642   1.935   6.176  0.1749  0.2306 -0.0119
  958POPC   C1A13311   5.946   2.296   6.347  0.1358  0.2273  0.2015
  958POPC   D2A13312   6.098   2.266   6.711 -0.0550 -0.0536  0.1226
  958POPC   C3A13313   6.470   2.349   6.999 -0.0195  0.0187 -0.2917
  958POPC   C4A13314   6.561   2.255   7.466  0.0630 -0.0704  0.0582
  958POPC   C1B13315   5.586   1.622   6.457  0.1366 -0.1750  0.1806
  958POPC   C2B13316   5.564   1.399   6.807  0.0072  0.0853 -0.0221
  958POPC   C3B13317   5.328   1.372   7.256 -0.3634  0.1597 -0.2023
  958POPC   C4B13318   5.160   1.195   7.603  0.0597 -0.2216 -0.1910
  959POPC   NC313319   4.104  11.000   5.618  0.0681  0.3950 -0.0929
  959POPC   PO413320   3.821  10.966   5.962  0.1095 -0.0328 -0.0369
  959POPC   GL113321   3.839  10.870   6.360  0.0284  0.3036  0.0439
  959POPC   GL213322   3.564  10.901   6.471  0.1189 -0.0405  0.2953
  959POPC   C1A13323   4.027  10.860   6.711 -0.1778  0.1316 -0.1878
  959POPC   D2A13324   4.044  11.031   7.105 -0.1407 -0.2193 -0.2456
  959POPC   C3A13325   4.042  10.831   7.515  0.0352 -0.0015 -0.2388
  959POPC   C4A13326   4.213  10.848   7.941  0.0150 -0.2013  0.2613
  959POPC   C1B13327   3.506  10.973   6.827  0.2089 -0.3699 -0.1529
  959POPC   C2B13328   3.471  10.815   7.263 -0.0168 -0.0297  0.2993
  959POPC   C3B13329   3.563  10.614   7.728 -0.1294 -0.1597  0.1548
  959POPC   C4B13330   3.713  10.442   8.038 -0.2137  0.1868 -0.1715
  960POPC   NC313331  16.255   2.876   5.661 -0.1461 -0.0022 -0.0683
  960POPC   PO413332  16.269   3.097   6.104 -0.2176 -0.1035  0.0827
  960POPC   GL113333  16.333   3.152   6.539 -0.0404  0.1329  0.1855
  960POPC   GL213334  16.345   3.421   6.572  0.1769  0.5399  0.0924
  960POPC   C1A13335  16.407   3.085   6.974 -0.0576  0.0819  0.0373
  960POPC   D2A13336  16.501   3.075   7.386  0.1600 -0.1227 -0.4650
  960POPC   C3A13337  16.344   3.181   7.788 -0.2274  0.1833  0.1763
  960POPC   C4A13338  16.092   3.528   8.005  0.0046  0.2534 -0.1662
  960POPC   C1B13339  16.546   3.538   6.954  0.0283 -0.1828  0.2838
  960POPC   C2B13340  16.637   3.573   7.452  0.0119  0.5504 -0.3958
  960POPC   C3B13341  16.642   3.565   7.912 -0.1456  0.0439 -0.0451
  960POPC   C4B13342  16.569   3.600   8.335  0.3908  0.2465  0.0901
  961POPC   NC313343  16.475  13.544   5.330  0.1471  0.0613  0.0057
  961POPC   PO413344  16.523  13.734   5.734  0.0698 -0.1361  0.2638
  961POPC   GL113345  16.615  13.898   6.197 -0.0424 -0.1237 -0.0356
  961POPC   GL213346  16.433  13.974   6.494 -0.0733 -0.0875 -0.0407
  961POPC   C1A13347  16.694  13.585   6.557  0.3024 -0.0796 -0.3407
  961POPC   D2A13348  17.104  13.438   6.871  0.0696  0.0416 -0.1262
  961POPC   C3A13349  17.306  13.095   7.102 -0.0874  0.0070  0.0382
  961POPC   C4A13350  17.193  13.004   7.500  0.0188 -0.0647 -0.0670
  961POPC   C1B13351  16.471  14.123   6.954  0.0311 -0.0066  0.1482
  961POPC   C2B13352  16.168  14.359   7.181  0.0372 -0.1625  0.0544
  961POPC   C3B13353  16.344  14.815   7.288 -0.2926  0.3117  0.0520
  961POPC   C4B13354  16.701  15.147   7.235  0.1396 -0.0500  0.1461
  962POPC   NC313355   8.528   8.552   5.206  0.2217 -0.1849  0.0931
  962POPC   PO413356   8.912   8.377   5.506 -0.0699 -0.1518  0.1248
  962POPC   GL113357   9.104   8.592   5.916 -0.5446  0.1219 -0.3931
  962POPC   GL213358   9.253   8.897   5.998  0.0322 -0.5248 -0.2008
  962POPC   C1A13359   8.990   8.673   6.312  0.0746 -0.0517  0.2094
  962POPC   D2A13360   8.963   8.481   6.694  0.0221 -0.1670 -0.2382
  962POPC   C3A13361   8.891   8.608   7.121 -0.0997  0.1417  0.0593
  962POPC   C4A13362   9.138   8.668   7.448 -0.1951 -0.2381 -0.1205
  962POPC   C1B13363   9.500   8.735   6.343  0.0309  0.2923  0.2737
  962POPC   C2B13364   9.495   8.568   6.680 -0.0595  0.2701 -0.1402
  962POPC   C3B13365   9.511   8.520   7.186  0.0486  0.3306  0.0733
  962POPC   C4B13366   9.586   8.493   7.728 -0.1387 -0.0412 -0.4134
  963POPC   NC313367   7.844   0.671   5.735  0.0507 -0.2724  0.0877
  963POPC   PO413368   7.391   0.453   5.712 -0.1736  0.1374  0.0078
  963POPC   GL113369   7.390   0.598   6.117 -0.2768  0.2029 -0.2595
  963POPC   GL213370   7.180   0.723   6.127 -0.0268 -0.1484  0.1826
  963POPC   C1A13371   7.381   0.668   6.599  0.0846 -0.1386  0.0998
  963POPC   D2A13372   7.561   0.589   6.980  0.0099 -0.0263  0.0780
  963POPC   C3A13373   7.237   0.475   7.231  0.0404 -0.0339  0.1188
  963POPC   C4A13374   6.824   0.807   7.201 -0.0812 -0.4610 -0.0799
  963POPC   C1B13375   6.944   0.564   6.440  0.0785  0.3354  0.0469
  963POPC   C2B13376   6.857   0.366   6.808  0.2502  0.3613 -0.1273
  963POPC   C3B13377   6.812   0.184   7.251  0.0395  0.0486 -0.0217
  963POPC   C4B13378   6.724   0.424   7.581 -0.1585  0.1141  0.1193
  964POPC   NC313379   5.110   0.076   5.943 -0.1993  0.2142  0.0892
  964POPC   PO413380   4.889  -0.235   5.937 -0.0300 -0.1680 -0.1405
  964POPC   GL113381   4.886  -0.193   6.387 -0.2254  0.0416 -0.0448
  964POPC   GL213382   4.947   0.171   6.407  0.0307  0.0321 -0.0678
  964POPC   C1A13383   4.836  -0.132   6.797  0.0339  0.0280 -0.0447
  964POPC   D2A13384   4.626  -0.390   7.078 -0.0213  0.1321 -0.2302
  964POPC   C3A13385   4.785  -0.283   7.460 -0.0035 -0.0889  0.1032
  964POPC   C4A13386   4.954  -0.510   7.778 -0.3682  0.2970  0.0763
  964POPC   C1B13387   4.599   0.385   6.643  0.0828  0.1421  0.1623
  964POPC   C2B13388   4.260   0.536   6.973 -0.0915 -0.0640  0.2595
  964POPC   C3B13389   4.109   0.450   7.344 -0.1318  0.0369  0.3467
  964POPC   C4B13390   3.797   0.255   7.510 -0.0358 -0.2874 -0.2611
  965POPC   NC313391   1.087  14.539   5.703 -0.2310 -0.2812  0.2518
  965POPC   PO413392   1.264  15.099   5.731  0.0098  0.0014 -0.1642
  965POPC   GL113393   1.066  15.010   6.062 -0.5379 -0.2870 -0.0615
  965POPC   GL213394   1.145  14.590   6.204  0.1658 -0.0024 -0.0493
  965POPC   C1A13395   1.016  15.015   6.513 -0.2765 -0.1554 -0.1569
  965POPC   D2A13396   1.351  14.946   6.902 -0.1000  0.0748 -0.3480
  965POPC   C3A13397   1.250  14.651   7.260 -0.3772 -0.1061  0.2479
  965POPC   C4A13398   1.046  14.328   7.316  0.2863 -0.3483 -0.2811
  965POPC   C1B13399   1.408  14.506   6.518 -0.2897  0.0326  0.0170
  965POPC   C2B13400   1.762  14.256   6.577 -0.2332  0.1721 -0.1745
  965POPC   C3B13401   1.906  14.258   7.038  0.3346  0.0784  0.2255
  965POPC   C4B13402   2.295  14.175   7.150  0.3138  0.0993  0.0745
  966POPC   NC313403  12.533  17.255   5.609 -0.1134  0.0630 -0.0091
  966POPC   PO413404  12.501  17.300   6.064  0.2180  0.4158  0.1480
  966POPC   GL113405  12.512  17.527   6.458 -0.1470  0.2020 -0.3784
  966POPC   GL213406  12.847  17.563   6.711  0.0943 -0.1219  0.0341
  966POPC   C1A13407  12.198  17.765   6.629  0.1699 -0.0119  0.0694
  966POPC   D2A13408  11.793  17.908   6.783  0.1641  0.0127 -0.1477
  966POPC   C3A13409  11.881  18.255   6.962  0.4129 -0.1733  0.1727
  966POPC   C4A13410  12.332  18.254   6.841 -0.0917 -0.0931 -0.0197
  966POPC   C1B13411  12.634  17.502   7.172 -0.2609 -0.1614  0.1961
  966POPC   C2B13412  12.400  17.493   7.566  0.1994  0.0952 -0.2072
  966POPC   C3B13413  12.249  17.844   7.685  0.0911 -0.0551 -0.3300
  966POPC   C4B13414  12.121  18.143   8.062 -0.0207 -0.2420  0.1386
  967POPC   NC313415   4.364  10.046   5.598  0.0808 -0.2115 -0.1193
  967POPC   PO413416   4.193   9.797   6.045  0.1581  0.0069  0.0366
  967POPC   GL113417   4.133   9.828   6.491 -0.0405  0.1282  0.0577
  967POPC   GL213418   3.956   9.516   6.465 -0.1615  0.0636  0.0669
  967POPC   C1A13419   4.203  10.056   6.832 -0.0391 -0.0370 -0.2375
  967POPC   D2A13420   4.381  10.269   7.216  0.0733 -0.1437 -0.1095
  967POPC   C3A13421   4.557  10.525   7.485  0.2122  0.0084  0.4064
  967POPC   C4A13422   4.711  10.882   7.784  0.0844  0.0136  0.1862
  967POPC   C1B13423   3.983   9.431   6.891 -0.0742 -0.1584 -0.0589
  967POPC   C2B13424   3.999   9.329   7.318  0.0693  0.2269  0.0448
  967POPC   C3B13425   4.042   9.379   7.757  0.1812 -0.0908  0.0274
  967POPC   C4B13426   3.942   9.485   8.144  0.1872  0.1366 -0.0880
  968POPC   NC313427   5.609   6.727   5.961 -0.1016 -0.0121 -0.3582
  968POPC   PO413428   5.985   6.676   6.020  0.2417 -0.0651  0.0371
  968POPC   GL113429   6.190   6.687   6.388 -0.1749  0.2138  0.3645
  968POPC   GL213430   6.059   6.938   6.602 -0.1140 -0.2418  0.0464
  968POPC   C1A13431   6.229   6.528   6.782  0.0242 -0.3540  0.1261
  968POPC   D2A13432   6.372   6.470   7.233  0.1473  0.2130 -0.2529
  968POPC   C3A13433   6.812   6.597   7.394  0.2010 -0.3704  0.0955
  968POPC   C4A13434   7.155   6.497   7.610 -0.2318  0.0846  0.0448
  968POPC   C1B13435   5.870   6.859   6.971 -0.0018  0.0204 -0.1312
  968POPC   C2B13436   5.962   6.767   7.391  0.1128 -0.3053 -0.0378
  968POPC   C3B13437   5.943   6.657   7.762 -0.1106  0.2112 -0.3540
  968POPC   C4B13438   5.649   6.413   8.025 -0.0428 -0.0271  0.1200
  969POPC   NC313439   1.923   9.641   5.419 -0.0418 -0.0515  0.0142
  969POPC   PO413440   1.686   9.706   5.817 -0.0607 -0.0294 -0.0069
  969POPC   GL113441   1.688   9.695   6.210 -0.1853 -0.1221 -0.1043
  969POPC   GL213442   1.510  10.042   6.328  0.4201 -0.3289 -0.0290
  969POPC   C1A13443   1.528   9.608   6.546  0.0628 -0.0918  0.0369
  969POPC   D2A13444   1.266   9.424   6.866 -0.3060 -0.1907  0.0028
  969POPC   C3A13445   1.100   9.289   7.250 -0.3042 -0.0486 -0.0580
  969POPC   C4A13446   1.013   9.147   7.737 -0.2676  0.1651  0.0114
  969POPC   C1B13447   1.212   9.971   6.669  0.0318 -0.3793  0.2627
  969POPC   C2B13448   1.020  10.090   7.105  0.1601  0.1330 -0.0491
  969POPC   C3B13449   0.932  10.183   7.466 -0.0102 -0.1141  0.0412
  969POPC   C4B13450   1.218  10.062   7.846  0.2392  0.0280  0.0792
  970POPC   NC313451   8.927  18.141   5.462  0.1636  0.1875  0.1016
  970POPC   PO413452   9.333  17.998   5.613 -0.1070  0.0292  0.1160
  970POPC   GL113453   9.216  18.144   6.104  0.0489 -0.1297 -0.0010
  970POPC   GL213454   8.976  18.131   6.031  0.1985 -0.2518  0.0652
  970POPC   C1A13455   9.229  18.332   6.523 -0.1714  0.3697 -0.1557
  970POPC   D2A13456   9.359  18.732   6.860  0.2588 -0.2518  0.2083
  970POPC   C3A13457   9.385  18.605   7.318  0.1115 -0.0614 -0.2905
  970POPC   C4A13458   9.573  18.214   7.529  0.1027  0.0156  0.0813
  970POPC   C1B13459   8.715  18.221   6.320  0.1653  0.0210 -0.1421
  970POPC   C2B13460   8.673  18.125   6.725 -0.1763  0.0258 -0.1816
  970POPC   C3B13461   8.548  18.002   7.133 -0.0052  0.2156  0.1841
  970POPC   C4B13462   8.254  17.638   7.491  0.1644 -0.0301 -0.2385
  971POPC   NC313463  11.463  15.942   5.859 -0.0938 -0.0617 -0.3771
  971POPC   PO413464  11.194  16.121   6.086  0.0618 -0.0817  0.2013
  971POPC   GL113465  11.540  15.991   6.397 -0.4969 -0.1033  0.1112
  971POPC   GL213466  11.737  16.340   6.522  0.1786 -0.1773  0.1897
  971POPC   C1A13467  11.900  15.861   6.619  0.2333 -0.0259  0.1598
  971POPC   D2A13468  12.267  15.971   6.886 -0.0411 -0.0678  0.0483
  971POPC   C3A13469  12.748  15.928   6.861  0.3936  0.0722  0.0893
  971POPC   C4A13470  13.153  15.915   6.618 -0.3663  0.0040 -0.2144
  971POPC   C1B13471  11.873  16.404   6.901 -0.1157  0.0145  0.0240
  971POPC   C2B13472  12.048  16.161   7.354 -0.2230  0.6240 -0.2374
  971POPC   C3B13473  12.124  15.808   7.573 -0.1046  0.0250  0.0459
  971POPC   C4B13474  12.265  15.467   7.654 -0.0054  0.0193  0.1099
  972POPC   NC313475   3.611  13.856   5.585  0.3138  0.4071 -0.0418
  972POPC   PO413476   3.145  13.813   5.435  0.2912 -0.0520 -0.1556
  972POPC   GL113477   3.082  13.919   5.900 -0.0726 -0.0762 -0.1189
  972POPC   GL213478   3.029  13.729   6.133 -0.0090  0.0003  0.0311
  972POPC   C1A13479   3.349  14.193   6.195  0.0269  0.3728  0.0108
  972POPC   D2A13480   3.263  14.083   6.586 -0.2500  0.4199 -0.0149
  972POPC   C3A13481   3.644  13.898   6.704  0.1265 -0.0558  0.1799
  972POPC   C4A13482   3.712  13.566   6.975 -0.0170 -0.0837  0.1525
  972POPC   C1B13483   2.993  13.575   6.567  0.2463 -0.1554  0.3617
  972POPC   C2B13484   3.141  13.622   6.857  0.0520 -0.1568 -0.0250
  972POPC   C3B13485   3.353  13.920   7.130 -0.0854 -0.0453  0.0559
  972POPC   C4B13486   3.571  13.783   7.482  0.0045  0.0979 -0.2037
  973POPC   NC313487   7.480  10.178   5.799  0.1798  0.0280  0.0818
  973POPC   PO413488   7.253   9.894   6.018 -0.1350 -0.0702  0.2460
  973POPC   GL113489   7.093  10.011   6.340 -0.2937  0.0772 -0.2470
  973POPC   GL213490   6.868  10.245   6.431  0.0038  0.0182  0.0461
  973POPC   C1A13491   7.250  10.034   6.762 -0.0890  0.0812  0.0562
  973POPC   D2A13492   7.199  10.055   7.176  0.0882  0.0980  0.0596
  973POPC   C3A13493   7.437   9.912   7.506 -0.2418 -0.1575  0.0411
  973POPC   C4A13494   7.604   9.685   7.926 -0.0121  0.0106 -0.0979
  973POPC   C1B13495   7.023  10.537   6.786  0.2027  0.0842  0.0065
  973POPC   C2B13496   7.145  10.570   7.269 -0.0006 -0.0680  0.4806
  973POPC   C3B13497   7.270  10.482   7.647 -0.2520 -0.4397  0.1832
  973POPC   C4B13498   7.200  10.530   7.988  0.0567  0.0122 -0.0666
  974POPC   NC313499   0.619  17.374   5.278  0.0823  0.0764  0.0686
  974POPC   PO413500   0.547  17.364   5.770 -0.3246  0.0258 -0.0682
  974POPC   GL113501   0.465  17.384   6.209 -0.0863  0.1193  0.1952
  974POPC   GL213502   0.463  17.215   6.424  0.1231  0.0125 -0.0731
  974POPC   C1A13503   0.844  17.476   6.424  0.0004 -0.3448 -0.0864
  974POPC   D2A13504   0.870  17.280   6.901 -0.0964  0.0402  0.0164
  974POPC   C3A13505   1.130  17.045   6.910  0.1136 -0.0547  0.0139
  974POPC   C4A13506   1.311  17.054   6.446 -0.0788  0.1268 -0.0866
  974POPC   C1B13507   0.377  17.079   6.900 -0.1812  0.0242 -0.4131
  974POPC   C2B13508   0.498  17.106   7.307 -0.0027  0.2263  0.0385
  974POPC   C3B13509   0.561  17.127   7.732  0.0895 -0.2470 -0.0956
  974POPC   C4B13510   0.428  17.185   8.180  0.1700 -0.1873  0.0615
  975POPC   NC313511  15.831   0.005   6.122  0.3083  0.0866  0.0931
  975POPC   PO413512  16.251  -0.106   6.215  0.0860 -0.2270 -0.2223
  975POPC   GL113513  16.224  -0.276   6.596 -0.1510 -0.3554  0.3426
  975POPC   GL213514  15.920  -0.300   6.678 -0.0666 -0.1184  0.2738
  975POPC   C1A13515  16.386  -0.397   6.964 -0.5133  0.1549 -0.0452
  975POPC   D2A13516  16.467  -0.181   7.354 -0.0812 -0.1725 -0.2699
  975POPC   C3A13517  16.384  -0.168   7.825 -0.1315 -0.0584 -0.2856
  975POPC   C4A13518  16.224  -0.270   8.220 -0.2465  0.1227 -0.0450
  975POPC   C1B13519  15.567  -0.415   6.899 -0.2746 -0.1931 -0.0203
  975POPC   C2B13520  15.456  -0.406   7.336  0.1526 -0.1780 -0.2229
  975POPC   C3B13521  15.355  -0.284   7.662  0.1857 -0.4079 -0.2512
  975POPC   C4B13522  15.340  -0.535   8.058 -0.0496 -0.1835 -0.1764
  976POPC   NC313523   9.958  14.515   6.107 -0.0507 -0.1305 -0.5293
  976POPC   PO413524  10.010  14.212   5.854 -0.2529  0.1615 -0.0163
  976POPC   GL113525   9.923  14.142   6.417 -0.1321 -0.2272 -0.3023
  976POPC   GL213526   9.645  14.247   6.667 -0.0156 -0.3379 -0.0516
  976POPC   C1A13527  10.234  14.007   6.596  0.3226 -0.1163  0.1056
  976POPC   D2A13528  10.342  13.802   6.894 -0.2195 -0.1801 -0.3622
  976POPC   C3A13529  10.265  13.338   6.950  0.1230  0.1251  0.3127
  976POPC   C4A13530  10.141  12.932   7.028  0.2828  0.0317 -0.2720
  976POPC   C1B13531   9.869  14.453   6.979 -0.2292 -0.4615 -0.2052
  976POPC   C2B13532   9.942  14.619   7.316  0.0206 -0.0449 -0.3083
  976POPC   C3B13533   9.820  14.778   7.582  0.2102  0.1786  0.0426
  976POPC   C4B13534   9.838  14.998   7.997  0.1371  0.0873  0.0583
  977POPC   NC313535  16.097   0.772   6.297  0.4542  0.1200 -0.0059
  977POPC   PO413536  15.708   0.551   6.305  0.4411  0.2907 -0.1617
  977POPC   GL113537  15.548   0.595   6.728 -0.2162 -0.1449  0.1165
  977POPC   GL213538  15.632   0.893   6.760 -0.1312  0.0762 -0.1899
  977POPC   C1A13539  15.384   0.656   7.160  0.0799 -0.0481 -0.1705
  977POPC   D2A13540  15.213   0.638   7.530  0.1402  0.0845 -0.1491
  977POPC   C3A13541  15.452   0.635   7.751  0.0473 -0.1507 -0.1803
  977POPC   C4A13542  15.829   0.650   7.935  0.4023  0.1255 -0.0191
  977POPC   C1B13543  15.544   1.189   7.061  0.1660 -0.2149  0.0460
  977POPC   C2B13544  15.446   1.088   7.457  0.2279 -0.2953  0.1733
  977POPC   C3B13545  15.233   1.125   7.729  0.4282  0.2728  0.0854
  977POPC   C4B13546  15.439   1.020   8.152  0.0223 -0.3846 -0.0069
  978POPC   NC313547  16.005   2.531   6.455 -0.1426 -0.3960 -0.5947
  978POPC   PO413548  15.863   2.948   6.408  0.0110 -0.1685 -0.1581
  978POPC   GL113549  15.816   3.133   6.819  0.0208  0.1092  0.1614
  978POPC   GL213550  16.028   3.485   6.918 -0.1979 -0.2905 -0.1910
  978POPC   C1A13551  15.697   2.921   7.217  0.0249  0.2281 -0.2054
  978POPC   D2A13552  15.361   2.956   7.528 -0.0381  0.0933 -0.1643
  978POPC   C3A13553  15.190   3.182   7.782 -0.0359 -0.2809 -0.1376
  978POPC   C4A13554  15.247   2.985   8.288  0.1023  0.0912  0.1689
  978POPC   C1B13555  16.069   3.394   7.257 -0.1436  0.0051 -0.1718
  978POPC   C2B13556  16.136   3.663   7.529  0.1063  0.0122 -0.3384
  978POPC   C3B13557  15.953   4.001   7.793 -0.1384 -0.2646 -0.2458
  978POPC   C4B13558  15.886   4.192   8.186 -0.0841  0.3252  0.0712
  979POPC   NC313559   8.858   1.414   5.748 -0.2137 -0.4424  0.1626
  979POPC   PO413560   9.049   1.736   5.817 -0.0004 -0.3600 -0.2861
  979POPC   GL113561   8.834   1.878   6.150  0.0640 -0.1631  0.0004
  979POPC   GL213562   9.030   2.093   6.258 -0.1996 -0.1752 -0.3430
  979POPC   C1A13563   8.775   1.832   6.610  0.1712  0.1884 -0.1810
  979POPC   D2A13564   8.614   1.857   6.953  0.2562 -0.0061  0.2907
  979POPC   C3A13565   8.671   1.437   7.135  0.0894  0.0384 -0.0271
  979POPC   C4A13566   8.739   1.086   7.215  0.1337 -0.3461 -0.0907
  979POPC   C1B13567   9.262   2.170   6.633  0.0114  0.0721 -0.0857
  979POPC   C2B13568   9.617   2.333   6.832  0.1324 -0.0831  0.0763
  979POPC   C3B13569   9.930   2.162   7.108 -0.1527 -0.0383 -0.0119
  979POPC   C4B13570  10.014   2.216   7.536 -0.2860 -0.1351 -0.1493
  980POPC   NC313571  18.010  11.269   5.902 -0.2081  0.0085  0.0588
  980POPC   PO413572  18.457  11.327   5.996  0.2511  0.0517 -0.2382
  980POPC   GL113573  18.227  11.276   6.432 -0.0342 -0.2079  0.2540
  980POPC   GL213574  18.069  11.048   6.422  0.4990  0.1227  0.0648
  980POPC   C1A13575  18.388  11.327   6.779  0.0406  0.0103  0.1561
  980POPC   D2A13576  18.581  11.450   7.191  0.2423 -0.1239  0.0111
  980POPC   C3A13577  18.614  11.540   7.659  0.1391  0.0145  0.2965
  980POPC   C4A13578  18.847  11.701   8.063 -0.0622  0.2441 -0.1881
  980POPC   C1B13579  18.384  10.811   6.689  0.0200  0.0460 -0.2432
  980POPC   C2B13580  18.534  10.829   7.149 -0.1616 -0.1216  0.0139
  980POPC   C3B13581  18.608  10.958   7.568  0.3054  0.0194  0.0395
  980POPC   C4B13582  18.710  11.144   7.956  0.0200  0.1992  0.1952
  981POPC   NC313583  13.151   4.065   5.639  0.4341 -0.0230 -0.1359
  981POPC   PO413584  12.876   3.746   5.531  0.1000  0.1186 -0.3359
  981POPC   GL113585  12.838   3.686   6.051 -0.0102  0.0465  0.0203
  981POPC   GL213586  13.062   4.071   6.118 -0.0745  0.1653  0.3109
  981POPC   C1A13587  12.619   3.629   6.370 -0.1429 -0.1832 -0.0114
  981POPC   D2A13588  12.506   3.379   6.700 -0.1280 -0.3895 -0.0039
  981POPC   C3A13589  12.428   3.672   7.053 -0.0669 -0.0528 -0.1828
  981POPC   C4A13590  12.357   3.787   7.469 -0.1965 -0.1869 -0.0328
  981POPC   C1B13591  12.745   4.125   6.474  0.2977  0.4227 -0.3212
  981POPC   C2B13592  12.838   4.482   6.798 -0.2290 -0.2472  0.0310
  981POPC   C3B13593  12.961   4.336   7.117 -0.3244  0.1699 -0.2714
  981POPC   C4B13594  13.200   4.196   7.452 -0.1162 -0.2060  0.0035
  982YOPC   NC313595   7.564  12.728   5.984 -0.1259 -0.0908  0.0476
  982YOPC   PO413596   7.158  12.458   6.036  0.1094  0.0251 -0.1176
  982YOPC   GL113597   7.164  12.067   6.262  0.2771  0.1914 -0.0481
  982YOPC   GL213598   7.068  11.752   6.368  0.4264  0.0988 -0.0789
  982YOPC   C1A13599   7.277  12.217   6.626  0.1219  0.2688  0.3499
  982YOPC   D2A13600   7.489  12.356   6.985  0.2726 -0.3898  0.1122
  982YOPC   C3A13601   7.389  12.368   7.342  0.0446 -0.1458  0.1727
  982YOPC   C4A13602   7.610  12.452   7.746 -0.1407 -0.2855 -0.0336
  982YOPC   C1B13603   7.129  11.707   6.733  0.0319  0.1763  0.1101
  982YOPC   C2B13604   7.069  12.083   7.055 -0.0853 -0.2620  0.0559
  982YOPC   D3B13605   7.036  11.926   7.419 -0.4260 -0.1184 -0.1523
  982YOPC   C4B13606   7.122  12.193   7.759  0.1316 -0.2599 -0.1778
  983YOPC   NC313607   3.916   1.027   5.303 -0.1316  0.0940  0.1091
  983YOPC   PO413608   3.936   0.906   5.671 -0.1803 -0.1403 -0.1607
  983YOPC   GL113609   3.876   0.858   6.139  0.1588  0.0904  0.1430
  983YOPC   GL213610   3.728   0.616   6.296  0.0629  0.1307  0.0392
  983YOPC   C1A13611   3.685   1.129   6.447 -0.0686  0.0178 -0.4013
  983YOPC   D2A13612   3.676   1.561   6.619  0.2365 -0.0311 -0.2140
  983YOPC   C3A13613   3.659   1.759   6.965 -0.4237 -0.1546  0.1230
  983YOPC   C4A13614   3.676   2.232   7.152  0.0455 -0.3100  0.1566
  983YOPC   C1B13615   3.515   0.642   6.694  0.0856  0.2843  0.0675
  983YOPC   C2B13616   3.580   0.456   7.112 -0.1777 -0.1470 -0.0680
  983YOPC   D3B13617   3.456   0.558   7.547 -0.2365 -0.0211  0.3952
  983YOPC   C4B13618   3.312   0.671   7.938  0.3204 -0.1620 -0.1820
  984YOPC   NC313619   6.016   8.931   5.780  0.2427 -0.1002 -0.4628
  984YOPC   PO413620   6.007   8.422   5.943  0.1211  0.1755 -0.1683
  984YOPC   GL113621   5.936   8.218   6.408 -0.1072 -0.4825  0.1213
  984YOPC   GL213622   6.173   8.413   6.572  0.0252  0.1339 -0.2518
  984YOPC   C1A13623   5.691   8.195   6.741 -0.1695 -0.2677  0.2209
  984YOPC   D2A13624   5.254   8.062   6.924 -0.1526 -0.2346  0.2301
  984YOPC   C3A13625   5.122   8.374   7.196 -0.2864 -0.0553 -0.0342
  984YOPC   C4A13626   4.986   8.794   7.116  0.1536  0.0748 -0.0148
  984YOPC   C1B13627   6.113   8.394   6.958 -0.0632  0.1929 -0.1888
  984YOPC   C2B13628   6.065   8.393   7.414  0.0205  0.1923 -0.0937
  984YOPC   D3B13629   5.818   8.155   7.689  0.0606  0.0191  0.2262
  984YOPC   C4B13630   5.886   7.861   8.026 -0.0400 -0.4773  0.4843
  985YOPC   NC313631   0.286  12.107   5.909 -0.2743  0.2488 -0.0300
  985YOPC   PO413632  -0.104  12.427   5.909  0.0137  0.0195 -0.3454
  985YOPC   GL113633  -0.515  12.377   6.152  0.0344  0.0215  0.0357
  985YOPC   GL213634  -0.622  12.045   6.306  0.1311 -0.1803 -0.1788
  985YOPC   C1A13635  -0.620  12.466   6.666 -0.0286  0.0068  0.1742
  985YOPC   D2A13636  -0.696  12.351   7.102  0.1479  0.1502 -0.3397
  985YOPC   C3A13637  -0.828  12.232   7.496 -0.1768 -0.0951 -0.0805
  985YOPC   C4A13638  -0.666  12.212   7.934 -0.0635 -0.2304  0.1088
  985YOPC   C1B13639  -0.520  11.936   6.763 -0.0868  0.0386 -0.0618
  985YOPC   C2B13640  -0.578  11.844   7.169 -0.1258  0.3919  0.2494
  985YOPC   D3B13641  -0.920  11.622   7.064  0.0585  0.1424 -0.1123
  985YOPC   C4B13642  -1.349  11.563   7.135 -0.1487 -0.1244  0.1978
  986YOPC   NC313643   0.109   5.157   5.861  0.1529 -0.3367  0.3843
  986YOPC   PO413644  -0.049   5.288   6.343 -0.3033 -0.0380 -0.3238
  986YOPC   GL113645  -0.090   5.121   6.658  0.3354 -0.0569 -0.1073
  986YOPC   GL213646  -0.192   4.830   6.742  0.1852 -0.1175 -0.0617
  986YOPC   C1A13647   0.029   5.505   7.011  0.0651 -0.2806  0.2871
  986YOPC   D2A13648  -0.120   5.953   7.063  0.0845 -0.1771 -0.0178
  986YOPC   C3A13649  -0.544   5.979   6.957  0.1111  0.0948 -0.1436
  986YOPC   C4A13650  -0.820   6.197   6.684  0.0225  0.1403 -0.1356
  986YOPC   C1B13651  -0.445   5.008   7.084 -0.4413  0.3495 -0.3798
  986YOPC   C2B13652  -0.861   5.162   7.227 -0.1843  0.1606 -0.0170
  986YOPC   D3B13653  -1.108   4.793   7.462 -0.0984 -0.1200 -0.2295
  986YOPC   C4B13654  -1.076   4.561   7.745  0.1204  0.0347 -0.0822
  987YOPC   NC313655   8.733  13.708   5.891 -0.0151  0.2024 -0.3275
  987YOPC   PO413656   8.422  14.015   5.934 -0.1409  0.0865 -0.1092
  987YOPC   GL113657   8.700  14.217   6.168 -0.1725 -0.4137 -0.0044
  987YOPC   GL213658   8.839  13.980   6.416 -0.1984  0.0932 -0.0180
  987YOPC   C1A13659   9.025  14.427   6.474  0.1675  0.4977  0.0442
  987YOPC   D2A13660   9.284  14.534   6.859  0.2932 -0.0262 -0.0131
  987YOPC   C3A13661   9.165  14.697   7.273 -0.0146  0.5050  0.0107
  987YOPC   C4A13662   9.290  14.629   7.673  0.1095  0.3446 -0.0865
  987YOPC   C1B13663   8.798  14.169   6.878 -0.0982  0.0284 -0.2167
  987YOPC   C2B13664   8.900  14.294   7.239 -0.0112 -0.1896  0.0361
  987YOPC   D3B13665   8.841  14.367   7.667 -0.1132  0.0332  0.2010
  987YOPC   C4B13666   8.508  14.252   7.971 -0.1246 -0.0653 -0.0443
  988YOPC   NC313667   3.924  16.730   5.916  0.1636 -0.2769  0.2807
  988YOPC   PO413668   3.387  16.600   5.853  0.0073 -0.1695 -0.4893
  988YOPC   GL113669   3.348  16.298   6.257 -0.1284 -0.1333 -0.0079
  988YOPC   GL213670   3.537  16.241   6.325 -0.1549 -0.0789  0.0355
  988YOPC   C1A13671   3.053  16.066   6.520 -0.2145 -0.0436  0.2257
  988YOPC   D2A13672   2.915  16.134   6.976 -0.2530 -0.1637  0.1120
  988YOPC   C3A13673   3.152  16.219   7.272  0.0582  0.0170  0.0046
  988YOPC   C4A13674   3.252  16.376   7.779 -0.1201  0.1343 -0.0270
  988YOPC   C1B13675   3.742  15.905   6.552 -0.0134  0.1811 -0.0670
  988YOPC   C2B13676   3.818  15.835   6.979  0.1469 -0.0027 -0.2736
  988YOPC   D3B13677   3.566  15.959   7.311  0.0770 -0.0333  0.2764
  988YOPC   C4B13678   3.580  16.016   7.745 -0.2184 -0.1458  0.0818
  989YOPC   NC313679   9.962   4.980   5.424 -0.2240  0.4317 -0.0582
  989YOPC   PO413680  10.302   5.001   5.321 -0.1246 -0.0638  0.0569
  989YOPC   GL113681  10.366   5.112   5.705 -0.0535  0.0908 -0.0849
  989YOPC   GL213682  10.174   5.024   5.848  0.2170  0.3192 -0.1377
  989YOPC   C1A13683  10.484   5.281   6.142  0.2733  0.1181 -0.2785
  989YOPC   D2A13684  10.630   4.964   6.422 -0.0674  0.0464  0.2909
  989YOPC   C3A13685  10.961   4.750   6.452  0.1324  0.0281 -0.2530
  989YOPC   C4A13686  11.455   4.614   6.555 -0.0167  0.0646  0.3439
  989YOPC   C1B13687  10.119   4.790   6.229 -0.1271 -0.1599 -0.2121
  989YOPC   C2B13688  10.319   4.476   6.488  0.0767 -0.1452  0.2937
  989YOPC   D3B13689  10.392   4.485   6.883 -0.1041 -0.2085  0.0942
  989YOPC   C4B13690  10.805   4.513   7.067 -0.0401 -0.1182  0.1950
  990YOPC   NC313691  10.757  12.793   6.014  0.0672 -0.1734 -0.0606
  990YOPC   PO413692  10.488  12.394   5.858  0.1329 -0.0303 -0.0075
  990YOPC   GL113693  10.500  12.015   6.169 -0.1169 -0.1076 -0.1372
  990YOPC   GL213694  10.668  11.653   6.173  0.0158 -0.1011  0.1365
  990YOPC   C1A13695  10.689  12.015   6.610 -0.0217  0.0803 -0.0493
  990YOPC   D2A13696  10.608  11.750   6.949 -0.0576 -0.1086 -0.1622
  990YOPC   C3A13697  10.557  11.791   7.392  0.4069  0.1056 -0.0459
  990YOPC   C4A13698  10.646  11.481   7.777 -0.2018 -0.0116  0.0580
  990YOPC   C1B13699  10.828  11.516   6.474  0.0434 -0.0866  0.1687
  990YOPC   C2B13700  11.086  11.580   6.769 -0.2046  0.0908  0.2475
  990YOPC   D3B13701  11.258  11.955   6.659 -0.1915  0.1038  0.0242
  990YOPC   C4B13702  11.332  12.274   6.587  0.0478  0.0073  0.1557
  991YOPC   NC313703   5.154   1.737   5.181  0.1951 -0.0259  0.0686
  991YOPC   PO413704   5.381   1.375   5.392  0.1493  0.2806  0.1394
  991YOPC   GL113705   5.557   1.272   5.896  0.1007 -0.1920  0.2089
  991YOPC   GL213706   5.785   1.521   6.058  0.0325 -0.0726  0.1918
  991YOPC   C1A13707   5.436   0.975   6.134 -0.2634  0.1306 -0.1012
  991YOPC   D2A13708   5.094   0.902   6.226 -0.2994  0.1956  0.0670
  991YOPC   C3A13709   5.010   0.662   6.547  0.0485  0.2082  0.0500
  991YOPC   C4A13710   4.860   0.555   7.024  0.1123  0.0561  0.0565
  991YOPC   C1B13711   5.825   1.194   6.361  0.2294  0.0281 -0.0257
  991YOPC   C2B13712   6.021   1.033   6.664 -0.0868 -0.3851 -0.1217
  991YOPC   D3B13713   5.947   1.208   7.077  0.4111  0.1272  0.0010
  991YOPC   C4B13714   5.848   1.588   7.263  0.0146  0.2513 -0.0235
  992YOPC   NC313715   7.415   4.935   5.492 -0.0884  0.0748 -0.2908
  992YOPC   PO413716   7.343   4.503   5.565  0.0624 -0.1410 -0.0281
  992YOPC   GL113717   7.327   4.447   5.991 -0.2246 -0.1879  0.0057
  992YOPC   GL213718   7.139   4.345   6.256  0.0354  0.1400 -0.1158
  992YOPC   C1A13719   7.484   4.683   6.372  0.0123 -0.1272 -0.1097
  992YOPC   D2A13720   7.336   4.817   6.761 -0.1773 -0.1996  0.0140
  992YOPC   C3A13721   7.386   4.839   7.174  0.4888 -0.2088  0.3101
  992YOPC   C4A13722   7.495   4.778   7.518 -0.1575 -0.1292 -0.0436
  992YOPC   C1B13723   6.869   4.055   6.566 -0.1203  0.0629 -0.1109
  992YOPC   C2B13724   6.757   3.674   6.867  0.1621  0.1939  0.2043
  992YOPC   D3B13725   6.579   3.548   7.268 -0.1395  0.2664 -0.0287
  992YOPC   C4B13726   6.927   3.453   7.580  0.0103 -0.0599  0.0263
  993YOPC   NC313727   1.617   4.068   6.572  0.3364 -0.1120 -0.2423
  993YOPC   PO413728   1.742   4.436   6.385 -0.1407  0.0105  0.3804
  993YOPC   GL113729   1.708   4.608   6.745  0.0456  0.3267  0.1014
  993YOPC   GL213730   1.845   4.473   6.973 -0.1333 -0.1867 -0.2150
  993YOPC   C1A13731   1.619   5.038   6.815  0.1123  0.0700 -0.1995
  993YOPC   D2A13732   1.684   5.353   7.225 -0.3272  0.0149 -0.0579
  993YOPC   C3A13733   2.090   5.356   7.510  0.0314  0.1367  0.0146
  993YOPC   C4A13734   2.522   5.504   7.468  0.2534 -0.1371 -0.0813
  993YOPC   C1B13735   2.246   4.589   7.338 -0.0023  0.3671  0.0463
  993YOPC   C2B13736   2.486   4.633   7.704 -0.0617  0.0409  0.2172
  993YOPC   D3B13737   2.264   4.984   7.828 -0.2349 -0.0411 -0.0754
  993YOPC   C4B13738   2.013   5.255   8.001 -0.1513  0.1621  0.2709
  994YOPC   NC313739   3.457   5.165   6.114  0.1693 -0.1712  0.1326
  994YOPC   PO413740   3.670   5.586   5.945  0.1351 -0.2558  0.2694
  994YOPC   GL113741   3.540   5.544   6.413 -0.1341  0.1223 -0.0328
  994YOPC   GL213742   3.375   5.817   6.604  0.2479  0.0759  0.1005
  994YOPC   C1A13743   3.829   5.407   6.755 -0.0544  0.1058  0.3072
  994YOPC   D2A13744   3.985   5.094   6.926 -0.0397  0.1112 -0.0928
  994YOPC   C3A13745   3.941   5.282   7.390  0.1745  0.0799 -0.2995
  994YOPC   C4A13746   3.915   5.694   7.294  0.0851  0.3939 -0.0083
  994YOPC   C1B13747   3.390   5.566   6.957  0.1136 -0.2216  0.1953
  994YOPC   C2B13748   3.460   5.427   7.319  0.1301  0.1080  0.2185
  994YOPC   D3B13749   3.440   5.598   7.605 -0.2011  0.3068  0.0376
  994YOPC   C4B13750   3.870   5.662   7.898  0.0756  0.2523 -0.5022
  995YOPC   NC313751   8.342  16.970   5.661 -0.2287  0.0553  0.0429
  995YOPC   PO413752   8.115  16.607   5.846  0.2425 -0.0209  0.0705
  995YOPC   GL113753   8.094  16.578   6.252  0.0095 -0.1408 -0.0520
  995YOPC   GL213754   8.296  16.440   6.491  0.4023 -0.4751 -0.0583
  995YOPC   C1A13755   7.794  16.435   6.599 -0.1653  0.0683 -0.1584
  995YOPC   D2A13756   7.642  16.467   6.996 -0.2901  0.2012  0.3798
  995YOPC   C3A13757   7.348  16.724   7.337 -0.3112  0.0308 -0.1016
  995YOPC   C4A13758   7.460  16.911   7.736  0.1314  0.0520 -0.1865
  995YOPC   C1B13759   8.587  16.226   6.808  0.2824  0.0813  0.0571
  995YOPC   C2B13760   8.521  16.211   7.214  0.2610  0.1004 -0.2083
  995YOPC   D3B13761   8.426  16.592   7.439  0.0413  0.2891  0.4263
  995YOPC   C4B13762   8.378  16.725   7.871  0.0524  0.1596 -0.1793
  996YOPC   NC313763   4.591   2.584   5.649  0.0693  0.1849 -0.3881
  996YOPC   PO413764   4.925   2.534   5.763 -0.2769  0.2062  0.4698
  996YOPC   GL113765   4.934   2.456   6.226  0.0802  0.0665  0.1818
  996YOPC   GL213766   5.218   2.711   6.207  0.4556  0.2051  0.1216
  996YOPC   C1A13767   5.239   2.263   6.430 -0.2015 -0.0020 -0.0752
  996YOPC   D2A13768   5.580   2.118   6.637 -0.0320  0.3060  0.0854
  996YOPC   C3A13769   5.679   2.021   7.100 -0.0610 -0.0761  0.0816
  996YOPC   C4A13770   6.098   2.072   7.257  0.3895 -0.1319  0.2965
  996YOPC   C1B13771   5.109   2.673   6.703 -0.1752  0.3355  0.1991
  996YOPC   C2B13772   5.096   2.506   7.084  0.0613  0.1406  0.3454
  996YOPC   D3B13773   5.142   2.006   6.994  0.1146  0.1795 -0.1368
  996YOPC   C4B13774   5.175   1.759   6.608  0.2037 -0.1022  0.0788
  997YOPC   NC313775   7.064   3.777   5.572 -0.0809  0.3061 -0.2246
  997YOPC   PO413776   7.001   3.167   5.608 -0.0062  0.2688  0.1408
  997YOPC   GL113777   7.198   3.330   5.997 -0.0428  0.1160  0.5860
  997YOPC   GL213778   7.284   3.382   6.378 -0.1717  0.0746 -0.2463
  997YOPC   C1A13779   7.626   3.498   6.088 -0.1371 -0.0660 -0.2045
  997YOPC   D2A13780   7.885   3.640   6.543  0.2175 -0.1284 -0.3183
  997YOPC   C3A13781   7.954   4.058   6.748  0.0769  0.0332 -0.0043
  997YOPC   C4A13782   7.917   4.487   6.618 -0.1028 -0.2287 -0.1661
  997YOPC   C1B13783   7.237   3.694   6.742  0.0091 -0.0300 -0.0093
  997YOPC   C2B13784   7.573   3.890   7.077 -0.1377 -0.2608  0.1121
  997YOPC   D3B13785   7.527   3.856   7.485  0.1988  0.2078 -0.1234
  997YOPC   C4B13786   7.480   3.757   7.942  0.1534  0.0850 -0.1581
  998YOPC   NC313787   9.108  15.001   5.815 -0.0456  0.0799  0.1168
  998YOPC   PO413788   9.349  14.794   6.037  0.0152 -0.1898 -0.0167
  998YOPC   GL113789   9.157  15.000   6.398 -0.0951  0.0041  0.0261
  998YOPC   GL213790   8.820  15.047   6.358  0.3200  0.0084  0.2654
  998YOPC   C1A13791   9.276  15.051   6.800  0.1926  0.1241 -0.4910
  998YOPC   D2A13792   9.577  15.049   7.040 -0.2139 -0.1289  0.3100
  998YOPC   C3A13793   9.463  15.165   7.438 -0.0403  0.3102  0.1480
  998YOPC   C4A13794   9.412  15.092   7.778  0.4733 -0.3641 -0.2118
  998YOPC   C1B13795   8.687  14.739   6.765  0.2948 -0.1068 -0.1313
  998YOPC   C2B13796   8.593  14.765   7.257  0.0835  0.1054 -0.0383
  998YOPC   D3B13797   8.417  14.353   7.408  0.0488 -0.1060  0.1279
  998YOPC   C4B13798   8.579  13.964   7.370 -0.0982 -0.2369 -0.0680
  999YOPC   NC313799  13.236   9.500   5.224 -0.2610  0.4013 -0.0230
  999YOPC   PO413800  13.168   9.869   5.063  0.1584  0.1783 -0.2742
  999YOPC   GL113801  13.070  10.035   5.592  0.4279 -0.1109  0.0003
  999YOPC   GL213802  12.805  10.225   5.624 -0.0956  0.1869 -0.2726
  999YOPC   C1A13803  13.117   9.891   6.031  0.2309  0.1741 -0.1134
  999YOPC   D2A13804  12.756   9.873   6.423  0.0314 -0.0873  0.0344
  999YOPC   C3A13805  12.738   9.770   6.760  0.1280 -0.0335 -0.0300
  999YOPC   C4A13806  12.812   9.706   7.232 -0.1168  0.0994 -0.0405
  999YOPC   C1B13807  12.780  10.434   6.060 -0.2806  0.1871 -0.2617
  999YOPC   C2B13808  12.689  10.359   6.370  0.2966 -0.1481 -0.1507
  999YOPC   D3B13809  12.383  10.613   6.399 -0.0857  0.0097  0.0715
  999YOPC   C4B13810  11.970  10.533   6.439  0.0473  0.0865  0.2365
 1000YOPC   NC313811  13.444  10.937   5.404 -0.0884 -0.0903 -0.2970
 1000YOPC   PO413812  13.377  10.720   5.107  0.0629  0.0320  0.1254
 1000YOPC   GL113813  13.204  10.546   5.620  0.0461 -0.0052  0.0829
 1000YOPC   GL213814  13.395  10.293   5.851 -0.2019  0.0320 -0.0958
 1000YOPC   C1A13815  13.203  10.740   5.976 -0.1856  0.0588  0.1471
 1000YOPC   D2A13816  13.360  11.143   6.242  0.2049  0.1109  0.0877
 1000YOPC   C3A13817  13.222  11.102   6.711 -0.0747 -0.0750  0.0733
 1000YOPC   C4A13818  13.331  11.078   7.143  0.1372 -0.0628 -0.1492
 1000YOPC   C1B13819  13.203  10.291   6.261 -0.0838 -0.0880  0.2103
 1000YOPC   C2B13820  13.298   9.983   6.545 -0.2374  0.1340  0.1816
 1000YOPC   D3B13821  13.589  10.087   6.761  0.0349  0.1674  0.1145
 1000YOPC   C4B13822  13.878   9.869   6.540 -0.0018 -0.0591  0.1014
 1001YOPC   NC313823   7.672   3.086   5.368 -0.1187  0.1192  0.0515
 1001YOPC   PO413824   7.948   2.749   5.586 -0.1116 -0.0947  0.2043
 1001YOPC   GL113825   7.748   2.955   5.996 -0.1800  0.0033 -0.1834
 1001YOPC   GL213826   8.031   3.057   6.119  0.0505 -0.0871 -0.4216
 1001YOPC   C1A13827   7.734   2.955   6.479 -0.1929 -0.1339 -0.1758
 1001YOPC   D2A13828   7.563   2.775   6.851 -0.0428 -0.0202 -0.1267
 1001YOPC   C3A13829   7.405   3.036   7.201  0.1060  0.1068 -0.0541
 1001YOPC   C4A13830   7.256   3.504   7.206  0.1375 -0.0691  0.1258
 1001YOPC   C1B13831   8.290   2.948   6.513  0.4673 -0.0702 -0.0746
 1001YOPC   C2B13832   8.565   2.847   6.940  0.1348 -0.0782  0.0809
 1001YOPC   D3B13833   8.462   3.173   7.339 -0.1893 -0.0998 -0.1960
 1001YOPC   C4B13834   8.657   3.346   7.768  0.3363  0.2531  0.1005
 1002YOPC   NC313835   7.490   5.511   6.071 -0.0446  0.2884 -0.2532
 1002YOPC   PO413836   7.051   5.575   6.057  0.0575 -0.1438  0.1331
 1002YOPC   GL113837   7.103   5.383   6.484 -0.2510 -0.0428  0.2543
 1002YOPC   GL213838   7.446   5.254   6.567  0.2450 -0.1673  0.0605
 1002YOPC   C1A13839   7.052   5.263   6.911  0.3376  0.0583 -0.2384
 1002YOPC   D2A13840   6.924   5.192   7.320  0.1398  0.1810  0.1564
 1002YOPC   C3A13841   7.046   4.859   7.519 -0.1667 -0.3266  0.0840
 1002YOPC   C4A13842   7.093   4.553   7.891 -0.2458 -0.1588 -0.2288
 1002YOPC   C1B13843   7.619   5.311   6.988  0.0624  0.0516 -0.1420
 1002YOPC   C2B13844   7.561   5.268   7.423 -0.0129  0.0836 -0.2302
 1002YOPC   D3B13845   7.163   5.401   7.719 -0.0583  0.0117 -0.0034
 1002YOPC   C4B13846   6.736   5.278   7.783  0.2422 -0.0539 -0.1193
 1003YOPC   NC313847   5.390  13.383   5.908  0.0604  0.1894  0.2288
 1003YOPC   PO413848   5.355  12.921   5.769  0.0939  0.3022 -0.0613
 1003YOPC   GL113849   5.437  12.980   6.191 -0.0414 -0.2608 -0.0538
 1003YOPC   GL213850   5.307  13.326   6.372  0.2504 -0.0958  0.3026
 1003YOPC   C1A13851   5.774  13.134   6.453 -0.2840  0.1166 -0.1514
 1003YOPC   D2A13852   5.811  13.288   6.907  0.0148 -0.1434  0.0310
 1003YOPC   C3A13853   5.582  13.285   7.281  0.0853 -0.1525  0.1028
 1003YOPC   C4A13854   5.476  13.450   7.716 -0.0410 -0.0183 -0.0767
 1003YOPC   C1B13855   5.321  13.157   6.758 -0.2052 -0.0565 -0.4890
 1003YOPC   C2B13856   5.080  12.986   7.142  0.0135  0.1587 -0.1204
 1003YOPC   D3B13857   4.977  12.608   7.285  0.1520  0.0672  0.1309
 1003YOPC   C4B13858   5.079  12.427   7.745  0.0748  0.1166  0.4147
 1004YOPC   NC313859   1.087  15.535   5.804 -0.1981  0.2840  0.1343
 1004YOPC   PO413860   1.131  15.919   5.575  0.1285 -0.0094  0.0536
 1004YOPC   GL113861   1.518  15.768   5.936  0.3189  0.0795  0.3020
 1004YOPC   GL213862   1.778  15.952   6.054  0.0240 -0.2316 -0.1170
 1004YOPC   C1A13863   1.468  15.571   6.334  0.1348  0.1344 -0.0839
 1004YOPC   D2A13864   1.607  15.617   6.695 -0.1301 -0.0253 -0.1569
 1004YOPC   C3A13865   1.408  15.505   7.112 -0.1097  0.1890  0.1325
 1004YOPC   C4A13866   1.264  15.510   7.556 -0.3501  0.0007 -0.1414
 1004YOPC   C1B13867   1.541  16.105   6.416 -0.0946 -0.2994 -0.2600
 1004YOPC   C2B13868   1.660  16.208   6.822  0.2074  0.1239  0.2540
 1004YOPC   D3B13869   1.963  15.881   6.922 -0.1164  0.1261 -0.1098
 1004YOPC   C4B13870   2.286  15.623   6.951 -0.0437 -0.1955  0.0794
 1005YOPC   NC313871   3.225  12.710   5.723  0.1351  0.2091  0.1145
 1005YOPC   PO413872   3.447  12.411   5.662  0.0641 -0.1593 -0.0467
 1005YOPC   GL113873   3.657  12.160   6.047  0.1982 -0.2060  0.0490
 1005YOPC   GL213874   3.797  11.954   6.108 -0.1261  0.0890  0.0589
 1005YOPC   C1A13875   3.803  12.339   6.371 -0.1791  0.0446  0.0080
 1005YOPC   D2A13876   3.825  12.398   6.787  0.0421  0.2257 -0.1166
 1005YOPC   C3A13877   4.030  12.201   7.200 -0.4623  0.1120  0.0728
 1005YOPC   C4A13878   4.365  11.966   7.363  0.2659 -0.0135 -0.0607
 1005YOPC   C1B13879   3.703  11.938   6.573 -0.2143  0.1219 -0.2666
 1005YOPC   C2B13880   3.735  11.918   6.938  0.2093 -0.2300 -0.0164
 1005YOPC   D3B13881   3.689  11.856   7.371 -0.0020 -0.1227  0.0672
 1005YOPC   C4B13882   3.591  12.025   7.821  0.0183 -0.3212  0.1879
 1006YOPC   NC313883  11.748  15.070   5.930  0.0604 -0.0589  0.1346
 1006YOPC   PO413884  12.055  14.857   5.859  0.0586 -0.1274 -0.1050
 1006YOPC   GL113885  12.171  14.971   6.303 -0.2685  0.3255  0.0517
 1006YOPC   GL213886  12.436  14.799   6.374 -0.1758 -0.2336 -0.1047
 1006YOPC   C1A13887  12.184  15.076   6.721  0.1101 -0.0612 -0.2604
 1006YOPC   D2A13888  12.184  14.846   7.129 -0.0845 -0.1593  0.3066
 1006YOPC   C3A13889  12.438  15.007   7.427  0.2772  0.0852  0.2087
 1006YOPC   C4A13890  12.471  14.972   7.879 -0.1320  0.0544 -0.0680
 1006YOPC   C1B13891  12.071  14.597   6.629 -0.2046 -0.1216 -0.1429
 1006YOPC   C2B13892  11.663  14.551   6.835 -0.1643 -0.1956 -0.1755
 1006YOPC   D3B13893  11.674  14.394   7.286 -0.0159  0.2163 -0.2944
 1006YOPC   C4B13894  11.583  14.284   7.612 -0.2616 -0.0064  0.2070
 1007YOPC   NC313895   6.900   8.667   5.736 -0.2425  0.0623  0.0791
 1007YOPC   PO413896   7.192   8.962   5.793 -0.1310 -0.1072  0.1857
 1007YOPC   GL113897   7.446   9.023   6.260  0.3741 -0.0893 -0.1651
 1007YOPC   GL213898   7.231   9.047   6.558 -0.3913 -0.1807 -0.2573
 1007YOPC   C1A13899   7.765   8.863   6.535  0.1484 -0.0566 -0.0650
 1007YOPC   D2A13900   8.126   8.626   6.566 -0.2446 -0.2621  0.1098
 1007YOPC   C3A13901   8.452   8.721   6.431 -0.1653  0.0761  0.0186
 1007YOPC   C4A13902   8.723   8.944   6.694 -0.0445  0.1545  0.0399
 1007YOPC   C1B13903   7.255   8.859   6.925  0.3905  0.0805 -0.3981
 1007YOPC   C2B13904   7.040   8.428   6.881 -0.1209  0.1225  0.0037
 1007YOPC   D3B13905   7.331   8.071   6.879 -0.1625 -0.0876 -0.1302
 1007YOPC   C4B13906   7.685   7.973   7.132  0.2089  0.0481 -0.3779
 1008YOPC   NC313907  16.215   7.555   6.004  0.0693 -0.2197  0.3680
 1008YOPC   PO413908  15.792   7.653   5.764 -0.1007 -0.2086  0.0124
 1008YOPC   GL113909  15.561   7.741   6.151  0.1779 -0.1181 -0.2129
 1008YOPC   GL213910  15.467   7.979   6.307  0.0702 -0.2172  0.1447
 1008YOPC   C1A13911  15.537   7.522   6.541 -0.3072  0.2524 -0.0804
 1008YOPC   D2A13912  15.431   7.384   7.039  0.4371 -0.0348  0.4204
 1008YOPC   C3A13913  15.101   7.167   7.343 -0.3004 -0.0189 -0.1325
 1008YOPC   C4A13914  15.052   6.942   7.770  0.1005 -0.1288  0.0480
 1008YOPC   C1B13915  15.726   8.078   6.620 -0.4337 -0.0500 -0.2006
 1008YOPC   C2B13916  15.819   8.124   7.094 -0.1167 -0.0422  0.2106
 1008YOPC   D3B13917  15.679   8.340   7.382 -0.1865 -0.3296  0.2359
 1008YOPC   C4B13918  15.278   8.211   7.625 -0.1042 -0.2520  0.1635
 1009YOPC   NC313919   0.497   1.404   6.129 -0.2202  0.0302 -0.1844
 1009YOPC   PO413920   0.843   1.002   6.103 -0.1952 -0.1967  0.1727
 1009YOPC   GL113921   0.781   1.008   6.520  0.2172  0.2060 -0.0174
 1009YOPC   GL213922   0.445   1.033   6.532  0.1588 -0.0960 -0.0568
 1009YOPC   C1A13923   0.654   0.975   6.944  0.2831  0.1039 -0.0462
 1009YOPC   D2A13924   0.629   0.768   7.367  0.1431  0.1396  0.0248
 1009YOPC   C3A13925   0.914   0.649   7.608  0.0839 -0.2702  0.0148
 1009YOPC   C4A13926   1.327   0.563   7.632  0.0498 -0.1822  0.0515
 1009YOPC   C1B13927   0.182   1.071   6.951  0.3016  0.0481  0.2169
 1009YOPC   C2B13928   0.246   1.133   7.411  0.0552 -0.2691 -0.1639
 1009YOPC   D3B13929   0.678   1.174   7.719  0.0901 -0.1854 -0.0672
 1009YOPC   C4B13930   1.055   1.403   7.642 -0.3432 -0.3203 -0.1592
 1010YOPC   NC313931   2.937  16.369   5.775 -0.0893  0.3874  0.1086
 1010YOPC   PO413932   2.559  16.181   5.730 -0.0617 -0.0278  0.3955
 1010YOPC   GL113933   2.433  16.069   6.106  0.2264  0.1181 -0.1450
 1010YOPC   GL213934   2.603  16.377   6.281 -0.0299  0.1494 -0.1468
 1010YOPC   C1A13935   2.536  15.906   6.497  0.1177 -0.0601 -0.0952
 1010YOPC   D2A13936   2.425  16.168   6.851  0.1215  0.1007  0.0729
 1010YOPC   C3A13937   2.433  16.204   7.309 -0.1668  0.1469  0.2822
 1010YOPC   C4A13938   2.204  16.514   7.589 -0.3139  0.0973 -0.0448
 1010YOPC   C1B13939   2.603  16.664   6.768  0.2499 -0.0028 -0.1139
 1010YOPC   C2B13940   2.721  16.606   7.170  0.2331 -0.0399  0.0368
 1010YOPC   D3B13941   2.598  16.822   7.549  0.0080 -0.1761 -0.0419
 1010YOPC   C4B13942   2.432  16.843   7.955 -0.1924  0.2572 -0.1302
 1011YOPC   NC313943  13.526   2.887   5.971 -0.0643  0.2270  0.1906
 1011YOPC   PO413944  13.032   2.838   5.770  0.0898  0.0176 -0.0619
 1011YOPC   GL113945  12.946   2.962   6.121 -0.2223  0.1504 -0.0222
 1011YOPC   GL213946  12.786   3.190   6.279 -0.1249 -0.0357  0.0297
 1011YOPC   C1A13947  12.670   2.751   6.476  0.1136  0.2896 -0.2713
 1011YOPC   D2A13948  12.503   2.334   6.709  0.0970  0.4205  0.2735
 1011YOPC   C3A13949  12.417   2.472   7.053 -0.3355  0.1297 -0.0301
 1011YOPC   C4A13950  12.126   2.715   7.384  0.1094  0.1333  0.0825
 1011YOPC   C1B13951  12.370   3.142   6.282 -0.0230 -0.1166  0.0528
 1011YOPC   C2B13952  12.087   3.308   6.477  0.2194 -0.0231  0.0197
 1011YOPC   D3B13953  12.039   3.283   6.917 -0.1619 -0.3204 -0.2796
 1011YOPC   C4B13954  12.201   3.286   7.354  0.0723 -0.0480  0.2061
 1012YOPC   NC313955  15.842   4.528   5.858 -0.3564 -0.4934  0.3277
 1012YOPC   PO413956  16.175   4.930   5.955 -0.2300  0.0453 -0.0428
 1012YOPC   GL113957  16.169   4.792   6.412 -0.2305 -0.1019 -0.1434
 1012YOPC   GL213958  15.956   4.863   6.590 -0.0285 -0.0433 -0.2348
 1012YOPC   C1A13959  16.456   4.865   6.662  0.2266  0.1652 -0.0763
 1012YOPC   D2A13960  16.898   4.892   6.794 -0.1013  0.2552 -0.0480
 1012YOPC   C3A13961  17.293   4.789   6.907  0.4203  0.0169  0.0358
 1012YOPC   C4A13962  17.615   4.556   7.184  0.1463 -0.0123  0.0308
 1012YOPC   C1B13963  16.067   5.097   6.934  0.3628 -0.3476  0.1024
 1012YOPC   C2B13964  16.089   5.147   7.403  0.1470  0.0505  0.2967
 1012YOPC   D3B13965  16.049   4.947   7.861 -0.0420  0.0903  0.2317
 1012YOPC   C4B13966  15.938   4.737   8.240 -0.1920  0.0662 -0.2000
 1013YOPC   NC313967  15.058   0.185   5.584 -0.0039  0.0918 -0.0258
 1013YOPC   PO413968  14.814   0.330   5.966  0.0417  0.1192 -0.3264
 1013YOPC   GL113969  14.719  -0.062   6.188 -0.3652  0.0234 -0.0272
 1013YOPC   GL213970  14.952   0.010   6.356 -0.2279  0.0388 -0.0132
 1013YOPC   C1A13971  14.425  -0.195   6.530  0.1494 -0.2268  0.1400
 1013YOPC   D2A13972  14.526  -0.476   6.888 -0.4153  0.1996  0.1335
 1013YOPC   C3A13973  14.382  -0.412   7.315 -0.0349  0.2847  0.1812
 1013YOPC   C4A13974  14.430  -0.384   7.745 -0.3553  0.1324  0.1150
 1013YOPC   C1B13975  14.918   0.208   6.703 -0.1408 -0.0210  0.0707
 1013YOPC   C2B13976  14.671  -0.001   6.982  0.2589  0.0489  0.0202
 1013YOPC   D3B13977  14.669  -0.044   7.406  0.0325 -0.1505 -0.0653
 1013YOPC   C4B13978  14.421   0.161   7.780 -0.0124 -0.1419  0.3365
 1014YOPC   NC313979   1.309  11.755   5.437  0.3378 -0.1281  0.2785
 1014YOPC   PO413980   1.123  12.082   5.515 -0.0076  0.2695  0.1017
 1014YOPC   GL113981   1.147  11.940   5.961  0.0150  0.1513  0.0901
 1014YOPC   GL213982   1.253  12.192   6.002 -0.1289  0.3759 -0.0476
 1014YOPC   C1A13983   1.093  11.876   6.390  0.0771  0.1808 -0.1728
 1014YOPC   D2A13984   0.761  11.741   6.678  0.1468 -0.1898 -0.0623
 1014YOPC   C3A13985   0.944  11.639   7.082  0.2050 -0.0919 -0.1617
 1014YOPC   C4A13986   1.031  11.338   7.449  0.0263 -0.2733 -0.0731
 1014YOPC   C1B13987   1.503  12.198   6.365 -0.2519 -0.2018 -0.0513
 1014YOPC   C2B13988   1.751  12.127   6.662 -0.1246 -0.0988 -0.0494
 1014YOPC   D3B13989   1.675  12.029   7.168  0.0656 -0.2165 -0.0935
 1014YOPC   C4B13990   1.543  12.112   7.484  0.0181 -0.3116  0.0085
 1015YOPC   NC313991   6.617  16.415   5.816  0.3129 -0.0201 -0.2011
 1015YOPC   PO413992   6.493  15.971   6.007 -0.0636 -0.1955 -0.0117
 1015YOPC   GL113993   6.413  16.246   6.307 -0.7337 -0.0066  0.1164
 1015YOPC   GL213994   6.107  16.364   6.172 -0.1549 -0.1612 -0.4229
 1015YOPC   C1A13995   6.240  16.456   6.720 -0.0459 -0.1689  0.2596
 1015YOPC   D2A13996   6.082  16.645   7.074  0.1242 -0.1015  0.0382
 1015YOPC   C3A13997   5.741  16.372   7.399 -0.2327  0.0033 -0.1437
 1015YOPC   C4A13998   5.819  16.490   7.821 -0.0889  0.0084  0.0738
 1015YOPC   C1B13999   5.820  16.395   6.446  0.1519  0.1191 -0.1118
 1015YOPC   C2B14000   5.776  16.272   6.878 -0.3441 -0.0562 -0.0375
 1015YOPC   D3B14001   6.127  16.122   7.058  0.2698 -0.0059 -0.1576
 1015YOPC   C4B14002   6.516  15.994   7.277 -0.2624 -0.0238  0.1989
 1016YOPC   NC314003   5.065  17.547   5.711 -0.2838 -0.1106  0.1363
 1016YOPC   PO414004   5.413  17.768   5.565  0.0220 -0.2654 -0.0347
 1016YOPC   GL114005   5.370  17.657   6.088 -0.1291  0.1671 -0.0169
 1016YOPC   GL214006   5.054  17.560   6.219 -0.0009 -0.0902  0.1042
 1016YOPC   C1A14007   5.459  17.731   6.504  0.0938  0.1149 -0.1310
 1016YOPC   D2A14008   5.370  17.989   6.824 -0.0228  0.0024  0.1498
 1016YOPC   C3A14009   5.734  18.012   7.103  0.3624  0.0630 -0.2047
 1016YOPC   C4A14010   5.969  18.407   7.151  0.0195 -0.0064 -0.1523
 1016YOPC   C1B14011   4.921  17.469   6.572  0.1294 -0.2355 -0.2376
 1016YOPC   C2B14012   5.147  17.549   6.892  0.0636  0.1482 -0.1968
 1016YOPC   D3B14013   5.110  17.594   7.272 -0.1398  0.1261 -0.0212
 1016YOPC   C4B14014   4.926  17.228   7.622  0.1516 -0.0329  0.1180
 1017YOPC   NC314015  16.337  12.137   5.637  0.1169  0.1393 -0.0756
 1017YOPC   PO414016  16.053  11.907   5.864  0.1104  0.3992  0.1397
 1017YOPC   GL114017  15.981  12.024   6.384 -0.0354  0.0384  0.1505
 1017YOPC   GL214018  15.611  11.909   6.382  0.0197  0.2531 -0.0885
 1017YOPC   C1A14019  15.920  11.768   6.759  0.2878 -0.1105  0.0877
 1017YOPC   D2A14020  16.105  11.788   7.205 -0.0902 -0.2729  0.1277
 1017YOPC   C3A14021  16.083  11.618   7.538 -0.1197 -0.2213 -0.1047
 1017YOPC   C4A14022  16.374  11.345   7.923 -0.0534 -0.0843 -0.0823
 1017YOPC   C1B14023  15.575  12.148   6.684 -0.0747  0.2010  0.2789
 1017YOPC   C2B14024  15.601  12.023   7.165  0.0360 -0.1276 -0.2591
 1017YOPC   D3B14025  15.607  12.286   7.545 -0.0504  0.2393  0.0002
 1017YOPC   C4B14026  15.717  12.386   7.932 -0.0202 -0.3109  0.0458
 1018YOPC   NC314027  11.638   1.872   5.712  0.3210  0.2115  0.1887
 1018YOPC   PO414028  11.661   1.455   5.897  0.0066  0.2149  0.1346
 1018YOPC   GL114029  11.815   1.688   6.264  0.3137 -0.4609  0.2748
 1018YOPC   GL214030  11.670   1.996   6.234 -0.2143  0.0622 -0.0212
 1018YOPC   C1A14031  11.639   1.827   6.672 -0.1702 -0.0765 -0.1032
 1018YOPC   D2A14032  11.764   1.666   7.145  0.0000  0.1004  0.2805
 1018YOPC   C3A14033  11.722   1.926   7.451 -0.1478  0.2412 -0.2670
 1018YOPC   C4A14034  11.512   2.221   7.594 -0.0152 -0.0630 -0.1918
 1018YOPC   C1B14035  11.259   1.983   6.393 -0.1776 -0.1229 -0.1942
 1018YOPC   C2B14036  11.142   1.827   6.801  0.1122  0.2673  0.0661
 1018YOPC   D3B14037  11.317   1.487   7.029 -0.1712  0.1591  0.1384
 1018YOPC   C4B14038  11.172   1.142   7.355 -0.1678  0.5045 -0.3547
 1019YOPC   NC314039  10.797   9.998   5.887  0.1870  0.0272 -0.2745
 1019YOPC   PO414040  11.121   9.733   5.852  0.0640  0.0017 -0.0370
 1019YOPC   GL114041  11.333  10.010   6.188  0.4094  0.1871 -0.0712
 1019YOPC   GL214042  11.699  10.167   6.028 -0.0623 -0.1228 -0.1425
 1019YOPC   C1A14043  11.385  10.111   6.596  0.2156 -0.1446  0.0829
 1019YOPC   D2A14044  11.357  10.230   6.984 -0.2635 -0.0757 -0.0410
 1019YOPC   C3A14045  11.076  10.097   7.256  0.0804 -0.0537  0.2429
 1019YOPC   C4A14046  11.111  10.133   7.728 -0.2893 -0.1265 -0.1460
 1019YOPC   C1B14047  11.839   9.991   6.395 -0.2534  0.3805  0.0799
 1019YOPC   C2B14048  11.821  10.110   6.848  0.1045  0.0310 -0.0819
 1019YOPC   D3B14049  12.199  10.452   6.865  0.0400 -0.2068  0.0549
 1019YOPC   C4B14050  12.466  10.607   7.153 -0.2701 -0.4829  0.2582
 1020YOPC   NC314051  12.023  13.979   6.139  0.1289 -0.1626  0.2788
 1020YOPC   PO414052  12.420  13.951   5.987  0.1972 -0.2108 -0.0442
 1020YOPC   GL114053  12.469  14.030   6.464 -0.0170 -0.1238  0.3036
 1020YOPC   GL214054  12.642  14.281   6.395  0.0983  0.2670 -0.1401
 1020YOPC   C1A14055  12.384  14.250   6.796 -0.1119  0.3138  0.0514
 1020YOPC   D2A14056  12.511  14.333   7.216 -0.0295  0.0696  0.1340
 1020YOPC   C3A14057  12.831  14.742   7.293  0.1617 -0.3191 -0.3001
 1020YOPC   C4A14058  12.954  15.002   7.687  0.1538 -0.0568  0.3655
 1020YOPC   C1B14059  12.976  14.057   6.470 -0.2728  0.0546 -0.5291
 1020YOPC   C2B14060  13.128  13.815   6.749 -0.0460  0.0928  0.0190
 1020YOPC   D3B14061  12.826  13.776   7.168  0.0192 -0.0708  0.1068
 1020YOPC   C4B14062  12.929  13.488   7.502  0.0350  0.3197  0.0985
 1021YOPC   NC314063   3.913   4.026   5.663 -0.1453 -0.0820 -0.0796
 1021YOPC   PO414064   3.620   4.198   5.937 -0.3071 -0.3095  0.2468
 1021YOPC   GL114065   3.771   4.118   6.398 -0.0512  0.2351  0.2835
 1021YOPC   GL214066   4.051   4.265   6.461 -0.1350  0.1765  0.1978
 1021YOPC   C1A14067   3.672   3.903   6.818  0.1963  0.1821  0.0667
 1021YOPC   D2A14068   3.561   3.803   7.176  0.3742 -0.0660 -0.1339
 1021YOPC   C3A14069   3.772   3.305   7.261  0.1584 -0.1762 -0.1660
 1021YOPC   C4A14070   3.917   3.341   7.742 -0.0596  0.2061  0.1949
 1021YOPC   C1B14071   4.178   4.156   6.879  0.2420  0.1561 -0.0632
 1021YOPC   C2B14072   4.215   4.210   7.379 -0.3567 -0.2535 -0.1841
 1021YOPC   D3B14073   4.506   4.149   7.626  0.0601 -0.1119  0.0241
 1021YOPC   C4B14074   4.668   3.964   7.904 -0.0877  0.1737 -0.0469
 1022YOPC   NC314075   4.976   6.011   5.891 -0.0559  0.3641  0.1027
 1022YOPC   PO414076   4.710   5.504   5.997  0.0224  0.0234  0.1523
 1022YOPC   GL114077   4.894   5.380   6.392  0.4031  0.2228 -0.1887
 1022YOPC   GL214078   4.816   5.135   6.400  0.2920 -0.0679 -0.0019
 1022YOPC   C1A14079   5.212   5.385   6.721 -0.1423  0.0811  0.1056
 1022YOPC   D2A14080   5.470   5.705   6.961  0.1572  0.1184 -0.1165
 1022YOPC   C3A14081   5.601   5.646   7.394 -0.1716 -0.1030  0.0425
 1022YOPC   C4A14082   5.637   5.914   7.729  0.0086 -0.1690  0.0848
 1022YOPC   C1B14083   4.791   5.062   6.741 -0.1468 -0.1673 -0.0378
 1022YOPC   C2B14084   4.685   4.993   7.129  0.2566  0.0590  0.3254
 1022YOPC   D3B14085   4.940   5.215   7.407  0.1300 -0.0747 -0.3128
 1022YOPC   C4B14086   5.226   5.395   7.220  0.1653  0.0612  0.4041
 1023YOPC   NC314087   5.434   2.558   5.765 -0.0935  0.1707 -0.0929
 1023YOPC   PO414088   5.598   2.891   5.606 -0.1578 -0.3701 -0.1349
 1023YOPC   GL114089   5.432   3.109   5.969  0.0863  0.0209 -0.2799
 1023YOPC   GL214090   5.376   3.388   5.950 -0.0832  0.0974 -0.1605
 1023YOPC   C1A14091   5.193   3.145   6.373 -0.1055 -0.0999  0.1796
 1023YOPC   D2A14092   5.402   3.066   6.697  0.1056  0.0797 -0.0862
 1023YOPC   C3A14093   5.385   2.954   7.142  0.1069  0.1264 -0.2675
 1023YOPC   C4A14094   5.582   2.720   7.436  0.0104 -0.1139 -0.3595
 1023YOPC   C1B14095   5.435   3.667   6.393 -0.1832  0.3638 -0.0063
 1023YOPC   C2B14096   5.500   3.546   6.860  0.2500  0.1542  0.3637
 1023YOPC   D3B14097   5.600   3.428   7.251 -0.3059  0.0631  0.0603
 1023YOPC   C4B14098   5.715   3.151   7.615 -0.0234  0.2371  0.2133
 1024YOPC   NC314099   7.985  17.929   5.651  0.0361  0.0486 -0.0241
 1024YOPC   PO414100   7.880  18.342   5.656  0.1523 -0.1382 -0.0554
 1024YOPC   GL114101   7.814  18.461   6.067  0.0512  0.0563 -0.1870
 1024YOPC   GL214102   8.167  18.396   6.141 -0.1199  0.2908  0.0078
 1024YOPC   C1A14103   7.743  18.555   6.464 -0.0641 -0.1254  0.1301
 1024YOPC   D2A14104   7.505  18.357   6.758 -0.4177  0.0512 -0.1686
 1024YOPC   C3A14105   7.313  18.213   7.077 -0.0693 -0.1276  0.2260
 1024YOPC   C4A14106   7.225  18.106   7.549 -0.1605  0.1497 -0.1916
 1024YOPC   C1B14107   8.184  18.357   6.530 -0.2380  0.1431  0.0857
 1024YOPC   C2B14108   8.002  18.475   6.872  0.1991 -0.0755  0.0900
 1024YOPC   D3B14109   8.244  18.492   7.079 -0.0794 -0.4153  0.1303
 1024YOPC   C4B14110   8.276  18.341   7.460  0.1138 -0.0244 -0.2006
 1025YOPC   NC314111  14.151  10.738   5.675  0.2707  0.2356  0.1288
 1025YOPC   PO414112  13.992  10.293   5.678  0.3570  0.3287 -0.1212
 1025YOPC   GL114113  13.860  10.064   5.978  0.3552 -0.1934  0.1559
 1025YOPC   GL214114  14.186   9.922   6.057 -0.0182 -0.1362 -0.1028
 1025YOPC   C1A14115  13.678  10.231   6.269 -0.1030 -0.0955  0.0598
 1025YOPC   D2A14116  13.524  10.706   6.318  0.3256 -0.1151  0.0433
 1025YOPC   C3A14117  13.583  10.766   6.689  0.1477 -0.0280  0.2673
 1025YOPC   C4A14118  13.474  10.606   7.070 -0.0554  0.4759  0.1254
 1025YOPC   C1B14119  14.221  10.189   6.360 -0.0557  0.2071  0.0462
 1025YOPC   C2B14120  13.919  10.463   6.625  0.2238  0.2112  0.1529
 1025YOPC   D3B14121  13.996  10.687   6.968  0.0430  0.3956 -0.3550
 1025YOPC   C4B14122  14.217  10.692   7.283 -0.1576 -0.3211 -0.0018
 1026YOPC   NC314123   9.222   0.887   5.312  0.1425 -0.1798  0.2514
 1026YOPC   PO414124   9.056   0.944   5.776  0.0778  0.0246  0.1834
 1026YOPC   GL114125   9.062   0.767   6.157  0.1948  0.0006 -0.0926
 1026YOPC   GL214126   8.994   0.467   6.299 -0.1581  0.1172  0.2081
 1026YOPC   C1A14127   8.930   0.941   6.555 -0.0023 -0.0324  0.0865
 1026YOPC   D2A14128   8.820   1.304   6.695 -0.0614 -0.1466  0.2758
 1026YOPC   C3A14129   8.505   1.345   6.385 -0.0056  0.6135 -0.0854
 1026YOPC   C4A14130   8.410   1.591   6.127  0.0945 -0.0657  0.0800
 1026YOPC   C1B14131   8.860   0.390   6.699  0.1748  0.1865  0.3729
 1026YOPC   C2B14132   8.509   0.645   6.923 -0.3610 -0.3560  0.3051
 1026YOPC   D3B14133   8.449   0.621   7.398  0.0077 -0.1268 -0.2840
 1026YOPC   C4B14134   8.620   0.926   7.660  0.2590  0.1011  0.1334
 1027YOPC   NC314135   0.307   7.427   6.198  0.2463 -0.1860  0.2990
 1027YOPC   PO414136  -0.078   7.590   6.148 -0.0266 -0.1443 -0.0465
 1027YOPC   GL114137  -0.033   7.809   6.483  0.0068  0.3798 -0.2453
 1027YOPC   GL214138   0.396   7.832   6.486 -0.1253  0.0368 -0.1649
 1027YOPC   C1A14139  -0.183   8.051   6.802  0.0482 -0.2776 -0.1182
 1027YOPC   D2A14140  -0.462   8.000   7.175 -0.1580 -0.4335 -0.0126
 1027YOPC   C3A14141  -0.640   8.188   7.506  0.1796 -0.1899  0.1530
 1027YOPC   C4A14142  -0.690   8.154   7.958 -0.1851 -0.0330 -0.0822
 1027YOPC   C1B14143   0.256   7.924   6.930  0.0937  0.4217  0.0804
 1027YOPC   C2B14144  -0.004   8.218   7.212 -0.1164  0.0711  0.1969
 1027YOPC   D3B14145  -0.147   8.001   7.671  0.0892  0.1466  0.2761
 1027YOPC   C4B14146  -0.247   8.002   8.090  0.0806  0.1986  0.1516
 1028YOPC   NC314147  18.134   7.580   5.661 -0.1283 -0.1103 -0.1201
 1028YOPC   PO414148  17.875   7.990   5.727  0.1471 -0.2003 -0.2142
 1028YOPC   GL114149  18.056   8.360   6.140  0.1550  0.0802 -0.0743
 1028YOPC   GL214150  18.389   8.394   6.190 -0.3355 -0.2004  0.0020
 1028YOPC   C1A14151  17.992   8.490   6.533 -0.1548 -0.3999 -0.3036
 1028YOPC   D2A14152  17.791   8.661   6.889 -0.1277  0.0783 -0.2588
 1028YOPC   C3A14153  17.849   8.549   7.281 -0.2006 -0.1805 -0.4333
 1028YOPC   C4A14154  17.952   8.575   7.684 -0.0788 -0.0603 -0.1230
 1028YOPC   C1B14155  18.598   8.301   6.628  0.3541 -0.0373 -0.0336
 1028YOPC   C2B14156  18.885   8.443   6.724  0.0441  0.2275  0.1478
 1028YOPC   D3B14157  19.302   8.349   6.804  0.1371  0.0225 -0.1369
 1028YOPC   C4B14158  19.677   8.352   7.020  0.0325  0.1677 -0.1087
 1029YOPC   NC314159  14.189   5.444   5.795 -0.2584 -0.0016  0.0205
 1029YOPC   PO414160  13.925   5.557   6.200 -0.0030  0.0929  0.0368
 1029YOPC   GL114161  13.656   5.468   6.548 -0.0416  0.2259  0.1088
 1029YOPC   GL214162  13.654   5.085   6.558 -0.0161 -0.0589  0.1847
 1029YOPC   C1A14163  13.521   5.341   7.005 -0.1413  0.0196 -0.0282
 1029YOPC   D2A14164  13.257   5.287   7.390  0.1375 -0.1460 -0.0742
 1029YOPC   C3A14165  13.071   5.397   7.807  0.0985 -0.1538 -0.1277
 1029YOPC   C4A14166  12.918   5.393   8.247 -0.1495 -0.6697 -0.1032
 1029YOPC   C1B14167  14.002   5.248   6.755 -0.0862  0.1477 -0.0457
 1029YOPC   C2B14168  14.010   5.464   7.088  0.0424 -0.0906  0.1317
 1029YOPC   D3B14169  14.393   5.638   7.315 -0.0110 -0.1484  0.0678
 1029YOPC   C4B14170  14.745   5.520   7.463  0.0588  0.0202 -0.2904
 1030YOPC   NC314171   6.963  10.786   5.805 -0.0058  0.2501 -0.0365
 1030YOPC   PO414172   7.343  10.653   5.952 -0.1394  0.4351 -0.0829
 1030YOPC   GL114173   7.435  10.376   6.259 -0.2381 -0.1986 -0.1902
 1030YOPC   GL214174   7.671  10.028   6.273  0.2694  0.1495 -0.0743
 1030YOPC   C1A14175   7.502  10.427   6.594 -0.0177 -0.0601 -0.0511
 1030YOPC   D2A14176   7.561  10.363   7.007 -0.1601  0.2858 -0.1276
 1030YOPC   C3A14177   7.902  10.285   7.212 -0.0601 -0.1250 -0.2848
 1030YOPC   C4A14178   7.930  10.060   7.706  0.1968  0.0300  0.2587
 1030YOPC   C1B14179   7.788   9.857   6.568 -0.0678  0.1009 -0.1847
 1030YOPC   C2B14180   7.775   9.797   7.111  0.1172 -0.2346 -0.2052
 1030YOPC   D3B14181   7.883   9.615   7.483 -0.3324 -0.0807  0.0948
 1030YOPC   C4B14182   8.008   9.364   7.801 -0.0338 -0.2419 -0.2502
 1031YOPC   NC314183   6.005  16.357   5.664  0.1447 -0.1816  0.0342
 1031YOPC   PO414184   6.302  16.655   5.459  0.1011  0.0891 -0.2833
 1031YOPC   GL114185   6.327  16.794   6.006  0.1548 -0.1279  0.0859
 1031YOPC   GL214186   6.248  17.095   6.093 -0.1950  0.1264  0.3702
 1031YOPC   C1A14187   6.456  16.793   6.401 -0.0213 -0.2050 -0.3162
 1031YOPC   D2A14188   6.435  16.935   6.830  0.0213  0.0140 -0.3135
 1031YOPC   C3A14189   6.797  17.340   6.905  0.2098  0.0128  0.1637
 1031YOPC   C4A14190   7.008  17.369   7.212 -0.0973  0.0420 -0.0197
 1031YOPC   C1B14191   6.437  17.334   6.532  0.1836 -0.0105  0.0458
 1031YOPC   C2B14192   6.453  17.714   6.714  0.1299  0.0273 -0.2951
 1031YOPC   D3B14193   6.348  17.610   7.092 -0.1928  0.0553 -0.1467
 1031YOPC   C4B14194   6.078  17.885   7.437  0.0255  0.1259 -0.3243
 1032YOPC   NC314195  17.613  10.235   5.872  0.1318 -0.0686 -0.0638
 1032YOPC   PO414196  17.193  10.440   5.922  0.3043  0.1036  0.4458
 1032YOPC   GL114197  17.121  10.281   6.337 -0.0232 -0.3003  0.0071
 1032YOPC   GL214198  17.018   9.951   6.296  0.1570  0.0725 -0.0751
 1032YOPC   C1A14199  17.198  10.623   6.781 -0.0414  0.1575  0.1880
 1032YOPC   D2A14200  17.496  10.941   6.957 -0.2173 -0.1229  0.1585
 1032YOPC   C3A14201  17.741  11.049   7.390  0.0578  0.1037 -0.2828
 1032YOPC   C4A14202  17.843  11.491   7.596  0.0733 -0.1692 -0.3662
 1032YOPC   C1B14203  17.342   9.740   6.434  0.0902  0.0766 -0.1133
 1032YOPC   C2B14204  17.262   9.630   6.864  0.1097  0.1656 -0.0474
 1032YOPC   D3B14205  16.839   9.581   7.111 -0.3311 -0.4237  0.0634
 1032YOPC   C4B14206  16.652   9.218   7.365 -0.2960 -0.2404 -0.1153
 1033YOPC   NC314207  16.709   0.154   6.193  0.0677 -0.1347 -0.0749
 1033YOPC   PO414208  16.457   0.443   6.285  0.3797 -0.4573  0.1974
 1033YOPC   GL114209  16.226   0.352   6.647  0.2008  0.3209  0.3466
 1033YOPC   GL214210  15.944   0.231   6.656  0.4271  0.0956 -0.0874
 1033YOPC   C1A14211  15.987   0.568   6.963  0.1487  0.1428 -0.1842
 1033YOPC   D2A14212  15.831   0.692   7.411  0.0641  0.0647 -0.3344
 1033YOPC   C3A14213  15.774   0.271   7.613 -0.2125  0.0688  0.1884
 1033YOPC   C4A14214  15.901  -0.220   7.714 -0.2062  0.0273  0.1020
 1033YOPC   C1B14215  16.019  -0.024   7.047  0.0849  0.3456  0.2934
 1033YOPC   C2B14216  15.954  -0.348   7.246 -0.0108 -0.0732  0.0395
 1033YOPC   D3B14217  16.221  -0.622   7.592 -0.2370  0.2935  0.1211
 1033YOPC   C4B14218  16.518  -0.905   7.766  0.2509  0.0798  0.0011
 1034YOPC   NC314219   0.890  12.551   5.662  0.3633 -0.0092  0.0026
 1034YOPC   PO414220   1.078  12.969   5.682 -0.1555  0.0848 -0.1548
 1034YOPC   GL114221   1.345  13.019   5.990 -0.0433  0.1178  0.1176
 1034YOPC   GL214222   1.411  13.109   6.175  0.0977 -0.5569 -0.1428
 1034YOPC   C1A14223   1.587  12.692   6.254  0.0079  0.2173 -0.1562
 1034YOPC   D2A14224   1.481  12.555   6.681 -0.1723  0.0790 -0.0348
 1034YOPC   C3A14225   1.404  12.490   7.080 -0.0175 -0.1934  0.0277
 1034YOPC   C4A14226   1.121  12.646   7.362 -0.0734 -0.1102 -0.1634
 1034YOPC   C1B14227   1.259  12.987   6.561 -0.0647  0.1042  0.0920
 1034YOPC   C2B14228   1.291  12.999   6.957  0.0272  0.0018 -0.0192
 1034YOPC   D3B14229   1.074  13.131   7.206 -0.0128  0.0534 -0.0821
 1034YOPC   C4B14230   1.166  13.336   7.541 -0.1124  0.3194 -0.1430
 1035YOPC   NC314231   4.472  13.030   5.525  0.1526 -0.1184  0.2453
 1035YOPC   PO414232   4.137  12.930   5.727  0.1869  0.2510 -0.1571
 1035YOPC   GL114233   4.222  13.118   6.056  0.5646 -0.3738 -0.0451
 1035YOPC   GL214234   4.558  13.243   6.048 -0.1215 -0.0517  0.0762
 1035YOPC   C1A14235   4.327  13.247   6.457 -0.1078 -0.1298  0.3758
 1035YOPC   D2A14236   4.095  13.226   6.836  0.1365 -0.0610 -0.1188
 1035YOPC   C3A14237   4.000  13.503   7.324 -0.3190 -0.1820 -0.4057
 1035YOPC   C4A14238   3.798  13.593   7.853  0.0524 -0.1206 -0.1690
 1035YOPC   C1B14239   4.619  13.606   6.378 -0.1606  0.1052  0.2944
 1035YOPC   C2B14240   4.910  13.673   6.688 -0.3436 -0.2513  0.0248
 1035YOPC   D3B14241   4.821  13.913   7.047 -0.3360  0.2017  0.0831
 1035YOPC   C4B14242   4.518  13.909   7.322 -0.1114  0.2047 -0.1027
 1036YOPC   NC314243  14.932  15.364   5.330 -0.0959 -0.4844  0.2643
 1036YOPC   PO414244  15.088  15.530   5.746  0.0795  0.2224  0.0716
 1036YOPC   GL114245  15.020  15.403   6.120 -0.2010 -0.1110  0.0862
 1036YOPC   GL214246  14.629  15.283   6.243  0.1224  0.2085  0.0259
 1036YOPC   C1A14247  15.122  15.237   6.502 -0.2377  0.2401 -0.3007
 1036YOPC   D2A14248  15.590  15.387   6.576  0.1778  0.1839  0.0841
 1036YOPC   C3A14249  15.891  15.223   6.721 -0.2335  0.1397  0.2113
 1036YOPC   C4A14250  15.940  15.055   7.132 -0.0122 -0.1257 -0.1363
 1036YOPC   C1B14251  14.746  14.960   6.494 -0.1089  0.0399 -0.3316
 1036YOPC   C2B14252  14.970  14.970   6.904  0.0459 -0.0016 -0.0996
 1036YOPC   D3B14253  14.721  14.758   7.219  0.0661 -0.1071  0.2594
 1036YOPC   C4B14254  14.916  14.800   7.506 -0.3785 -0.1111 -0.0072
 1037YOPC   NC314255   2.613   7.312   6.272  0.1233  0.3759  0.0019
 1037YOPC   PO414256   2.495   6.907   6.201 -0.0475 -0.3102 -0.0626
 1037YOPC   GL114257   2.437   6.967   6.598 -0.1325 -0.3087  0.1541
 1037YOPC   GL214258   2.166   7.111   6.801 -0.0919  0.1168  0.0528
 1037YOPC   C1A14259   2.645   7.021   7.053 -0.1245 -0.1635 -0.2782
 1037YOPC   D2A14260   2.642   7.072   7.603 -0.1110  0.0707 -0.1252
 1037YOPC   C3A14261   2.422   7.304   7.963 -0.3775  0.2026 -0.1442
 1037YOPC   C4A14262   2.035   7.539   8.015  0.2474 -0.0232  0.3193
 1037YOPC   C1B14263   1.829   7.438   6.757 -0.3867  0.1102 -0.1684
 1037YOPC   C2B14264   1.541   7.495   7.172  0.0181  0.0516 -0.1131
 1037YOPC   D3B14265   1.870   7.510   7.452 -0.1237  0.0656  0.0919
 1037YOPC   C4B14266   2.267   7.736   7.580 -0.2214  0.0643  0.2173
 1038YOPC   NC314267  12.296   3.953   5.461  0.1252  0.0033  0.0357
 1038YOPC   PO414268  11.947   3.669   5.401 -0.1506  0.2315 -0.1634
 1038YOPC   GL114269  11.915   3.586   5.806  0.0631 -0.0513 -0.1203
 1038YOPC   GL214270  11.851   3.220   5.848 -0.0730  0.4115 -0.0165
 1038YOPC   C1A14271  11.987   3.719   6.213 -0.0712  0.2507 -0.0910
 1038YOPC   D2A14272  12.144   3.775   6.628  0.1684 -0.1633  0.1334
 1038YOPC   C3A14273  11.855   3.733   7.054 -0.0754 -0.5700 -0.1357
 1038YOPC   C4A14274  11.518   4.003   7.241  0.0196  0.2663  0.1045
 1038YOPC   C1B14275  11.803   3.002   6.216 -0.0918  0.0249 -0.1345
 1038YOPC   C2B14276  11.705   3.001   6.631  0.0624  0.0457 -0.3460
 1038YOPC   D3B14277  11.564   3.340   6.880  0.3542  0.0512 -0.1296
 1038YOPC   C4B14278  11.318   3.473   7.202 -0.4353 -0.0403 -0.1012
 1039YOPC   NC314279  11.957   7.322   5.696  0.0601 -0.0583  0.0061
 1039YOPC   PO414280  11.563   7.605   5.820  0.1357  0.2517 -0.1023
 1039YOPC   GL114281  11.403   7.855   6.141  0.0439 -0.0285  0.1456
 1039YOPC   GL214282  11.523   7.744   6.398 -0.0419 -0.1566 -0.0184
 1039YOPC   C1A14283  11.113   8.069   6.179  0.4625  0.1616  0.1610
 1039YOPC   D2A14284  10.749   8.013   6.403 -0.0907  0.0556  0.1376
 1039YOPC   C3A14285  10.810   8.017   6.809  0.0468 -0.0315 -0.1585
 1039YOPC   C4A14286  10.777   7.966   7.245 -0.2381  0.1264 -0.1075
 1039YOPC   C1B14287  11.297   7.945   6.619  0.1652  0.2112 -0.0423
 1039YOPC   C2B14288  11.178   7.725   6.871 -0.0968  0.2247  0.1556
 1039YOPC   D3B14289  11.157   7.444   7.242  0.2055 -0.2166 -0.2419
 1039YOPC   C4B14290  11.097   7.607   7.698  0.1380  0.0249  0.3493
 1040YOPC   NC314291  16.384  11.114   5.739 -0.0427 -0.3153 -0.0866
 1040YOPC   PO414292  16.421  10.684   5.978  0.0943 -0.3121 -0.2533
 1040YOPC   GL114293  16.261  10.628   6.376  0.0676 -0.2784 -0.1375
 1040YOPC   GL214294  16.349  10.351   6.418 -0.1935 -0.1828  0.0667
 1040YOPC   C1A14295  16.248  10.608   6.889 -0.0131 -0.0925 -0.2434
 1040YOPC   D2A14296  16.335  10.566   7.369 -0.0818  0.0091  0.2310
 1040YOPC   C3A14297  16.462  10.381   7.721 -0.2394 -0.2915  0.0951
 1040YOPC   C4A14298  16.470  10.559   8.203  0.1724  0.3408  0.1774
 1040YOPC   C1B14299  16.733  10.186   6.680  0.2351 -0.1331  0.0025
 1040YOPC   C2B14300  17.058  10.098   6.929 -0.0501  0.0654  0.3676
 1040YOPC   D3B14301  17.398  10.107   6.838 -0.0247 -0.0590  0.1419
 1040YOPC   C4B14302  17.730  10.162   7.153  0.0516 -0.1472  0.1010
 1041YOPC   NC314303  11.050  14.254   6.091  0.0340 -0.0708 -0.0182
 1041YOPC   PO414304  11.316  14.607   6.036  0.0796  0.1034 -0.1409
 1041YOPC   GL114305  11.083  14.641   6.429  0.1700 -0.1764  0.0581
 1041YOPC   GL214306  10.765  14.724   6.408  0.2285  0.2551 -0.3226
 1041YOPC   C1A14307  11.260  14.830   6.814 -0.0127 -0.1034  0.0204
 1041YOPC   D2A14308  11.273  14.685   7.259 -0.0567  0.1285 -0.1305
 1041YOPC   C3A14309  10.930  14.570   7.482  0.1328 -0.0695 -0.0632
 1041YOPC   C4A14310  10.616  14.348   7.797 -0.2315 -0.1292 -0.0593
 1041YOPC   C1B14311  10.830  14.692   6.924 -0.1231 -0.0960 -0.1792
 1041YOPC   C2B14312  10.638  14.903   7.256  0.0362  0.0151 -0.2249
 1041YOPC   D3B14313  10.366  14.752   7.577 -0.2231 -0.0945 -0.1006
 1041YOPC   C4B14314  10.342  14.717   7.941 -0.0585 -0.3361  0.1088
 1042YOPC   NC314315  18.088   6.234   6.036  0.0521 -0.1009 -0.1896
 1042YOPC   PO414316  17.827   5.823   6.236 -0.0940 -0.3205  0.1737
 1042YOPC   GL114317  17.813   5.608   6.658  0.0467  0.1814  0.0446
 1042YOPC   GL214318  17.640   5.292   6.591  0.1413  0.2181  0.0111
 1042YOPC   C1A14319  17.716   5.530   7.075 -0.0551 -0.1952  0.1873
 1042YOPC   D2A14320  17.447   5.623   7.445 -0.1232  0.2085  0.1158
 1042YOPC   C3A14321  17.167   5.209   7.702  0.1634  0.0298 -0.1975
 1042YOPC   C4A14322  16.957   5.016   7.957  0.1112  0.4266  0.2906
 1042YOPC   C1B14323  17.225   5.308   6.766  0.0059 -0.1884 -0.2468
 1042YOPC   C2B14324  17.270   5.671   6.840  0.1549 -0.0492  0.2481
 1042YOPC   D3B14325  17.200   6.056   7.174  0.0047  0.0737 -0.0870
 1042YOPC   C4B14326  17.139   6.073   7.542 -0.1622  0.1967  0.2141
 1043YOPC   NC314327   4.076   6.509   5.668  0.0138 -0.1697 -0.1147
 1043YOPC   PO414328   4.067   6.182   5.568 -0.0937 -0.1727 -0.3092
 1043YOPC   GL114329   3.943   6.077   6.021  0.2058  0.0090  0.0847
 1043YOPC   GL214330   4.118   5.843   6.104  0.0203  0.0976 -0.0867
 1043YOPC   C1A14331   3.761   6.192   6.385  0.3852 -0.2303  0.1490
 1043YOPC   D2A14332   3.897   6.519   6.704 -0.2148 -0.0421 -0.0660
 1043YOPC   C3A14333   3.894   6.933   6.763  0.0107  0.1124 -0.3137
 1043YOPC   C4A14334   3.985   7.382   6.740 -0.0505 -0.1229  0.1381
 1043YOPC   C1B14335   4.080   5.797   6.534  0.0797 -0.1221 -0.0099
 1043YOPC   C2B14336   3.814   5.909   6.895  0.0343  0.1177 -0.0307
 1043YOPC   D3B14337   3.969   6.297   7.119 -0.1765 -0.1440 -0.3028
 1043YOPC   C4B14338   4.305   6.469   7.407 -0.2308  0.0187  0.2114
 1044YOPC   NC314339   2.081   4.169   6.018 -0.1218  0.0791  0.0041
 1044YOPC   PO414340   2.035   3.812   6.283  0.0400  0.0054  0.0313
 1044YOPC   GL114341   2.190   3.793   6.713  0.1858 -0.1917  0.2200
 1044YOPC   GL214342   1.968   3.925   6.960 -0.0033 -0.2440 -0.2212
 1044YOPC   C1A14343   2.406   3.825   7.178  0.0720  0.3581 -0.0052
 1044YOPC   D2A14344   2.440   4.097   7.472  0.1377 -0.1635  0.2325
 1044YOPC   C3A14345   2.296   3.890   7.827 -0.0210  0.4371  0.2055
 1044YOPC   C4A14346   1.833   3.741   7.898 -0.1510  0.0747  0.3492
 1044YOPC   C1B14347   1.976   3.569   7.304  0.1383 -0.0893  0.2094
 1044YOPC   C2B14348   2.150   3.263   7.532 -0.2474 -0.1260  0.1217
 1044YOPC   D3B14349   2.186   3.381   7.945 -0.5166 -0.1679 -0.4626
 1044YOPC   C4B14350   1.875   3.275   8.200  0.1895  0.0613 -0.1160
 1045YOPC   NC314351  13.047  11.246   5.171 -0.0701 -0.5006  0.0195
 1045YOPC   PO414352  12.908  10.833   5.318 -0.0340 -0.0411  0.2513
 1045YOPC   GL114353  12.656  10.702   5.702 -0.4563 -0.3838 -0.0293
 1045YOPC   GL214354  12.302  10.593   5.806  0.1665 -0.0980 -0.1615
 1045YOPC   C1A14355  12.526  10.935   6.057 -0.0257 -0.1062  0.0749
 1045YOPC   D2A14356  12.308  11.151   6.350 -0.2025 -0.0611 -0.1190
 1045YOPC   C3A14357  12.103  10.926   6.705 -0.1998 -0.0535 -0.0283
 1045YOPC   C4A14358  11.832  11.098   7.099  0.0290 -0.0556  0.1694
 1045YOPC   C1B14359  12.312  10.191   6.079  0.2656 -0.1542  0.0321
 1045YOPC   C2B14360  12.303  10.057   6.568 -0.3488  0.4659  0.0619
 1045YOPC   D3B14361  12.658  10.276   6.851  0.2057  0.0514  0.0225
 1045YOPC   C4B14362  12.668  10.195   7.278  0.0033 -0.3055  0.2360
 1046YOPC   NC314363  12.550   1.529   6.029  0.0479  0.1684 -0.0206
 1046YOPC   PO414364  12.481   1.082   5.930  0.5767 -0.3659 -0.1647
 1046YOPC   GL114365  12.503   0.995   6.451  0.0074 -0.0448  0.1131
 1046YOPC   GL214366  12.721   0.842   6.602  0.1768 -0.1064  0.1914
 1046YOPC   C1A14367  12.192   0.963   6.804  0.3416 -0.2688  0.1246
 1046YOPC   D2A14368  11.907   1.223   7.055  0.0792 -0.0465  0.1004
 1046YOPC   C3A14369  12.194   1.455   7.416  0.2009  0.2751 -0.2794
 1046YOPC   C4A14370  12.148   1.714   7.739  0.2656 -0.0884  0.0336
 1046YOPC   C1B14371  12.672   0.690   6.985 -0.2419  0.1068 -0.0371
 1046YOPC   C2B14372  12.596   0.240   7.223  0.1527  0.0710  0.1583
 1046YOPC   D3B14373  12.168   0.031   7.364  0.0658  0.0221  0.2207
 1046YOPC   C4B14374  12.221  -0.350   7.123 -0.2307 -0.1827  0.0695
 1047YOPC   NC314375   4.985   7.222   5.804 -0.3080 -0.1637 -0.0663
 1047YOPC   PO414376   4.583   7.200   6.007  0.1660 -0.0224 -0.1015
 1047YOPC   GL114377   4.425   7.134   6.517 -0.2327 -0.0447 -0.3189
 1047YOPC   GL214378   4.427   6.784   6.549  0.0622 -0.3721 -0.3397
 1047YOPC   C1A14379   4.457   7.237   6.881  0.0160  0.3124 -0.3494
 1047YOPC   D2A14380   4.293   7.149   7.255 -0.2634  0.1273 -0.1365
 1047YOPC   C3A14381   3.910   7.344   7.397  0.1468 -0.0973  0.0377
 1047YOPC   C4A14382   3.626   7.533   7.742  0.0075  0.1091 -0.1017
 1047YOPC   C1B14383   4.290   6.640   6.948  0.1979  0.1324  0.1367
 1047YOPC   C2B14384   3.893   6.743   7.308  0.0708 -0.0639 -0.1027
 1047YOPC   D3B14385   3.914   6.528   7.703  0.3000 -0.1377 -0.1443
 1047YOPC   C4B14386   3.953   6.646   8.148 -0.0783 -0.4056  0.1164
 1048YOPC   NC314387  16.434  16.963   5.861  0.0110 -0.1064 -0.4660
 1048YOPC   PO414388  16.512  17.409   6.040 -0.0198  0.0534  0.0356
 1048YOPC   GL114389  16.630  17.668   6.466 -0.0870  0.0368  0.1666
 1048YOPC   GL214390  16.759  17.987   6.578 -0.4335  0.1067  0.1885
 1048YOPC   C1A14391  16.784  17.536   6.810 -0.1020 -0.1419 -0.0637
 1048YOPC   D2A14392  16.837  17.183   7.004  0.0172 -0.1209 -0.0632
 1048YOPC   C3A14393  16.408  17.130   7.187 -0.0923 -0.3499  0.1355
 1048YOPC   C4A14394  16.046  17.116   7.000  0.0228 -0.0491  0.0111
 1048YOPC   C1B14395  16.792  18.155   6.927  0.0866  0.0450  0.3142
 1048YOPC   C2B14396  16.929  18.259   7.262 -0.1094 -0.1839  0.1227
 1048YOPC   D3B14397  17.177  18.153   7.549 -0.0035  0.2481  0.1517
 1048YOPC   C4B14398  17.044  18.148   8.071 -0.1496 -0.0111  0.1240
 1049YOPC   NC314399  12.779   2.311   5.650 -0.1366 -0.0025  0.0308
 1049YOPC   PO414400  13.045   2.404   6.050 -0.0541  0.4711 -0.2601
 1049YOPC   GL114401  12.929   2.363   6.411 -0.0165 -0.0071  0.2201
 1049YOPC   GL214402  13.172   2.224   6.544  0.1597  0.2976 -0.1823
 1049YOPC   C1A14403  13.000   2.591   6.899  0.2397 -0.1110  0.0692
 1049YOPC   D2A14404  12.822   2.561   7.380 -0.1921  0.3156 -0.2517
 1049YOPC   C3A14405  12.527   2.420   7.558  0.0118  0.2242  0.2471
 1049YOPC   C4A14406  12.618   2.654   7.920  0.1716  0.2091  0.2433
 1049YOPC   C1B14407  13.020   2.070   6.886 -0.1683  0.0834  0.0840
 1049YOPC   C2B14408  12.647   1.993   7.114 -0.1407 -0.2004  0.3171
 1049YOPC   D3B14409  12.646   1.676   7.365 -0.2316 -0.3137  0.0449
 1049YOPC   C4B14410  12.967   1.503   7.656 -0.2784  0.0591 -0.3000
 1050YOPC   NC314411  15.778   8.833   5.881 -0.2811 -0.2002 -0.1763
 1050YOPC   PO414412  15.740   9.311   5.778  0.2925  0.0252 -0.1009
 1050YOPC   GL114413  15.757   9.217   6.205  0.0418  0.0938  0.1647
 1050YOPC   GL214414  15.503   8.991   6.240 -0.4311 -0.3086  0.1535
 1050YOPC   C1A14415  15.503   9.266   6.628  0.0059  0.0799 -0.0279
 1050YOPC   D2A14416  15.290   9.469   6.935  0.0954 -0.2981 -0.1265
 1050YOPC   C3A14417  15.364   9.654   7.343 -0.0365 -0.1002  0.0696
 1050YOPC   C4A14418  15.586   9.726   7.797 -0.0127 -0.3074 -0.0135
 1050YOPC   C1B14419  15.614   8.736   6.611  0.2741  0.2497  0.0264
 1050YOPC   C2B14420  15.812   8.678   7.041 -0.1471  0.0380  0.2239
 1050YOPC   D3B14421  15.732   8.843   7.401  0.0595 -0.1663  0.0392
 1050YOPC   C4B14422  16.108   9.132   7.523 -0.0399  0.0899  0.0796
 1051YOPC   NC314423  14.557  15.572   5.819 -0.0459  0.0643 -0.1187
 1051YOPC   PO414424  14.160  15.772   5.823 -0.4673  0.0085  0.4662
 1051YOPC   GL114425  14.022  15.906   6.179 -0.1329 -0.3595  0.2256
 1051YOPC   GL214426  14.161  16.131   6.449  0.2270  0.0761 -0.2156
 1051YOPC   C1A14427  13.748  15.727   6.584 -0.0050  0.1631  0.1419
 1051YOPC   D2A14428  13.875  15.567   6.877 -0.1208 -0.0704 -0.1625
 1051YOPC   C3A14429  13.992  15.775   7.259  0.0508 -0.2501  0.0008
 1051YOPC   C4A14430  14.081  15.434   7.545 -0.2703 -0.0228  0.0926
 1051YOPC   C1B14431  14.141  16.174   6.904 -0.1392  0.1781 -0.0780
 1051YOPC   C2B14432  14.237  16.315   7.360  0.0436 -0.1799  0.0181
 1051YOPC   D3B14433  13.966  16.522   7.638 -0.3748  0.2268 -0.0251
 1051YOPC   C4B14434  13.815  16.517   8.047  0.0978  0.0212  0.1711
 1052YOPC   NC314435   7.826   7.725   5.615  0.3239  0.1907  0.1690
 1052YOPC   PO414436   7.920   7.198   5.660  0.0357 -0.1485 -0.1341
 1052YOPC   GL114437   7.736   7.089   6.099 -0.1956  0.2146  0.0586
 1052YOPC   GL214438   7.482   7.221   6.309 -0.0292  0.0785 -0.0213
 1052YOPC   C1A14439   7.949   6.887   6.449  0.0805  0.4063 -0.1073
 1052YOPC   D2A14440   8.070   6.797   6.843  0.4587 -0.0901 -0.0872
 1052YOPC   C3A14441   7.965   6.795   7.330  0.0024 -0.1007  0.1735
 1052YOPC   C4A14442   8.096   6.562   7.789  0.0024 -0.0894  0.1537
 1052YOPC   C1B14443   7.814   7.362   6.559 -0.0370 -0.2046  0.3752
 1052YOPC   C2B14444   7.908   7.645   6.857  0.0105  0.2179 -0.1576
 1052YOPC   D3B14445   8.197   7.645   7.043 -0.0150 -0.2667  0.1229
 1052YOPC   C4B14446   8.357   7.687   7.392 -0.0726 -0.5175  0.0293
 1053YOPC   NC314447   5.744  14.642   5.727  0.2934 -0.2134  0.1519
 1053YOPC   PO414448   5.864  15.063   5.839  0.1235  0.1322 -0.0044
 1053YOPC   GL114449   5.743  14.857   6.244 -0.0175 -0.0352 -0.1006
 1053YOPC   GL214450   5.743  14.632   6.197  0.0995  0.3450  0.1015
 1053YOPC   C1A14451   5.675  14.945   6.618 -0.1525 -0.1249 -0.4960
 1053YOPC   D2A14452   5.296  15.062   6.770  0.2792  0.2704  0.0903
 1053YOPC   C3A14453   5.182  15.544   6.587 -0.0287 -0.1032  0.1861
 1053YOPC   C4A14454   4.844  15.825   6.524  0.0506 -0.2637 -0.0776
 1053YOPC   C1B14455   5.707  14.264   6.399  0.0885  0.1633  0.0029
 1053YOPC   C2B14456   5.768  13.889   6.733 -0.0478  0.2103 -0.4698
 1053YOPC   D3B14457   5.389  13.660   6.867 -0.1442  0.1904  0.1694
 1053YOPC   C4B14458   5.160  13.559   7.231  0.1006 -0.0187 -0.0208
 1054YOPC   NC314459   2.853   0.069   5.768 -0.0798  0.3962  0.2750
 1054YOPC   PO414460   3.211   0.122   5.952  0.2974 -0.0393  0.3650
 1054YOPC   GL114461   3.086  -0.139   6.362  0.1139  0.1135  0.0086
 1054YOPC   GL214462   3.242  -0.365   6.232  0.2766  0.0449  0.1005
 1054YOPC   C1A14463   3.067  -0.133   6.754  0.1149  0.1268  0.0901
 1054YOPC   D2A14464   3.360   0.064   6.950 -0.1391 -0.1484 -0.1642
 1054YOPC   C3A14465   3.482  -0.097   7.346 -0.0123 -0.3348  0.1509
 1054YOPC   C4A14466   3.317  -0.373   7.696 -0.5265 -0.1331  0.0225
 1054YOPC   C1B14467   3.216  -0.591   6.553  0.0441 -0.2867 -0.1534
 1054YOPC   C2B14468   3.124  -0.674   6.937 -0.3334  0.2542 -0.1536
 1054YOPC   D3B14469   3.151  -0.392   7.148  0.0561 -0.0111 -0.0874
 1054YOPC   C4B14470   3.010  -0.027   7.378  0.1447 -0.0423  0.1068
 1055YOPC   NC314471  14.476   7.413   5.628  0.3029 -0.0012  0.1025
 1055YOPC   PO414472  14.071   7.609   5.587  0.3062 -0.1860 -0.0596
 1055YOPC   GL114473  14.126   7.619   6.017  0.3126 -0.1677  0.0836
 1055YOPC   GL214474  14.110   7.907   6.022 -0.0162 -0.1384  0.1456
 1055YOPC   C1A14475  14.086   7.520   6.431 -0.1630  0.0435 -0.2372
 1055YOPC   D2A14476  14.006   7.349   6.861  0.1899 -0.0385 -0.0543
 1055YOPC   C3A14477  14.146   7.408   7.208 -0.3415  0.0038 -0.0052
 1055YOPC   C4A14478  14.230   7.510   7.557 -0.2378  0.2222  0.2767
 1055YOPC   C1B14479  14.090   8.064   6.462  0.3143 -0.0855 -0.1583
 1055YOPC   C2B14480  13.873   8.322   6.660  0.1953 -0.0883  0.2293
 1055YOPC   D3B14481  13.781   8.573   7.152 -0.0272 -0.1659  0.2157
 1055YOPC   C4B14482  13.963   8.852   7.471  0.0382  0.3287 -0.2022
 1056YOPC   NC314483   3.799   2.227   6.141 -0.1699  0.0823  0.0499
 1056YOPC   PO414484   3.532   2.329   5.781  0.0679  0.0480  0.0507
 1056YOPC   GL114485   3.211   2.384   6.125 -0.2486 -0.1931  0.0515
 1056YOPC   GL214486   3.119   2.079   6.122  0.1152  0.4225 -0.0034
 1056YOPC   C1A14487   3.024   2.377   6.569  0.0606 -0.1313  0.1469
 1056YOPC   D2A14488   3.243   2.457   7.029 -0.0929  0.4576 -0.0823
 1056YOPC   C3A14489   3.311   2.405   7.467  0.2974 -0.0161  0.1610
 1056YOPC   C4A14490   3.428   2.550   7.944  0.1695  0.0399  0.0272
 1056YOPC   C1B14491   3.341   1.917   6.378 -0.3923  0.3005 -0.2423
 1056YOPC   C2B14492   3.621   2.103   6.639 -0.0378 -0.2417 -0.1878
 1056YOPC   D3B14493   3.544   2.604   6.618  0.1745 -0.2146  0.2086
 1056YOPC   C4B14494   3.336   3.005   6.704  0.0484  0.1000  0.2054
 1057YOPC   NC314495   7.877  11.514   5.487  0.1369 -0.2978  0.3051
 1057YOPC   PO414496   7.965  12.012   5.663  0.2776 -0.1765 -0.0328
 1057YOPC   GL114497   8.062  12.152   6.173 -0.1558 -0.0981  0.0971
 1057YOPC   GL214498   8.103  12.468   6.151 -0.2422  0.1033 -0.0557
 1057YOPC   C1A14499   8.119  11.841   6.514  0.0728  0.1718 -0.2029
 1057YOPC   D2A14500   8.250  11.608   6.845  0.1643 -0.2973 -0.3951
 1057YOPC   C3A14501   7.911  11.503   7.096  0.1204 -0.0766  0.0117
 1057YOPC   C4A14502   7.801  11.297   7.472 -0.2247 -0.2522  0.1123
 1057YOPC   C1B14503   8.027  12.788   6.413  0.2197  0.2130 -0.1954
 1057YOPC   C2B14504   7.879  12.784   6.831 -0.0696 -0.1257  0.0939
 1057YOPC   D3B14505   7.844  12.590   7.215  0.0936 -0.0839 -0.1688
 1057YOPC   C4B14506   7.992  12.749   7.560  0.1931  0.1289 -0.2041
 1058YOPC   NC314507  16.097   7.978   5.520 -0.0218 -0.0232  0.0786
 1058YOPC   PO414508  16.044   8.459   5.715  0.1470  0.0916  0.0677
 1058YOPC   GL114509  16.245   8.596   6.220  0.0122 -0.2362 -0.0409
 1058YOPC   GL214510  16.195   8.341   6.458  0.0828 -0.3093 -0.0681
 1058YOPC   C1A14511  16.087   8.944   6.597 -0.1517 -0.3347 -0.1131
 1058YOPC   D2A14512  16.103   9.337   6.659 -0.0979  0.2642  0.1029
 1058YOPC   C3A14513  15.834   9.192   6.972 -0.1190 -0.0775 -0.0830
 1058YOPC   C4A14514  15.697   9.326   7.373 -0.0354 -0.0495  0.1145
 1058YOPC   C1B14515  16.197   8.496   6.811 -0.0991 -0.0727  0.0921
 1058YOPC   C2B14516  16.292   8.333   7.202 -0.0577 -0.0668 -0.2453
 1058YOPC   D3B14517  16.121   8.564   7.553  0.1669  0.2993 -0.2618
 1058YOPC   C4B14518  15.792   8.601   7.907 -0.1229 -0.1289 -0.0930
 1059YOPC   NC314519   5.856   5.676   5.821  0.0814  0.1772 -0.2037
 1059YOPC   PO414520   6.204   5.802   5.944  0.0756 -0.1136  0.2930
 1059YOPC   GL114521   6.152   5.744   6.387  0.0841 -0.1792 -0.0272
 1059YOPC   GL214522   6.212   6.073   6.496 -0.2566 -0.0331  0.2446
 1059YOPC   C1A14523   5.932   5.596   6.777  0.0204  0.0419  0.2468
 1059YOPC   D2A14524   6.072   5.455   7.141 -0.2236 -0.0145  0.1295
 1059YOPC   C3A14525   6.180   5.157   7.579 -0.1142 -0.2144  0.1882
 1059YOPC   C4A14526   5.961   4.851   7.735 -0.1909  0.2163  0.2170
 1059YOPC   C1B14527   6.322   5.861   6.903  0.2482 -0.2759 -0.1125
 1059YOPC   C2B14528   6.401   5.967   7.261 -0.2058  0.0390 -0.0541
 1059YOPC   D3B14529   6.050   5.675   7.569 -0.3001 -0.0458 -0.0459
 1059YOPC   C4B14530   5.812   5.348   7.823 -0.1669 -0.0138 -0.0715
 1060YOPC   NC314531   5.995   0.221   5.543 -0.0032  0.1232  0.0592
 1060YOPC   PO414532   6.195   0.637   5.486  0.1501 -0.1197  0.0848
 1060YOPC   GL114533   6.277   0.562   5.847  0.0395 -0.1872 -0.1411
 1060YOPC   GL214534   6.627   0.686   6.032  0.0435 -0.0138  0.0484
 1060YOPC   C1A14535   6.343   0.368   6.150  0.0184 -0.0390 -0.0763
 1060YOPC   D2A14536   6.569   0.225   6.396  0.0292  0.3672  0.0302
 1060YOPC   C3A14537   6.424   0.178   6.771 -0.1507 -0.0722  0.0643
 1060YOPC   C4A14538   6.318  -0.123   6.997 -0.0616  0.3132  0.0288
 1060YOPC   C1B14539   6.537   0.830   6.408 -0.1606  0.2121  0.0521
 1060YOPC   C2B14540   6.444   0.677   6.804  0.1279  0.0292  0.1690
 1060YOPC   D3B14541   6.402   0.457   7.183 -0.4228  0.0167 -0.2941
 1060YOPC   C4B14542   6.312   0.130   7.506 -0.2732 -0.2881  0.3817
 1061YOPC   NC314543  11.291  15.201   6.068 -0.3894 -0.2482  0.0540
 1061YOPC   PO414544  11.389  15.471   5.742  0.0226  0.6006 -0.2179
 1061YOPC   GL114545  11.649  15.487   6.145  0.4179  0.0820 -0.3421
 1061YOPC   GL214546  11.444  15.526   6.462  0.0435  0.2075  0.1773
 1061YOPC   C1A14547  11.897  15.369   6.497 -0.0014 -0.3218 -0.0281
 1061YOPC   D2A14548  11.646  15.272   6.909  0.0073  0.1267 -0.3694
 1061YOPC   C3A14549  11.697  14.928   7.139 -0.0458  0.0462  0.0915
 1061YOPC   C4A14550  11.693  14.808   7.528  0.0973 -0.1131  0.2028
 1061YOPC   C1B14551  11.502  15.734   6.867 -0.3319  0.0555 -0.0944
 1061YOPC   C2B14552  11.498  15.550   7.313 -0.0836 -0.0220 -0.0015
 1061YOPC   D3B14553  11.809  15.338   7.523 -0.0716 -0.1098  0.1054
 1061YOPC   C4B14554  11.958  15.084   7.840 -0.1789  0.2019 -0.4260
 1062YOPC   NC314555   9.082  12.473   5.905  0.3666 -0.2362 -0.0112
 1062YOPC   PO414556   8.629  12.695   6.053 -0.0517  0.0467 -0.3031
 1062YOPC   GL114557   8.478  12.833   6.409 -0.0633  0.2381  0.1527
 1062YOPC   GL214558   8.665  13.048   6.608 -0.2957  0.1940  0.1545
 1062YOPC   C1A14559   8.363  12.714   6.787 -0.2312 -0.2182  0.1203
 1062YOPC   D2A14560   8.347  12.562   7.221 -0.4061  0.1056 -0.0438
 1062YOPC   C3A14561   8.514  12.535   7.510 -0.0609  0.0889  0.1312
 1062YOPC   C4A14562   8.720  12.256   7.817 -0.0371 -0.1323 -0.1175
 1062YOPC   C1B14563   8.613  13.096   7.022 -0.3787  0.0029 -0.0405
 1062YOPC   C2B14564   8.868  12.844   7.269 -0.2792  0.1151 -0.1199
 1062YOPC   D3B14565   8.951  12.705   7.661 -0.0000 -0.0141 -0.0789
 1062YOPC   C4B14566   9.120  12.529   8.078  0.0348  0.0042  0.2346
 1063YOPC   NC314567   6.359   8.135   6.118 -0.2807  0.0819 -0.2848
 1063YOPC   PO414568   6.584   7.787   5.986 -0.0705  0.2342 -0.0346
 1063YOPC   GL114569   6.585   7.654   6.380 -0.4475 -0.0752 -0.0190
 1063YOPC   GL214570   6.328   7.823   6.575 -0.0689 -0.2030  0.0979
 1063YOPC   C1A14571   6.835   7.737   6.805 -0.0102 -0.2664  0.1435
 1063YOPC   D2A14572   6.921   7.978   7.202  0.1510  0.1443 -0.0503
 1063YOPC   C3A14573   7.250   7.957   7.444  0.2340  0.2135 -0.1270
 1063YOPC   C4A14574   7.550   8.074   7.757  0.1383 -0.0714 -0.0460
 1063YOPC   C1B14575   6.073   7.899   6.998  0.4182 -0.0233  0.1574
 1063YOPC   C2B14576   5.745   7.966   7.272 -0.1884 -0.1004 -0.1746
 1063YOPC   D3B14577   5.672   7.622   7.587 -0.2647  0.3001 -0.3323
 1063YOPC   C4B14578   5.678   7.419   8.012 -0.1243  0.2155 -0.1254
 1064YOPC   NC314579   6.896   4.260   5.744  0.0790 -0.2258  0.2152
 1064YOPC   PO414580   6.643   4.004   5.535 -0.0165  0.0533 -0.0087
 1064YOPC   GL114581   6.652   3.843   5.962  0.3027 -0.0078  0.0552
 1064YOPC   GL214582   6.588   4.103   6.160 -0.2031 -0.3467  0.0552
 1064YOPC   C1A14583   6.792   3.521   6.310 -0.3491 -0.0061  0.1397
 1064YOPC   D2A14584   6.885   3.132   6.527  0.1086 -0.0622  0.1519
 1064YOPC   C3A14585   7.157   3.107   6.772  0.1204  0.4143 -0.3730
 1064YOPC   C4A14586   7.598   3.321   6.845  0.0537  0.0920  0.0182
 1064YOPC   C1B14587   6.451   4.343   6.548 -0.0176 -0.0770  0.2944
 1064YOPC   C2B14588   6.320   4.570   6.899  0.3054  0.1507  0.2158
 1064YOPC   D3B14589   5.824   4.645   7.143 -0.1455  0.1332 -0.0914
 1064YOPC   C4B14590   5.572   4.409   7.398  0.0742 -0.0057 -0.1638
 1065YOPC   NC314591  15.838  15.963   6.030 -0.1862  0.0094  0.3921
 1065YOPC   PO414592  16.226  16.060   5.942 -0.0818 -0.0965  0.0229
 1065YOPC   GL114593  16.224  15.865   6.354 -0.2550  0.0252  0.1773
 1065YOPC   GL214594  16.285  16.156   6.588 -0.0551 -0.0786 -0.1806
 1065YOPC   C1A14595  16.207  15.602   6.705  0.0041  0.1714 -0.0782
 1065YOPC   D2A14596  16.340  15.264   6.973  0.0896  0.0433  0.1173
 1065YOPC   C3A14597  16.249  15.276   7.436 -0.1305 -0.0828  0.0578
 1065YOPC   C4A14598  15.990  14.899   7.640  0.0875  0.1025  0.2314
 1065YOPC   C1B14599  16.389  16.124   7.072  0.2694  0.5008  0.1221
 1065YOPC   C2B14600  16.302  16.321   7.474  0.1647  0.1847  0.3977
 1065YOPC   D3B14601  16.620  16.202   7.699  0.2287  0.1937  0.1858
 1065YOPC   C4B14602  16.996  15.901   7.695 -0.2077  0.1569 -0.1506
 1066YOPC   NC314603  12.202  16.344   6.344 -0.1112 -0.1889 -0.2297
 1066YOPC   PO414604  12.532  16.451   6.352  0.3658 -0.1503 -0.0927
 1066YOPC   GL114605  12.798  16.387   6.689  0.2418 -0.0008  0.1135
 1066YOPC   GL214606  12.883  16.619   6.711 -0.0764  0.1284  0.2380
 1066YOPC   C1A14607  13.114  16.260   7.014 -0.4598  0.1432 -0.0134
 1066YOPC   D2A14608  13.124  16.183   7.456 -0.0221  0.2135 -0.0489
 1066YOPC   C3A14609  12.782  15.938   7.706 -0.0156  0.1917  0.1778
 1066YOPC   C4A14610  12.543  15.840   8.104 -0.0061  0.2403 -0.1426
 1066YOPC   C1B14611  12.924  16.707   7.172  0.2239 -0.0782  0.3509
 1066YOPC   C2B14612  12.672  16.583   7.589  0.0620 -0.1700  0.1913
 1066YOPC   D3B14613  12.348  16.262   7.733  0.2519  0.0824  0.0255
 1066YOPC   C4B14614  12.117  16.110   8.070  0.1472  0.1258 -0.0507
 1067YOPC   NC314615  14.910   8.898   5.523  0.0656  0.0976 -0.0878
 1067YOPC   PO414616  15.078   8.913   5.912 -0.1975  0.3697  0.1471
 1067YOPC   GL114617  15.001   8.877   6.320 -0.3262 -0.0891  0.0334
 1067YOPC   GL214618  14.720   8.725   6.299 -0.0226 -0.1808  0.1358
 1067YOPC   C1A14619  15.088   8.986   6.707 -0.0936 -0.0072 -0.2563
 1067YOPC   D2A14620  15.392   8.959   6.970  0.1193  0.1654 -0.0080
 1067YOPC   C3A14621  15.167   9.186   7.360 -0.0650  0.0747  0.0419
 1067YOPC   C4A14622  14.876   9.152   7.620 -0.1215  0.1796 -0.4648
 1067YOPC   C1B14623  14.684   8.631   6.645 -0.3315 -0.2294  0.0210
 1067YOPC   C2B14624  14.725   8.605   7.069 -0.2070 -0.0416  0.0020
 1067YOPC   D3B14625  14.348   8.491   7.280 -0.0493 -0.3347 -0.0967
 1067YOPC   C4B14626  14.009   8.333   7.543  0.2142  0.1603  0.3470
 1068YOPC   NC314627  11.712   4.528   5.490 -0.0167 -0.2227  0.1232
 1068YOPC   PO414628  11.294   4.642   5.409 -0.1193  0.2163  0.0353
 1068YOPC   GL114629  11.211   4.731   5.844  0.0364 -0.1481 -0.3423
 1068YOPC   GL214630  11.321   4.974   6.036  0.1059 -0.0910  0.0067
 1068YOPC   C1A14631  11.138   4.452   6.114  0.2427 -0.0353 -0.1921
 1068YOPC   D2A14632  11.211   4.114   6.339  0.2035  0.2045  0.1806
 1068YOPC   C3A14633  11.402   3.815   6.075  0.1868  0.3406 -0.1657
 1068YOPC   C4A14634  11.561   3.382   6.317  0.0925 -0.0058  0.1193
 1068YOPC   C1B14635  11.470   5.174   6.475  0.1169 -0.0240 -0.2976
 1068YOPC   C2B14636  11.568   5.135   6.869 -0.1154  0.1534 -0.1892
 1068YOPC   D3B14637  11.309   4.777   7.078 -0.0080 -0.0207  0.2779
 1068YOPC   C4B14638  11.228   4.469   7.396 -0.4686  0.2250  0.2029
 1069YOPC   NC314639  12.099   6.487   5.790  0.0156 -0.0618 -0.1144
 1069YOPC   PO414640  11.770   6.368   5.926 -0.4027  0.2434 -0.2100
 1069YOPC   GL114641  11.658   6.292   6.265 -0.0415 -0.1830 -0.0023
 1069YOPC   GL214642  11.705   5.946   6.241  0.1657 -0.3380 -0.2142
 1069YOPC   C1A14643  11.426   6.435   6.571  0.0627  0.0295 -0.2140
 1069YOPC   D2A14644  11.220   6.593   6.797 -0.2172 -0.5631  0.3770
 1069YOPC   C3A14645  11.108   7.093   6.692  0.1098  0.0050 -0.1696
 1069YOPC   C4A14646  11.494   7.328   6.667 -0.0785  0.1975 -0.0992
 1069YOPC   C1B14647  11.609   5.990   6.701  0.3563  0.1408  0.2474
 1069YOPC   C2B14648  11.409   6.179   7.052 -0.2415 -0.0409  0.2268
 1069YOPC   D3B14649  11.404   6.594   7.227 -0.1286  0.0666 -0.1174
 1069YOPC   C4B14650  11.624   6.714   7.562 -0.2093 -0.2016  0.1212
 1070YOPC   NC314651  14.629  16.683   5.931 -0.0547  0.1344  0.0607
 1070YOPC   PO414652  14.290  16.579   6.216  0.0654  0.0529  0.0477
 1070YOPC   GL114653  14.313  16.595   6.656  0.0187  0.3681  0.1716
 1070YOPC   GL214654  13.977  16.631   6.727  0.2975  0.1006 -0.1810
 1070YOPC   C1A14655  14.476  16.564   7.003  0.1582  0.1175  0.3273
 1070YOPC   D2A14656  14.714  16.680   7.306  0.1717 -0.1525  0.0858
 1070YOPC   C3A14657  15.007  17.006   7.254  0.0247 -0.0226 -0.0350
 1070YOPC   C4A14658  15.218  17.409   7.166 -0.1577 -0.0932  0.1363
 1070YOPC   C1B14659  13.950  16.778   7.155 -0.0370  0.0175 -0.1182
 1070YOPC   C2B14660  13.877  16.951   7.619 -0.0904  0.0041 -0.0944
 1070YOPC   D3B14661  13.396  17.006   7.730 -0.1009  0.0574 -0.1859
 1070YOPC   C4B14662  13.043  16.759   7.867  0.0258 -0.0473 -0.4659
 1071YOPC   NC314663   3.708  15.004   5.542 -0.0628  0.1564 -0.0204
 1071YOPC   PO414664   3.364  15.194   5.512 -0.2050 -0.1507  0.0146
 1071YOPC   GL114665   3.230  14.983   5.958 -0.0407 -0.0046 -0.2098
 1071YOPC   GL214666   2.922  15.119   5.953 -0.0450  0.0976  0.4259
 1071YOPC   C1A14667   3.205  15.138   6.378  0.3968 -0.0424 -0.0609
 1071YOPC   D2A14668   3.214  15.176   6.835  0.1063  0.0607 -0.4156
 1071YOPC   C3A14669   3.086  15.480   7.205 -0.1391  0.1986 -0.0348
 1071YOPC   C4A14670   3.092  15.529   7.591  0.1811  0.0423  0.1023
 1071YOPC   C1B14671   2.737  15.057   6.301 -0.0302 -0.1233  0.1466
 1071YOPC   C2B14672   2.730  14.938   6.757  0.1091  0.3800 -0.3686
 1071YOPC   D3B14673   2.658  15.168   7.108  0.1533  0.0984  0.0060
 1071YOPC   C4B14674   2.763  15.202   7.500 -0.0544 -0.1505  0.1365
 1072YOPC   NC314675   2.211  14.722   5.666  0.1960  0.0545 -0.0383
 1072YOPC   PO414676   1.948  14.956   5.604 -0.1094 -0.0089 -0.2036
 1072YOPC   GL114677   2.021  15.002   6.017 -0.0380 -0.1348 -0.1902
 1072YOPC   GL214678   2.324  14.830   6.166 -0.2469  0.3544 -0.0840
 1072YOPC   C1A14679   1.888  14.693   6.310  0.3778  0.0116 -0.0393
 1072YOPC   D2A14680   1.808  14.822   6.745 -0.0165  0.1552 -0.2109
 1072YOPC   C3A14681   1.858  14.757   7.165  0.2404 -0.1561 -0.2381
 1072YOPC   C4A14682   1.809  14.685   7.644  0.0716 -0.2002 -0.1022
 1072YOPC   C1B14683   2.282  14.742   6.585 -0.2144 -0.1862  0.0756
 1072YOPC   C2B14684   2.344  14.710   7.101  0.1378  0.2607  0.0209
 1072YOPC   D3B14685   2.699  14.636   7.242 -0.1580  0.1789  0.2647
 1072YOPC   C4B14686   2.902  14.762   7.676  0.0941 -0.0046  0.2794
 1073YOPC   NC314687   2.373  10.343   6.062  0.0345 -0.0766  0.1906
 1073YOPC   PO414688   2.529  10.693   6.226  0.0535 -0.0047  0.6204
 1073YOPC   GL114689   2.650  10.846   6.634  0.1522 -0.0611 -0.2304
 1073YOPC   GL214690   2.673  10.603   6.812 -0.1297 -0.3104 -0.2783
 1073YOPC   C1A14691   3.046  10.957   6.954  0.1172  0.1292 -0.3417
 1073YOPC   D2A14692   3.194  11.273   7.273  0.3244  0.1413  0.0509
 1073YOPC   C3A14693   3.319  11.084   7.645  0.0084 -0.0079  0.1210
 1073YOPC   C4A14694   3.320  10.982   8.073 -0.1696 -0.0801  0.2235
 1073YOPC   C1B14695   2.582  10.840   7.138  0.0628  0.2208  0.0052
 1073YOPC   C2B14696   2.949  10.847   7.444  0.0485 -0.0311  0.1114
 1073YOPC   D3B14697   2.995  10.745   7.781  0.0755  0.2739  0.0842
 1073YOPC   C4B14698   3.149  10.427   7.977 -0.1005 -0.0932 -0.2736
 1074YOPC   NC314699  12.954   6.332   5.878 -0.0642  0.0654  0.2185
 1074YOPC   PO414700  13.042   6.737   5.979  0.0410  0.3221  0.3401
 1074YOPC   GL114701  13.330   7.045   6.171  0.1506 -0.1395 -0.0606
 1074YOPC   GL214702  13.435   6.753   6.326  0.0695  0.0229  0.0958
 1074YOPC   C1A14703  13.326   7.026   6.666 -0.2316 -0.1743  0.2085
 1074YOPC   D2A14704  13.485   7.261   7.013  0.2960  0.1042 -0.0448
 1074YOPC   C3A14705  13.604   7.206   7.430 -0.0862 -0.0457  0.0457
 1074YOPC   C4A14706  13.684   7.401   7.844  0.0564 -0.0265  0.0280
 1074YOPC   C1B14707  13.544   6.466   6.612  0.0256 -0.0425 -0.2858
 1074YOPC   C2B14708  13.467   6.447   7.073  0.2375 -0.1527 -0.1549
 1074YOPC   D3B14709  13.046   6.413   7.242 -0.0793  0.0314  0.0467
 1074YOPC   C4B14710  12.804   6.081   7.559  0.1199 -0.0355 -0.0800
 1075YOPC   NC314711  15.926  10.557   6.000 -0.0199 -0.0180 -0.1085
 1075YOPC   PO414712  16.021  11.011   6.146 -0.2250  0.0907  0.2109
 1075YOPC   GL114713  15.668  10.911   6.453  0.0633 -0.0517 -0.0019
 1075YOPC   GL214714  15.780  10.703   6.525  0.4200 -0.2949  0.1284
 1075YOPC   C1A14715  15.274  10.932   6.748 -0.0548  0.0985 -0.1291
 1075YOPC   D2A14716  14.892  10.830   6.931  0.1655 -0.2461  0.0722
 1075YOPC   C3A14717  14.883  10.479   7.272  0.1562 -0.1350 -0.0541
 1075YOPC   C4A14718  14.797  10.153   7.550  0.1357 -0.2182  0.1902
 1075YOPC   C1B14719  15.733  10.858   6.919 -0.2971  0.1789  0.1294
 1075YOPC   C2B14720  15.892  10.721   7.260 -0.0426 -0.0646 -0.1538
 1075YOPC   D3B14721  16.008  11.021   7.612  0.0137  0.0948 -0.2541
 1075YOPC   C4B14722  15.814  11.326   7.886 -0.5569  0.2204 -0.0111
 1076YOPC   NC314723   6.852  18.031   5.777  0.1746 -0.0485 -0.1803
 1076YOPC   PO414724   6.611  17.626   5.771  0.0634 -0.0631 -0.2472
 1076YOPC   GL114725   6.638  17.665   6.173 -0.1106  0.1081 -0.3044
 1076YOPC   GL214726   6.538  17.923   6.253  0.0204  0.2683  0.1229
 1076YOPC   C1A14727   6.900  17.555   6.460  0.0303 -0.0377  0.1415
 1076YOPC   D2A14728   7.203  17.573   6.789 -0.3043 -0.3104 -0.2040
 1076YOPC   C3A14729   7.481  17.325   6.857 -0.1020  0.0780 -0.2304
 1076YOPC   C4A14730   7.770  17.055   7.053  0.0422  0.1911 -0.1222
 1076YOPC   C1B14731   6.070  18.040   6.241 -0.3448  0.0967 -0.0207
 1076YOPC   C2B14732   5.887  18.156   6.669 -0.4604  0.1761 -0.0801
 1076YOPC   D3B14733   5.988  18.603   6.710  0.0821  0.2406 -0.2571
 1076YOPC   C4B14734   5.968  18.916   7.012  0.0308  0.1999 -0.3018
 1077YOPC   NC314735   5.928  11.341   5.431 -0.1496 -0.2957  0.2046
 1077YOPC   PO414736   5.845  11.619   5.754 -0.1884  0.2471 -0.0417
 1077YOPC   GL114737   5.810  11.745   6.122 -0.0010  0.0873  0.0154
 1077YOPC   GL214738   5.817  12.068   6.272 -0.4223  0.1468 -0.0176
 1077YOPC   C1A14739   5.641  11.727   6.564  0.1371  0.1395 -0.2063
 1077YOPC   D2A14740   5.561  11.834   6.965  0.2172  0.0916 -0.0319
 1077YOPC   C3A14741   5.159  11.684   7.137  0.2746  0.3340 -0.1638
 1077YOPC   C4A14742   4.691  11.558   7.373  0.1271  0.1752  0.3613
 1077YOPC   C1B14743   5.388  11.972   6.268  0.0380  0.3119 -0.0210
 1077YOPC   C2B14744   4.977  11.982   6.133 -0.3321  0.0398  0.0564
 1077YOPC   D3B14745   4.625  12.153   6.118 -0.0558  0.0926 -0.1031
 1077YOPC   C4B14746   4.216  12.152   6.239 -0.0505  0.1973 -0.2106
 1078YOPC   NC314747  12.250  16.921   6.339 -0.3431  0.0013 -0.0343
 1078YOPC   PO414748  11.811  16.797   6.250 -0.2333 -0.0641 -0.0836
 1078YOPC   GL114749  11.764  16.896   6.684  0.0521  0.1943 -0.0238
 1078YOPC   GL214750  11.553  17.107   6.859  0.0999 -0.1256 -0.0277
 1078YOPC   C1A14751  11.917  16.860   7.143  0.4826 -0.0506 -0.0884
 1078YOPC   D2A14752  12.079  16.627   7.454 -0.0038 -0.0215 -0.0009
 1078YOPC   C3A14753  11.981  16.653   7.954  0.0104  0.0294 -0.0515
 1078YOPC   C4A14754  11.978  16.562   8.401 -0.1520 -0.0678  0.3402
 1078YOPC   C1B14755  11.373  17.124   7.207 -0.3091 -0.2812 -0.0608
 1078YOPC   C2B14756  11.267  17.324   7.569 -0.0821  0.0325 -0.1708
 1078YOPC   D3B14757  10.935  17.243   7.892  0.0017 -0.1308  0.0619
 1078YOPC   C4B14758  10.792  17.480   8.364  0.0328  0.1905 -0.0981
 1079YOPC   NC314759   0.535  10.763   5.697 -0.0324 -0.0249  0.0713
 1079YOPC   PO414760   0.811  10.977   5.959 -0.1556  0.0730  0.2773
 1079YOPC   GL114761   1.057  10.816   6.390  0.1920  0.0491  0.2050
 1079YOPC   GL214762   0.826  10.739   6.556 -0.1158  0.2257  0.0761
 1079YOPC   C1A14763   1.216  10.952   6.824 -0.0489  0.2314  0.1365
 1079YOPC   D2A14764   1.301  10.982   7.219  0.5689 -0.0888 -0.1500
 1079YOPC   C3A14765   1.555  11.161   7.477  0.0333 -0.0772 -0.1818
 1079YOPC   C4A14766   1.467  11.309   7.899  0.0658 -0.3213 -0.3529
 1079YOPC   C1B14767   1.149  10.455   6.836  0.2488  0.1136  0.0453
 1079YOPC   C2B14768   1.321  10.446   7.249  0.0257 -0.1318  0.0289
 1079YOPC   D3B14769   1.628  10.182   7.480 -0.3223 -0.1263  0.0331
 1079YOPC   C4B14770   1.829  10.232   7.826 -0.0520  0.0498 -0.0610
 1080YOPC   NC314771  15.361   1.808   6.002  0.1930 -0.0374  0.2159
 1080YOPC   PO414772  15.227   2.174   6.292 -0.0650 -0.1908 -0.0326
 1080YOPC   GL114773  15.354   2.401   6.743 -0.2188  0.1731  0.2033
 1080YOPC   GL214774  15.603   2.554   6.774 -0.1738  0.2054 -0.4140
 1080YOPC   C1A14775  15.243   2.550   7.202  0.0482 -0.2507  0.2262
 1080YOPC   D2A14776  15.094   2.516   7.537 -0.0257  0.1993  0.0690
 1080YOPC   C3A14777  15.223   2.631   7.884  0.1279  0.2160  0.1713
 1080YOPC   C4A14778  15.620   2.650   8.240 -0.1452  0.2411 -0.1614
 1080YOPC   C1B14779  15.691   2.394   7.181 -0.1925 -0.2348  0.0027
 1080YOPC   C2B14780  15.620   2.440   7.628  0.1883 -0.0006  0.1616
 1080YOPC   D3B14781  15.719   2.781   7.798  0.1910 -0.1486 -0.0351
 1080YOPC   C4B14782  15.854   3.159   7.720  0.1761  0.1780 -0.0306
 1081YOPC   NC314783   0.056   9.587   5.899 -0.2214  0.2568  0.0263
 1081YOPC   PO414784   0.273   9.964   5.985  0.2650  0.0915 -0.1555
 1081YOPC   GL114785   0.057  10.065   6.383 -0.0791 -0.0943 -0.1344
 1081YOPC   GL214786   0.211  10.317   6.547  0.0437 -0.1666 -0.1212
 1081YOPC   C1A14787  -0.225  10.168   6.731  0.1615  0.2708  0.3460
 1081YOPC   D2A14788  -0.454  10.471   6.758 -0.1381  0.1085  0.0735
 1081YOPC   C3A14789  -0.240  10.823   6.931  0.1865 -0.1078 -0.5020
 1081YOPC   C4A14790  -0.072  11.198   7.203  0.0170  0.2681 -0.3983
 1081YOPC   C1B14791   0.011  10.457   7.048  0.0269  0.3998 -0.1284
 1081YOPC   C2B14792  -0.153  10.641   7.379 -0.2998 -0.0439 -0.0917
 1081YOPC   D3B14793  -0.536  10.568   7.322  0.1021 -0.1236 -0.1624
 1081YOPC   C4B14794  -0.936  10.448   7.193 -0.1896  0.2374 -0.0259
 1082YOPC   NC314795   1.785   5.962   6.284  0.1108 -0.2269  0.2979
 1082YOPC   PO414796   1.301   5.869   6.192  0.0944 -0.0179 -0.3222
 1082YOPC   GL114797   1.215   5.751   6.577 -0.0732 -0.1928  0.2637
 1082YOPC   GL214798   1.315   5.382   6.642 -0.1582 -0.3858 -0.2726
 1082YOPC   C1A14799   1.274   5.767   7.005 -0.1673  0.0159 -0.0097
 1082YOPC   D2A14800   1.650   5.906   7.239 -0.1672  0.0101  0.1710
 1082YOPC   C3A14801   1.554   6.061   7.717  0.1118 -0.1920 -0.1291
 1082YOPC   C4A14802   1.468   6.010   8.132 -0.2449 -0.2576 -0.3392
 1082YOPC   C1B14803   1.205   5.280   7.053  0.1721 -0.0252  0.1892
 1082YOPC   C2B14804   1.227   5.163   7.463  0.0069  0.2634 -0.0095
 1082YOPC   D3B14805   1.082   5.339   7.859 -0.0195  0.0978  0.1450
 1082YOPC   C4B14806   1.066   5.682   8.220 -0.5971 -0.0453 -0.1649
 1083YOPC   NC314807   1.103   0.327   5.469 -0.4323  0.1842 -0.3040
 1083YOPC   PO414808   1.354   0.698   5.496 -0.1739 -0.1705 -0.1345
 1083YOPC   GL114809   1.131   0.540   5.927  0.0790 -0.0576  0.4847
 1083YOPC   GL214810   1.279   0.761   6.193 -0.0501 -0.1358  0.0617
 1083YOPC   C1A14811   1.012   0.419   6.368 -0.2339  0.1038  0.0625
 1083YOPC   D2A14812   0.949   0.518   6.693 -0.0659  0.1086  0.2028
 1083YOPC   C3A14813   0.951   0.120   6.748 -0.0891  0.2026  0.1995
 1083YOPC   C4A14814   0.749  -0.193   6.470 -0.0245  0.2393  0.0767
 1083YOPC   C1B14815   1.316   0.835   6.586  0.0318  0.1704  0.3395
 1083YOPC   C2B14816   1.097   0.732   7.079 -0.0993  0.1381 -0.4887
 1083YOPC   D3B14817   1.204   0.979   7.371 -0.2206 -0.1113  0.2539
 1083YOPC   C4B14818   1.441   0.998   7.829  0.0961  0.0752 -0.0572
 1084YOPC   NC314819   1.456   8.621   6.315 -0.0550  0.0059 -0.0716
 1084YOPC   PO414820   1.150   8.925   6.050 -0.0468  0.0797  0.0886
 1084YOPC   GL114821   1.181   9.053   6.497  0.2898  0.1950 -0.1734
 1084YOPC   GL214822   0.893   8.910   6.541  0.2500 -0.1891  0.2516
 1084YOPC   C1A14823   1.204   8.873   6.934  0.1168 -0.0416 -0.1751
 1084YOPC   D2A14824   1.055   8.759   7.284  0.0379 -0.1569  0.1151
 1084YOPC   C3A14825   0.725   8.518   7.358  0.1527  0.3238 -0.1873
 1084YOPC   C4A14826   0.622   8.264   7.184 -0.1545  0.2174  0.0259
 1084YOPC   C1B14827   0.670   8.970   6.933  0.0186 -0.0953 -0.2016
 1084YOPC   C2B14828   0.667   9.079   7.347  0.0950  0.0718 -0.0504
 1084YOPC   D3B14829   0.424   9.372   7.724 -0.0296  0.3260 -0.2052
 1084YOPC   C4B14830   0.273   9.204   8.087  0.0550  0.1900 -0.0053
 1085YOPC   NC314831   3.094   7.372   5.650  0.1134 -0.2078 -0.2459
 1085YOPC   PO414832   3.063   7.401   6.055 -0.1202  0.0183 -0.1664
 1085YOPC   GL114833   3.102   7.476   6.467  0.1384  0.1633 -0.5251
 1085YOPC   GL214834   3.208   7.649   6.635  0.2661 -0.1616 -0.0847
 1085YOPC   C1A14835   3.006   7.337   6.961  0.0133  0.2814 -0.1669
 1085YOPC   D2A14836   2.699   7.515   7.264  0.1150  0.0800  0.0070
 1085YOPC   C3A14837   2.294   7.364   7.227  0.0718 -0.0782 -0.0787
 1085YOPC   C4A14838   2.089   7.157   7.675 -0.1400  0.2650  0.1023
 1085YOPC   C1B14839   3.567   7.792   6.826  0.2876 -0.0283 -0.1957
 1085YOPC   C2B14840   3.624   7.813   7.315 -0.0381 -0.0899  0.2052
 1085YOPC   D3B14841   3.977   7.828   7.541  0.2226  0.0821 -0.1026
 1085YOPC   C4B14842   4.272   7.979   7.941 -0.1165  0.0021  0.0425
 1086YOPC   NC314843  11.904  13.048   5.672 -0.1061 -0.4053  0.2083
 1086YOPC   PO414844  11.550  12.879   5.914 -0.3106 -0.0119  0.0942
 1086YOPC   GL114845  11.623  12.877   6.263 -0.0370 -0.3013  0.3957
 1086YOPC   GL214846  11.742  13.256   6.260 -0.2951  0.0742  0.0406
 1086YOPC   C1A14847  11.556  12.695   6.689  0.2547 -0.0730 -0.1208
 1086YOPC   D2A14848  11.368  12.429   7.170 -0.1169 -0.1344  0.1579
 1086YOPC   C3A14849  11.058  12.605   7.389 -0.2770 -0.0824 -0.3345
 1086YOPC   C4A14850  10.704  12.708   7.166  0.0459 -0.0642 -0.1318
 1086YOPC   C1B14851  12.014  13.025   6.616 -0.2647  0.4531 -0.1693
 1086YOPC   C2B14852  12.170  12.974   7.014 -0.2020  0.3962 -0.1034
 1086YOPC   D3B14853  12.005  12.967   7.400 -0.0412 -0.0017  0.2956
 1086YOPC   C4B14854  11.854  12.903   7.820  0.1571  0.2430 -0.3062
 1087YOPC   NC314855   6.925   2.405   4.934  0.1723  0.0183  0.1488
 1087YOPC   PO414856   6.934   2.178   5.344  0.2399 -0.1752  0.2718
 1087YOPC   GL114857   7.013   1.963   5.721  0.2748  0.0609 -0.0866
 1087YOPC   GL214858   6.772   2.151   5.811 -0.3812 -0.0514  0.2666
 1087YOPC   C1A14859   7.406   1.986   5.943 -0.5330 -0.0799 -0.2758
 1087YOPC   D2A14860   7.654   2.077   6.366  0.2189  0.0015  0.0952
 1087YOPC   C3A14861   7.501   2.467   6.498  0.2358 -0.0785 -0.1499
 1087YOPC   C4A14862   7.331   2.785   6.261  0.2384  0.3539 -0.3654
 1087YOPC   C1B14863   6.634   2.248   6.188 -0.2550  0.0474  0.2087
 1087YOPC   C2B14864   6.572   2.209   6.537  0.2246  0.1881 -0.4232
 1087YOPC   D3B14865   6.634   1.926   6.897 -0.0513 -0.3019 -0.0220
 1087YOPC   C4B14866   6.971   1.921   7.249 -0.0132  0.0691 -0.0482
 1088YOPC   NC314867   4.208   5.385   5.817  0.1006 -0.2134 -0.0219
 1088YOPC   PO414868   4.180   5.086   5.956 -0.0957  0.4227  0.0087
 1088YOPC   GL114869   4.212   4.816   6.339 -0.1838 -0.1591 -0.0287
 1088YOPC   GL214870   4.585   4.637   6.337 -0.1792  0.1711  0.0236
 1088YOPC   C1A14871   4.133   4.688   6.669 -0.2218 -0.2045  0.1254
 1088YOPC   D2A14872   4.265   4.588   7.054 -0.0789 -0.0133 -0.0076
 1088YOPC   C3A14873   4.245   4.859   7.307  0.0883 -0.0315 -0.0981
 1088YOPC   C4A14874   4.189   4.673   7.685 -0.3310  0.0317  0.0850
 1088YOPC   C1B14875   4.704   4.520   6.719 -0.1524 -0.3573 -0.1452
 1088YOPC   C2B14876   4.692   4.407   7.164 -0.1961  0.0297 -0.2846
 1088YOPC   D3B14877   4.624   4.593   7.459  0.0334 -0.1703 -0.0108
 1088YOPC   C4B14878   4.576   4.978   7.664 -0.1132  0.0609 -0.3030
 1089YOPC   NC314879  13.810  15.476   5.945 -0.1556  0.2726 -0.0423
 1089YOPC   PO414880  13.529  15.086   5.835 -0.1175  0.2576 -0.1761
 1089YOPC   GL114881  13.625  15.096   6.285  0.3441 -0.1447  0.3871
 1089YOPC   GL214882  13.430  15.275   6.268 -0.0370  0.1745 -0.1331
 1089YOPC   C1A14883  13.724  15.155   6.697  0.1660 -0.1603  0.0054
 1089YOPC   D2A14884  13.807  15.214   7.180  0.0909 -0.0728 -0.0328
 1089YOPC   C3A14885  13.586  15.476   7.425  0.1795  0.1969  0.2047
 1089YOPC   C4A14886  13.238  15.497   7.664 -0.0162  0.3597 -0.0587
 1089YOPC   C1B14887  13.283  15.454   6.625  0.3361  0.1822 -0.2722
 1089YOPC   C2B14888  12.951  15.467   6.850  0.0014 -0.1349 -0.1259
 1089YOPC   D3B14889  12.752  15.093   6.925  0.1689 -0.0920  0.0718
 1089YOPC   C4B14890  12.551  14.718   6.830 -0.0914  0.2714  0.0412
 1090YOPC   NC314891  14.752  13.103   5.611  0.0795 -0.0812 -0.0966
 1090YOPC   PO414892  14.366  13.165   5.682  0.1361  0.0223 -0.0181
 1090YOPC   GL114893  14.488  12.858   5.942 -0.0262 -0.0493  0.1454
 1090YOPC   GL214894  14.267  12.884   6.125  0.1452 -0.2494 -0.1434
 1090YOPC   C1A14895  14.693  12.709   6.299  0.1065  0.1209 -0.1422
 1090YOPC   D2A14896  14.748  12.495   6.755 -0.0803 -0.0046 -0.0215
 1090YOPC   C3A14897  14.979  12.662   7.083  0.4184  0.0913 -0.0434
 1090YOPC   C4A14898  15.137  12.379   7.416  0.0117 -0.0734  0.0346
 1090YOPC   C1B14899  14.460  13.243   6.337 -0.0843  0.0150  0.1640
 1090YOPC   C2B14900  14.679  13.510   6.658 -0.1863 -0.0372  0.2951
 1090YOPC   D3B14901  14.615  13.475   7.145 -0.3070  0.1766  0.0334
 1090YOPC   C4B14902  14.636  13.311   7.574  0.1953  0.1796  0.2276
 1091YOPC   NC314903  14.977  13.918   5.804  0.1028 -0.2053 -0.0690
 1091YOPC   PO414904  15.360  13.823   5.959  0.2895  0.1565  0.1240
 1091YOPC   GL114905  15.658  13.949   6.238  0.2607  0.0498  0.3849
 1091YOPC   GL214906  15.529  14.184   6.352  0.1055  0.1030 -0.2755
 1091YOPC   C1A14907  15.621  13.751   6.623 -0.2144 -0.3518 -0.0592
 1091YOPC   D2A14908  15.590  13.562   6.923 -0.0579 -0.3588 -0.1823
 1091YOPC   C3A14909  15.641  13.651   7.396  0.2155 -0.0589  0.2324
 1091YOPC   C4A14910  15.932  13.559   7.726  0.1686  0.0605 -0.1401
 1091YOPC   C1B14911  15.552  14.181   6.807 -0.1326  0.3393  0.0137
 1091YOPC   C2B14912  15.557  14.086   7.257  0.1380 -0.2636  0.1387
 1091YOPC   D3B14913  15.301  14.006   7.620 -0.0478  0.0352  0.1879
 1091YOPC   C4B14914  14.856  14.134   7.664 -0.0542  0.2403 -0.0283
 1092YOPC   NC314915   0.965   6.147   5.950  0.0427  0.0422  0.0777
 1092YOPC   PO414916   0.571   5.988   6.126 -0.0360  0.3122  0.1360
 1092YOPC   GL114917   0.622   5.794   6.475 -0.0590 -0.0927 -0.1875
 1092YOPC   GL214918   0.408   5.933   6.782 -0.1270 -0.2428 -0.0376
 1092YOPC   C1A14919   0.808   5.564   6.830  0.1293 -0.0512 -0.0708
 1092YOPC   D2A14920   0.840   5.646   7.330 -0.0294 -0.0775  0.1415
 1092YOPC   C3A14921   1.281   5.691   7.531  0.2955 -0.0187 -0.4544
 1092YOPC   C4A14922   1.617   5.472   7.704  0.0015  0.2172 -0.0413
 1092YOPC   C1B14923   0.366   5.837   7.161  0.2386 -0.0259  0.0412
 1092YOPC   C2B14924   0.232   5.566   7.463 -0.1095 -0.0354 -0.1485
 1092YOPC   D3B14925   0.176   5.685   7.942  0.2546  0.2176  0.1362
 1092YOPC   C4B14926   0.120   6.049   8.293  0.2444 -0.0231  0.3843
 1093YOPC   NC314927   4.024   7.388   5.800  0.0731 -0.1026  0.0353
 1093YOPC   PO414928   3.545   7.443   5.834 -0.5886 -0.0192 -0.1861
 1093YOPC   GL114929   3.587   7.362   6.250  0.2402  0.0722 -0.2260
 1093YOPC   GL214930   3.814   7.634   6.308  0.3235  0.1509 -0.0031
 1093YOPC   C1A14931   3.473   7.247   6.652  0.0682  0.2586  0.2048
 1093YOPC   D2A14932   3.474   7.352   7.116  0.2802 -0.0165 -0.1214
 1093YOPC   C3A14933   3.571   7.010   7.585  0.4741 -0.0481  0.0694
 1093YOPC   C4A14934   3.693   7.065   7.986  0.1818 -0.1020  0.2300
 1093YOPC   C1B14935   4.051   7.811   6.669  0.2746 -0.2016 -0.1873
 1093YOPC   C2B14936   4.028   7.718   7.054  0.0047 -0.1140  0.0522
 1093YOPC   D3B14937   4.378   7.677   7.122 -0.2029 -0.1015  0.0061
 1093YOPC   C4B14938   4.820   7.822   6.940 -0.0080 -0.0880  0.1821
 1094YOPC   NC314939   3.177   3.984   6.043  0.0395 -0.1720  0.2154
 1094YOPC   PO414940   2.804   3.835   6.008  0.2767  0.1157  0.0375
 1094YOPC   GL114941   2.870   3.803   6.459 -0.0830 -0.0861  0.3162
 1094YOPC   GL214942   3.185   3.884   6.530 -0.0331  0.1502 -0.0436
 1094YOPC   C1A14943   2.752   3.841   6.859 -0.0247 -0.1804 -0.0407
 1094YOPC   D2A14944   2.885   3.866   7.282 -0.0768 -0.2805 -0.0074
 1094YOPC   C3A14945   3.181   3.689   7.473 -0.0568  0.1302 -0.2113
 1094YOPC   C4A14946   3.456   3.446   7.631  0.1627  0.0283  0.0214
 1094YOPC   C1B14947   3.156   3.601   6.873  0.2758 -0.0306 -0.0579
 1094YOPC   C2B14948   3.236   3.292   7.204 -0.0447  0.2481  0.2795
 1094YOPC   D3B14949   2.986   3.240   7.613 -0.1294  0.0637  0.0831
 1094YOPC   C4B14950   3.138   3.148   7.977  0.0455 -0.1115  0.0750
 1095YOPC   NC314951  15.387   6.528   6.010  0.0097 -0.2161 -0.0478
 1095YOPC   PO414952  15.369   6.105   5.974  0.0754 -0.0247  0.4381
 1095YOPC   GL114953  15.473   6.250   6.379  0.3666  0.4010 -0.0717
 1095YOPC   GL214954  15.354   6.510   6.500  0.0327  0.2763  0.1361
 1095YOPC   C1A14955  15.539   6.136   6.813 -0.1430  0.1338  0.1213
 1095YOPC   D2A14956  15.285   6.247   7.173  0.0893  0.0119 -0.0447
 1095YOPC   C3A14957  14.853   6.432   7.145  0.2375  0.0256  0.0199
 1095YOPC   C4A14958  14.721   6.774   7.265  0.0679 -0.0702 -0.1623
 1095YOPC   C1B14959  15.044   6.272   6.718  0.2277  0.2237  0.0351
 1095YOPC   C2B14960  14.795   5.917   7.092 -0.1393  0.2887 -0.3629
 1095YOPC   D3B14961  14.807   6.017   7.524 -0.2153  0.1630 -0.1346
 1095YOPC   C4B14962  15.130   6.260   7.646 -0.1512 -0.2916  0.1977
 1096YOPC   NC314963  16.316   3.629   6.094  0.1820 -0.1735  0.0258
 1096YOPC   PO414964  16.733   3.765   5.905  0.1227 -0.0628 -0.2372
 1096YOPC   GL114965  16.566   3.990   6.254 -0.0338 -0.2022  0.0756
 1096YOPC   GL214966  16.662   3.797   6.492  0.2723  0.1049 -0.1380
 1096YOPC   C1A14967  16.536   4.353   6.584 -0.0945 -0.0173 -0.1178
 1096YOPC   D2A14968  16.655   4.501   6.957  0.0459 -0.1900  0.2246
 1096YOPC   C3A14969  16.500   4.944   7.226 -0.0463 -0.0512 -0.1116
 1096YOPC   C4A14970  16.641   4.930   7.596 -0.2425 -0.0141  0.0430
 1096YOPC   C1B14971  16.926   4.060   6.594  0.2739  0.3833  0.1778
 1096YOPC   C2B14972  16.916   4.132   7.132 -0.3192  0.0032  0.0492
 1096YOPC   D3B14973  16.807   4.361   7.423 -0.0261  0.1695  0.2023
 1096YOPC   C4B14974  16.632   4.488   7.832 -0.0414  0.2604  0.1274
 1097YOPC   NC314975  17.074   7.423   5.773  0.3690 -0.2322  0.1926
 1097YOPC   PO414976  16.681   7.386   5.941 -0.1024 -0.0191 -0.0287
 1097YOPC   GL114977  16.694   7.253   6.379 -0.1101 -0.0232 -0.1772
 1097YOPC   GL214978  16.436   7.314   6.563  0.0605 -0.0311  0.1294
 1097YOPC   C1A14979  16.878   7.077   6.704  0.1736  0.0682  0.0710
 1097YOPC   D2A14980  16.861   6.987   7.169  0.0751 -0.0265  0.0705
 1097YOPC   C3A14981  16.940   6.627   7.415 -0.2095 -0.0875  0.2193
 1097YOPC   C4A14982  17.056   6.455   7.846 -0.1234 -0.0730 -0.1396
 1097YOPC   C1B14983  16.390   7.244   7.010 -0.1758  0.3805 -0.1484
 1097YOPC   C2B14984  16.039   7.417   7.279 -0.2050 -0.3809 -0.3043
 1097YOPC   D3B14985  16.117   7.404   7.765 -0.1003  0.1502 -0.4408
 1097YOPC   C4B14986  16.417   7.419   8.151 -0.0982  0.1480  0.0439
 1098YOPC   NC314987   3.932  12.431   5.658  0.2946  0.0363 -0.0027
 1098YOPC   PO414988   4.387  12.467   5.538 -0.0201  0.0444  0.0774
 1098YOPC   GL114989   4.388  12.602   6.044 -0.0968 -0.0510 -0.2113
 1098YOPC   GL214990   4.765  12.781   5.997 -0.0518 -0.1078 -0.1076
 1098YOPC   C1A14991   4.606  12.627   6.486 -0.2373 -0.3085 -0.1226
 1098YOPC   D2A14992   4.946  12.651   6.822 -0.0676 -0.2148  0.3988
 1098YOPC   C3A14993   5.300  12.655   6.710  0.0483  0.1416  0.3055
 1098YOPC   C4A14994   5.710  12.333   6.838  0.2485  0.2612 -0.0563
 1098YOPC   C1B14995   4.976  12.993   6.351 -0.2464 -0.2254 -0.2564
 1098YOPC   C2B14996   4.774  13.095   6.715 -0.0996 -0.1327  0.2794
 1098YOPC   D3B14997   4.591  12.866   7.093 -0.2026 -0.0777 -0.3775
 1098YOPC   C4B14998   4.567  12.898   7.534  0.0848 -0.0500 -0.0828
 1099YOPC   NC314999  13.485   0.469   6.013 -0.1875  0.3071  0.1671
 1099YOPC   PO415000  13.180   0.066   6.046 -0.1194 -0.1785 -0.1946
 1099YOPC   GL115001  13.449   0.005   6.210  0.0379  0.2017  0.0406
 1099YOPC   GL215002  13.703   0.173   6.316 -0.0783 -0.0617 -0.0280
 1099YOPC   C1A15003  13.426  -0.009   6.687  0.1697 -0.0960  0.0134
 1099YOPC   D2A15004  13.483  -0.221   7.101 -0.2651  0.0630  0.3318
 1099YOPC   C3A15005  13.819  -0.353   7.372  0.0074 -0.0545  0.0544
 1099YOPC   C4A15006  14.029  -0.093   7.609  0.2280 -0.1178  0.0277
 1099YOPC   C1B15007  13.882  -0.265   6.495 -0.0511  0.0132 -0.1487
 1099YOPC   C2B15008  13.711  -0.732   6.551  0.0127  0.0065 -0.0738
 1099YOPC   D3B15009  13.424  -0.674   6.839  0.1809  0.2017  0.0333
 1099YOPC   C4B15010  13.196  -0.609   7.220  0.1674 -0.1800 -0.3098
 1100YOPC   NC315011   7.831  11.129   5.848  0.0929 -0.0749  0.0686
 1100YOPC   PO415012   7.819  10.550   5.794  0.2287 -0.0946  0.1979
 1100YOPC   GL115013   8.001  10.369   6.124 -0.2211  0.2064 -0.0406
 1100YOPC   GL215014   8.350  10.192   6.172  0.0268 -0.0582 -0.1636
 1100YOPC   C1A15015   8.052  10.298   6.624 -0.2552  0.4817  0.2601
 1100YOPC   D2A15016   8.298  10.257   6.980  0.0488  0.1303 -0.2365
 1100YOPC   C3A15017   8.687  10.115   7.113  0.1500  0.0321 -0.1724
 1100YOPC   C4A15018   9.007   9.974   6.863 -0.1466  0.2472 -0.1218
 1100YOPC   C1B15019   8.445   9.957   6.564  0.0533 -0.0470  0.2198
 1100YOPC   C2B15020   8.223   9.628   6.743 -0.0669 -0.1041  0.0563
 1100YOPC   D3B15021   8.208   9.623   7.085  0.2905  0.1715 -0.0134
 1100YOPC   C4B15022   8.326   9.962   7.405 -0.0313 -0.2155 -0.0281
 1101YOPC   NC315023   8.234   5.587   5.618  0.4203 -0.0981 -0.1062
 1101YOPC   PO415024   7.975   5.533   5.962 -0.1306  0.3429  0.0630
 1101YOPC   GL115025   7.866   5.214   6.273 -0.2288 -0.0065  0.0132
 1101YOPC   GL215026   7.912   4.872   6.202  0.3733  0.0613  0.3342
 1101YOPC   C1A15027   7.899   4.988   6.707  0.0451  0.0088 -0.0287
 1101YOPC   D2A15028   8.122   5.108   7.005  0.1576 -0.0549  0.1737
 1101YOPC   C3A15029   7.952   4.934   7.290 -0.1406  0.0549  0.1392
 1101YOPC   C4A15030   8.069   4.681   7.731 -0.1151 -0.2189 -0.2940
 1101YOPC   C1B15031   8.268   4.853   6.468 -0.0295 -0.2170 -0.0383
 1101YOPC   C2B15032   8.376   4.670   6.849 -0.2319 -0.4117 -0.1788
 1101YOPC   D3B15033   8.158   4.412   7.176 -0.1710  0.0039  0.1914
 1101YOPC   C4B15034   8.081   3.969   7.245 -0.0988  0.1342  0.1370
 1102YOPC   NC315035   0.424  16.920   5.884 -0.0633  0.0513  0.0290
 1102YOPC   PO415036   0.080  17.202   5.908  0.0035 -0.1435 -0.1667
 1102YOPC   GL115037  -0.198  17.050   6.244 -0.1493  0.0548 -0.0372
 1102YOPC   GL215038  -0.073  17.256   6.430  0.1498  0.1502 -0.2324
 1102YOPC   C1A15039  -0.071  16.829   6.690  0.2689 -0.0130  0.0692
 1102YOPC   D2A15040  -0.088  16.839   7.185 -0.2754  0.1163 -0.0985
 1102YOPC   C3A15041  -0.163  16.479   7.356 -0.0001 -0.1828  0.1587
 1102YOPC   C4A15042  -0.252  16.320   7.687 -0.0427  0.2148  0.2731
 1102YOPC   C1B15043  -0.067  17.326   6.868  0.1753  0.0979  0.1404
 1102YOPC   C2B15044  -0.102  17.369   7.272  0.2758  0.2314  0.0054
 1102YOPC   D3B15045   0.287  17.495   7.513 -0.2084 -0.0533  0.0844
 1102YOPC   C4B15046   0.373  17.583   7.952  0.2161 -0.3985 -0.3131
 1103YOPC   NC315047  10.557  15.375   5.251  0.2562  0.1519 -0.2025
 1103YOPC   PO415048  10.366  15.414   5.572 -0.1244 -0.0026  0.2499
 1103YOPC   GL115049  10.536  15.353   5.968 -0.1859 -0.0631  0.1449
 1103YOPC   GL215050  10.255  15.510   6.189 -0.1369  0.0100  0.0852
 1103YOPC   C1A15051  10.706  15.300   6.351  0.1954  0.0712 -0.1389
 1103YOPC   D2A15052  10.514  15.092   6.787 -0.0367  0.1737  0.2379
 1103YOPC   C3A15053  10.106  15.056   7.119 -0.0683 -0.2180  0.1030
 1103YOPC   C4A15054   9.935  15.246   7.570 -0.0021  0.2372 -0.0679
 1103YOPC   C1B15055  10.380  15.532   6.658 -0.0866  0.1103 -0.1394
 1103YOPC   C2B15056  10.643  15.577   6.989  0.2549 -0.2036 -0.0101
 1103YOPC   D3B15057  10.372  15.462   7.360  0.1389  0.0451  0.0455
 1103YOPC   C4B15058  10.445  15.221   7.629 -0.0077 -0.1023  0.2092
 1104YOPC   NC315059   2.665   1.924   5.819 -0.3382 -0.0142 -0.0875
 1104YOPC   PO415060   2.238   1.866   5.882  0.1086 -0.0212 -0.4160
 1104YOPC   GL115061   2.204   1.629   6.248 -0.3270  0.1411  0.0087
 1104YOPC   GL215062   2.190   1.187   6.388 -0.0511 -0.3651  0.1974
 1104YOPC   C1A15063   2.365   1.562   6.674  0.0494  0.4064  0.0239
 1104YOPC   D2A15064   2.523   1.456   7.061  0.0198  0.0421  0.0542
 1104YOPC   C3A15065   2.965   1.527   7.266 -0.2597 -0.0559 -0.0433
 1104YOPC   C4A15066   3.353   1.452   7.246 -0.1946  0.0624  0.0201
 1104YOPC   C1B15067   2.154   1.137   6.901 -0.0138 -0.1115  0.0585
 1104YOPC   C2B15068   2.050   1.343   7.251 -0.0628 -0.1681 -0.3358
 1104YOPC   D3B15069   2.050   1.124   7.688  0.0331  0.0106 -0.1157
 1104YOPC   C4B15070   2.135   0.991   8.100  0.0310  0.2544 -0.4591
 1105YOPC   NC315071   1.498  16.933   5.830  0.1823 -0.0480  0.2474
 1105YOPC   PO415072   1.106  16.692   5.946  0.3101 -0.1176 -0.3815
 1105YOPC   GL115073   1.006  16.660   6.369 -0.1678  0.0708  0.1354
 1105YOPC   GL215074   0.808  16.899   6.554  0.1238  0.0941 -0.3979
 1105YOPC   C1A15075   0.923  16.353   6.596 -0.1244  0.0079 -0.1353
 1105YOPC   D2A15076   0.563  16.195   6.730 -0.1419 -0.3148 -0.0040
 1105YOPC   C3A15077   0.681  15.867   6.803  0.1104 -0.1165  0.2281
 1105YOPC   C4A15078   1.012  15.500   6.756 -0.2360 -0.2956 -0.4402
 1105YOPC   C1B15079   0.814  16.700   6.953  0.2385 -0.2634  0.2352
 1105YOPC   C2B15080   0.881  16.266   7.136  0.2041 -0.1355  0.0709
 1105YOPC   D3B15081   0.495  16.092   7.313  0.2097  0.0296 -0.1528
 1105YOPC   C4B15082   0.040  15.952   7.305 -0.2945 -0.3303 -0.0509
 1106YOPC   NC315083   9.969  15.187   5.832 -0.1782 -0.0089  0.1129
 1106YOPC   PO415084  10.060  15.016   6.322  0.1043 -0.0496 -0.2909
 1106YOPC   GL115085   9.842  15.236   6.702  0.1911  0.0706 -0.0544
 1106YOPC   GL215086   9.869  15.593   6.679 -0.2236  0.0678  0.0878
 1106YOPC   C1A15087   9.839  15.553   7.140  0.1502 -0.1033 -0.0072
 1106YOPC   D2A15088   9.773  15.740   7.529 -0.3054  0.3746 -0.3276
 1106YOPC   C3A15089   9.720  15.525   7.905 -0.0400  0.2175  0.0916
 1106YOPC   C4A15090   9.574  15.288   8.286 -0.2216 -0.3070  0.1228
 1106YOPC   C1B15091  10.020  16.041   6.696 -0.2653  0.0304  0.0689
 1106YOPC   C2B15092  10.245  16.445   6.871  0.0971  0.3820  0.1285
 1106YOPC   D3B15093  10.402  16.434   7.265  0.1956 -0.2529 -0.2138
 1106YOPC   C4B15094  10.640  16.506   7.637 -0.0285 -0.3591  0.0870
 1107YOPC   NC315095   5.045   8.814   5.901 -0.2575 -0.1726  0.3357
 1107YOPC   PO415096   5.050   9.289   5.874  0.0713 -0.0631 -0.0774
 1107YOPC   GL115097   4.987   9.218   6.316 -0.1548 -0.0797 -0.1795
 1107YOPC   GL215098   5.163   8.894   6.563 -0.2709  0.0386 -0.0631
 1107YOPC   C1A15099   4.857   9.226   6.771 -0.1480 -0.1774  0.0421
 1107YOPC   D2A15100   4.812   9.413   7.214  0.0259 -0.1961 -0.3459
 1107YOPC   C3A15101   4.935   9.455   7.728  0.3293 -0.2202  0.2230
 1107YOPC   C4A15102   4.790   9.402   8.249  0.2334  0.0289  0.0057
 1107YOPC   C1B15103   5.192   8.563   6.727  0.2527 -0.0744  0.0276
 1107YOPC   C2B15104   4.784   8.405   6.791 -0.3214  0.3111 -0.2045
 1107YOPC   D3B15105   4.586   8.545   7.163 -0.2491 -0.2406 -0.4136
 1107YOPC   C4B15106   4.267   8.429   7.367 -0.0133 -0.1704  0.1372
 1108YOPC   NC315107  11.553  10.925   5.053 -0.0175 -0.2328  0.0168
 1108YOPC   PO415108  11.808  10.942   5.481  0.0770  0.0147  0.2216
 1108YOPC   GL115109  12.071  11.060   5.847 -0.1127 -0.2563 -0.1230
 1108YOPC   GL215110  11.937  10.826   6.036  0.0578  0.0721 -0.2303
 1108YOPC   C1A15111  11.936  11.411   6.167  0.0376  0.2536  0.1986
 1108YOPC   D2A15112  11.998  11.419   6.650 -0.1694 -0.1883 -0.0747
 1108YOPC   C3A15113  12.389  11.357   6.894 -0.2367 -0.1538 -0.1576
 1108YOPC   C4A15114  12.652  10.929   6.762  0.0507 -0.0490  0.1648
 1108YOPC   C1B15115  11.678  11.058   6.383 -0.1859  0.0600  0.1159
 1108YOPC   C2B15116  11.488  11.393   6.634  0.0075  0.0520 -0.1547
 1108YOPC   D3B15117  11.461  11.532   7.112 -0.0543  0.0645  0.2830
 1108YOPC   C4B15118  11.552  11.520   7.452 -0.0525  0.3494  0.0597
 1109YOPC   NC315119   3.036   1.134   5.874 -0.2215  0.3326  0.0755
 1109YOPC   PO415120   3.344   0.751   5.931 -0.1116 -0.0434  0.1544
 1109YOPC   GL115121   3.256   0.985   6.351  0.1300  0.3899 -0.0079
 1109YOPC   GL215122   3.230   1.365   6.417  0.0539 -0.0248  0.0927
 1109YOPC   C1A15123   3.343   1.108   6.864 -0.2186 -0.2095 -0.1202
 1109YOPC   D2A15124   3.366   0.935   7.190  0.1889  0.1499 -0.2723
 1109YOPC   C3A15125   3.179   1.043   7.548  0.0177 -0.0598 -0.1737
 1109YOPC   C4A15126   2.941   0.940   7.758  0.2695 -0.0554 -0.1625
 1109YOPC   C1B15127   3.175   1.633   6.837 -0.1292 -0.0165  0.1724
 1109YOPC   C2B15128   3.228   1.960   7.175 -0.1140  0.0571 -0.0055
 1109YOPC   D3B15129   3.172   1.890   7.528 -0.1857 -0.1851 -0.0808
 1109YOPC   C4B15130   3.379   2.033   7.869  0.2794 -0.0718  0.2822
 1110YOPC   NC315131  16.972  12.652   5.557  0.0518 -0.0775 -0.4545
 1110YOPC   PO415132  17.123  13.119   5.529 -0.0189 -0.2992 -0.1126
 1110YOPC   GL115133  16.926  12.992   5.998  0.2457 -0.0947 -0.1055
 1110YOPC   GL215134  17.257  12.881   6.189  0.2597 -0.4005 -0.0367
 1110YOPC   C1A15135  16.804  13.079   6.391  0.1989  0.1779 -0.1211
 1110YOPC   D2A15136  16.612  13.139   6.816 -0.1998 -0.2221 -0.1255
 1110YOPC   C3A15137  16.814  12.843   7.204  0.0414 -0.2286  0.2230
 1110YOPC   C4A15138  17.116  12.583   7.278 -0.0693 -0.2578  0.3209
 1110YOPC   C1B15139  17.338  13.306   6.221  0.0769 -0.1203 -0.2600
 1110YOPC   C2B15140  17.504  13.614   6.557 -0.2490 -0.1779 -0.0110
 1110YOPC   D3B15141  17.667  13.439   6.933 -0.1802  0.0975 -0.0276
 1110YOPC   C4B15142  18.025  13.334   6.927 -0.2120 -0.0168  0.1309
 1111YOPC   NC315143   5.368  13.536   5.356 -0.1086  0.0094 -0.2004
 1111YOPC   PO415144   5.061  13.704   5.692 -0.0298  0.0736  0.1991
 1111YOPC   GL115145   5.064  13.807   6.102  0.0391  0.1095  0.0611
 1111YOPC   GL215146   5.375  13.887   6.312 -0.0572  0.0091  0.0079
 1111YOPC   C1A15147   4.906  14.041   6.380  0.1323  0.3645  0.1019
 1111YOPC   D2A15148   4.584  14.073   6.600  0.1772  0.0249  0.0230
 1111YOPC   C3A15149   4.449  14.284   6.978 -0.3405 -0.0185 -0.0734
 1111YOPC   C4A15150   4.394  14.390   7.399  0.0208 -0.1211  0.0889
 1111YOPC   C1B15151   5.270  14.123   6.665  0.0623  0.3555 -0.0514
 1111YOPC   C2B15152   5.256  14.099   7.100 -0.1779 -0.4436  0.1776
 1111YOPC   D3B15153   5.444  13.894   7.441 -0.0293 -0.2432  0.0373
 1111YOPC   C4B15154   5.801  13.857   7.810 -0.1126 -0.1067  0.1189
 1112YOPC   NC315155   2.070   6.998   5.851  0.1638  0.1074  0.0782
 1112YOPC   PO415156   1.748   7.338   6.019 -0.1965  0.1087  0.1739
 1112YOPC   GL115157   1.446   7.275   6.354  0.1510 -0.2241  0.3189
 1112YOPC   GL215158   1.327   7.550   6.235  0.0010  0.0827 -0.2471
 1112YOPC   C1A15159   1.338   7.385   6.723 -0.3867  0.2154  0.2834
 1112YOPC   D2A15160   1.003   7.508   7.006  0.3225 -0.1973 -0.3383
 1112YOPC   C3A15161   1.026   7.259   7.420  0.4576  0.0217  0.0966
 1112YOPC   C4A15162   1.011   7.505   7.905 -0.1904 -0.1122  0.0700
 1112YOPC   C1B15163   0.962   7.833   6.549 -0.3379 -0.2263  0.2312
 1112YOPC   C2B15164   0.742   7.896   6.885 -0.1655  0.2194  0.2993
 1112YOPC   D3B15165   0.579   7.730   7.258  0.3613  0.1209 -0.1009
 1112YOPC   C4B15166   0.808   7.788   7.565 -0.3468  0.1817 -0.1227
 1113YOPC   NC315167   4.065  13.228   5.325  0.2317  0.0728 -0.0587
 1113YOPC   PO415168   4.142  13.633   5.605  0.0581 -0.1150  0.0078
 1113YOPC   GL115169   4.061  13.599   6.045 -0.1719 -0.2332 -0.1098
 1113YOPC   GL215170   3.790  13.826   6.035  0.1445 -0.0557 -0.2506
 1113YOPC   C1A15171   3.960  13.608   6.495  0.3023  0.1693  0.1128
 1113YOPC   D2A15172   4.336  13.650   6.827 -0.0360 -0.0232  0.1490
 1113YOPC   C3A15173   4.570  13.429   7.112 -0.1327 -0.2697  0.1256
 1113YOPC   C4A15174   4.759  13.439   7.479 -0.1698 -0.0760  0.1262
 1113YOPC   C1B15175   3.488  13.643   6.341  0.4325  0.0619  0.1470
 1113YOPC   C2B15176   3.386  13.323   6.543 -0.2820  0.2622 -0.0150
 1113YOPC   D3B15177   3.361  13.228   7.033  0.0333 -0.2472  0.2748
 1113YOPC   C4B15178   3.467  13.265   7.417  0.0004 -0.1037  0.1558
 1114YOPC   NC315179   7.965   1.368   5.310  0.4710 -0.2249 -0.2376
 1114YOPC   PO415180   7.460   1.327   5.386 -0.2677 -0.1963  0.0674
 1114YOPC   GL115181   7.484   1.465   5.738  0.0494 -0.1197 -0.0537
 1114YOPC   GL215182   7.209   1.512   5.873  0.0906  0.0230 -0.0699
 1114YOPC   C1A15183   7.812   1.572   6.034  0.0059  0.4960  0.1832
 1114YOPC   D2A15184   7.936   1.550   6.418  0.3201  0.2819  0.1076
 1114YOPC   C3A15185   7.795   1.715   6.820 -0.3361 -0.0414  0.1047
 1114YOPC   C4A15186   7.953   1.894   7.114  0.2515  0.0104 -0.1384
 1114YOPC   C1B15187   7.375   1.606   6.335 -0.1372  0.1133  0.0152
 1114YOPC   C2B15188   7.385   1.400   6.703  0.0837 -0.0444  0.0847
 1114YOPC   D3B15189   7.407   1.586   7.149 -0.0490 -0.1911 -0.0244
 1114YOPC   C4B15190   7.711   1.436   7.505 -0.1155  0.0416 -0.0132
 1115YOPC   NC315191   5.200  16.885   5.986  0.1852  0.2128  0.1000
 1115YOPC   PO415192   4.926  16.581   6.012  0.1204  0.1464 -0.0554
 1115YOPC   GL115193   5.130  16.560   6.359 -0.0467  0.1493 -0.1439
 1115YOPC   GL215194   5.319  16.303   6.567 -0.0865 -0.2136  0.0427
 1115YOPC   C1A15195   5.520  16.757   6.578 -0.0675 -0.2571 -0.1369
 1115YOPC   D2A15196   5.962  16.888   6.548  0.3912 -0.0323  0.1484
 1115YOPC   C3A15197   6.027  17.155   6.938 -0.1036 -0.0584  0.1874
 1115YOPC   C4A15198   6.054  17.366   7.413 -0.1673  0.0064 -0.2034
 1115YOPC   C1B15199   5.140  16.004   6.913  0.0942  0.0734  0.0811
 1115YOPC   C2B15200   5.207  15.607   7.111  0.1602 -0.0582 -0.0008
 1115YOPC   D3B15201   5.211  15.223   7.221 -0.1564  0.3428  0.0013
 1115YOPC   C4B15202   4.967  14.850   7.166  0.1490  0.0093 -0.0070
 1116YOPC   NC315203   4.857  12.485   5.569 -0.1547  0.0022 -0.1597
 1116YOPC   PO415204   5.114  12.213   5.315  0.1532  0.0616  0.1360
 1116YOPC   GL115205   5.299  12.409   5.753  0.1072 -0.3266 -0.2578
 1116YOPC   GL215206   5.539  12.502   6.054  0.1625  0.2751  0.1267
 1116YOPC   C1A15207   5.087  12.507   6.224  0.0566 -0.3511  0.0185
 1116YOPC   D2A15208   4.895  12.223   6.553 -0.2859  0.1224  0.3785
 1116YOPC   C3A15209   5.111  12.177   6.898 -0.1075 -0.0355 -0.1429
 1116YOPC   C4A15210   5.331  12.287   7.268  0.0951 -0.0469  0.0499
 1116YOPC   C1B15211   5.692  12.608   6.421  0.3553  0.2138  0.2875
 1116YOPC   C2B15212   5.705  12.791   6.874 -0.0288 -0.2108  0.0066
 1116YOPC   D3B15213   5.527  12.732   7.234 -0.2952 -0.0010 -0.4080
 1116YOPC   C4B15214   5.267  12.852   7.582  0.0198  0.1409 -0.2473
 1117YOPC   NC315215  12.328   5.629   5.522  0.0459 -0.1277  0.0516
 1117YOPC   PO415216  11.979   5.784   5.787 -0.0089  0.1573  0.2020
 1117YOPC   GL115217  12.181   5.854   6.214 -0.1940  0.0059  0.1239
 1117YOPC   GL215218  12.142   6.228   6.220  0.1426 -0.0932 -0.0138
 1117YOPC   C1A15219  12.133   5.786   6.683 -0.1698  0.1527 -0.0072
 1117YOPC   D2A15220  12.101   5.976   7.057  0.0422  0.0064 -0.0181
 1117YOPC   C3A15221  12.033   5.792   7.414 -0.2455 -0.1193 -0.4375
 1117YOPC   C4A15222  11.992   5.905   7.915  0.1312  0.0802 -0.0662
 1117YOPC   C1B15223  12.051   6.257   6.601  0.2400 -0.0276  0.0548
 1117YOPC   C2B15224  11.845   6.391   7.012  0.1247 -0.2769 -0.0107
 1117YOPC   D3B15225  12.018   6.404   7.278 -0.1073  0.3422 -0.0404
 1117YOPC   C4B15226  12.320   6.195   7.566 -0.0508 -0.1920 -0.1078
 1118YOPC   NC315227   1.963   4.852   5.862 -0.2792  0.2758 -0.1774
 1118YOPC   PO415228   2.334   4.571   6.171  0.1829 -0.0779 -0.2536
 1118YOPC   GL115229   2.618   4.565   6.621 -0.2224  0.1025  0.0069
 1118YOPC   GL215230   2.862   4.315   6.635 -0.1989 -0.1651 -0.3675
 1118YOPC   C1A15231   2.601   4.803   7.033 -0.0287  0.0778 -0.2782
 1118YOPC   D2A15232   2.541   5.036   7.307 -0.2219  0.0334 -0.1510
 1118YOPC   C3A15233   2.684   5.128   7.655  0.2630  0.0741  0.0500
 1118YOPC   C4A15234   2.726   5.021   8.022 -0.2970 -0.1763  0.2348
 1118YOPC   C1B15235   3.295   4.239   6.915  0.2891 -0.2918  0.1363
 1118YOPC   C2B15236   3.317   4.171   7.418 -0.0483  0.0007  0.0614
 1118YOPC   D3B15237   2.966   4.259   7.704  0.0098 -0.1696  0.0202
 1118YOPC   C4B15238   2.637   4.168   7.968 -0.1530 -0.1052 -0.0777
 1119YOPC   NC315239  11.767   0.061   5.907  0.0140  0.2582  0.2066
 1119YOPC   PO415240  12.173  -0.177   5.828 -0.0709  0.0189  0.0184
 1119YOPC   GL115241  12.289  -0.257   6.230  0.1746  0.0469  0.2672
 1119YOPC   GL215242  11.934  -0.269   6.272 -0.0038 -0.2218 -0.1023
 1119YOPC   C1A15243  12.641  -0.220   6.531 -0.1300  0.0183  0.1954
 1119YOPC   D2A15244  12.877  -0.257   6.976  0.0882 -0.3387 -0.0372
 1119YOPC   C3A15245  12.710  -0.283   7.398  0.1251 -0.2393  0.3933
 1119YOPC   C4A15246  12.589   0.034   7.681  0.0556  0.0298 -0.2051
 1119YOPC   C1B15247  11.788   0.224   6.516 -0.2914 -0.1359 -0.0824
 1119YOPC   C2B15248  11.640   0.443   6.745  0.1036  0.2619  0.0094
 1119YOPC   D3B15249  11.529   0.374   7.208 -0.0594  0.0297  0.4613
 1119YOPC   C4B15250  11.332   0.293   7.545 -0.2635 -0.0940  0.2673
 1120YOPC   NC315251  11.370   9.696   5.373  0.1063  0.2566  0.0377
 1120YOPC   PO415252  11.607   9.363   5.383  0.0582  0.0575  0.3720
 1120YOPC   GL115253  11.667   9.133   5.736  0.2165  0.2213  0.1173
 1120YOPC   GL215254  11.543   8.967   5.810 -0.0891 -0.2907 -0.2333
 1120YOPC   C1A15255  11.818   9.279   6.103 -0.2031 -0.0182  0.0321
 1120YOPC   D2A15256  11.822   9.258   6.568  0.1906  0.0990  0.1292
 1120YOPC   C3A15257  11.515   9.051   6.721  0.4414  0.0608 -0.5154
 1120YOPC   C4A15258  11.147   8.980   6.992 -0.1732 -0.0121 -0.1113
 1120YOPC   C1B15259  11.502   8.864   6.271  0.0117 -0.4206 -0.0487
 1120YOPC   C2B15260  11.895   8.777   6.527 -0.2532  0.0069 -0.3358
 1120YOPC   D3B15261  11.784   8.744   6.967  0.0273  0.0468  0.0253
 1120YOPC   C4B15262  11.394   8.734   7.340 -0.0698  0.1372 -0.0212
 1121YOPC   NC315263  16.381  14.204   5.765  0.1341  0.3499  0.0041
 1121YOPC   PO415264  16.173  14.527   5.833  0.0710  0.1403 -0.1422
 1121YOPC   GL115265  16.378  14.399   6.224 -0.0022 -0.0140 -0.1938
 1121YOPC   GL215266  16.043  14.313   6.298  0.0676  0.0090  0.0531
 1121YOPC   C1A15267  16.737  14.371   6.483 -0.2266 -0.0069 -0.1492
 1121YOPC   D2A15268  16.963  13.982   6.730 -0.0837  0.0813 -0.0947
 1121YOPC   C3A15269  16.916  13.909   7.156 -0.0586  0.2148 -0.0594
 1121YOPC   C4A15270  16.644  14.023   7.456 -0.2409  0.2512  0.1136
 1121YOPC   C1B15271  15.761  14.617   6.557 -0.1271 -0.1367 -0.2804
 1121YOPC   C2B15272  15.751  14.562   7.032 -0.0568  0.0898  0.0963
 1121YOPC   D3B15273  15.722  14.551   7.418 -0.2274 -0.1129  0.0940
 1121YOPC   C4B15274  15.601  14.647   7.917 -0.3366 -0.2333  0.1273
 1122YOPC   NC315275  13.809  16.470   6.176  0.0600  0.0307 -0.0704
 1122YOPC   PO415276  13.505  16.804   6.074 -0.0367  0.2888 -0.0245
 1122YOPC   GL115277  13.487  17.065   6.434 -0.1959  0.0954 -0.0572
 1122YOPC   GL215278  13.185  17.229   6.506  0.0683 -0.1581  0.3599
 1122YOPC   C1A15279  13.562  17.083   6.865 -0.1148 -0.0890 -0.2108
 1122YOPC   D2A15280  13.704  17.352   7.211 -0.2457  0.3627 -0.0026
 1122YOPC   C3A15281  13.544  17.432   7.583 -0.0773 -0.1668  0.5112
 1122YOPC   C4A15282  13.108  17.613   7.775 -0.1652 -0.0722 -0.0033
 1122YOPC   C1B15283  13.046  17.086   6.880  0.1523  0.3804 -0.2029
 1122YOPC   C2B15284  13.261  17.134   7.245  0.1647  0.2149  0.2876
 1122YOPC   D3B15285  12.896  17.214   7.552  0.1039  0.1609  0.2592
 1122YOPC   C4B15286  12.674  17.371   7.927  0.3900  0.3501 -0.0917
 1123YOPC   NC315287  11.073   0.503   5.930  0.1689 -0.1934  0.1163
 1123YOPC   PO415288  10.671   0.814   6.001  0.3248  0.0024 -0.1261
 1123YOPC   GL115289  10.573   0.612   6.365  0.1422  0.0990  0.1580
 1123YOPC   GL215290  10.731   0.688   6.542  0.0093 -0.2274  0.0787
 1123YOPC   C1A15291  10.293   0.546   6.788  0.0820  0.3731  0.2421
 1123YOPC   D2A15292  10.302   0.648   7.169  0.0993  0.0607 -0.1480
 1123YOPC   C3A15293   9.972   0.600   7.457  0.1464 -0.0219 -0.0175
 1123YOPC   C4A15294   9.741   0.587   7.900 -0.1058  0.0010 -0.2349
 1123YOPC   C1B15295  10.729   0.852   6.941  0.0773  0.1883  0.0913
 1123YOPC   C2B15296  10.631   0.927   7.388  0.2472  0.0380 -0.1753
 1123YOPC   D3B15297  10.410   0.833   7.723 -0.1663 -0.0147 -0.0118
 1123YOPC   C4B15298  10.149   0.801   8.067 -0.1405 -0.0400 -0.1022
 1124YOPC   NC315299  12.162  11.346   5.163  0.2487 -0.2172  0.0138
 1124YOPC   PO415300  12.161  11.524   5.528 -0.0443 -0.0062  0.0325
 1124YOPC   GL115301  12.304  11.580   5.917 -0.2267 -0.0825  0.0444
 1124YOPC   GL215302  12.542  11.468   5.969 -0.0012 -0.0917 -0.1000
 1124YOPC   C1A15303  12.372  11.665   6.350 -0.0974 -0.2002  0.1118
 1124YOPC   D2A15304  12.208  11.870   6.728  0.1292 -0.0232 -0.2560
 1124YOPC   C3A15305  12.513  11.842   7.016 -0.2178  0.4145  0.1806
 1124YOPC   C4A15306  12.878  11.798   7.204 -0.1718  0.2547 -0.1796
 1124YOPC   C1B15307  12.775  11.241   6.373  0.0422 -0.0889  0.1857
 1124YOPC   C2B15308  12.981  10.747   6.376  0.0015  0.1850 -0.0242
 1124YOPC   D3B15309  13.095  10.559   6.731  0.0785 -0.1046 -0.1211
 1124YOPC   C4B15310  12.918  10.745   7.077 -0.2978 -0.1272 -0.2688
 1125YOPC   NC315311  15.676  13.557   5.718 -0.1115 -0.1461 -0.1123
 1125YOPC   PO415312  16.176  13.410   5.771 -0.1975 -0.0426  0.3378
 1125YOPC   GL115313  15.869  13.267   6.090 -0.0300 -0.0947 -0.1640
 1125YOPC   GL215314  15.955  13.434   6.359 -0.0481  0.0410  0.0375
 1125YOPC   C1A15315  15.631  13.106   6.516  0.1997 -0.0549  0.3054
 1125YOPC   D2A15316  15.538  12.997   6.947 -0.1047  0.4447  0.2486
 1125YOPC   C3A15317  15.529  13.154   7.259  0.1747 -0.0053 -0.0544
 1125YOPC   C4A15318  15.779  13.064   7.609  0.0852  0.1065  0.0289
 1125YOPC   C1B15319  16.088  13.578   6.731  0.0538 -0.0438  0.0926
 1125YOPC   C2B15320  16.460  13.632   6.977 -0.0191 -0.0585 -0.1923
 1125YOPC   D3B15321  16.673  13.344   7.241  0.2820 -0.1860  0.0493
 1125YOPC   C4B15322  16.757  13.139   7.681 -0.0955  0.1948  0.1028
 1126YOPC   NC315323  14.139   8.169   5.596 -0.1235 -0.1703 -0.0481
 1126YOPC   PO415324  14.435   8.577   5.537 -0.1295 -0.0690 -0.2841
 1126YOPC   GL115325  14.209   8.609   5.952 -0.2769  0.0545  0.2499
 1126YOPC   GL215326  14.450   8.343   5.975  0.0976 -0.0126  0.2665
 1126YOPC   C1A15327  14.219   8.615   6.415  0.0405 -0.0494 -0.2647
 1126YOPC   D2A15328  14.243   8.719   6.873 -0.0256  0.0254  0.0466
 1126YOPC   C3A15329  14.118   9.083   7.003 -0.0360  0.0235 -0.1216
 1126YOPC   C4A15330  13.974   9.503   6.857  0.0209  0.0647 -0.2273
 1126YOPC   C1B15331  14.655   8.167   6.309  0.0891  0.1778  0.1861
 1126YOPC   C2B15332  15.015   7.921   6.392 -0.0508  0.0876  0.1505
 1126YOPC   D3B15333  15.269   7.931   6.783  0.2127  0.2848 -0.2966
 1126YOPC   C4B15334  15.370   7.871   7.198  0.0049  0.0364  0.0976
 1127YOPC   NC315335  15.146  10.777   5.780  0.2281 -0.0113  0.5033
 1127YOPC   PO415336  14.710  10.753   5.805  0.2669  0.0286 -0.5047
 1127YOPC   GL115337  14.480  10.971   6.038  0.3765 -0.3349  0.2796
 1127YOPC   GL215338  14.448  11.128   6.298  0.1560 -0.0196  0.0604
 1127YOPC   C1A15339  14.531  10.700   6.471 -0.0134 -0.0189  0.0137
 1127YOPC   D2A15340  14.374  10.385   6.823 -0.1731 -0.0188  0.1342
 1127YOPC   C3A15341  14.063  10.158   7.014  0.0664  0.0856  0.1407
 1127YOPC   C4A15342  13.979   9.872   7.216 -0.0224  0.1618 -0.2108
 1127YOPC   C1B15343  14.728  11.314   6.609  0.1629 -0.2342 -0.0981
 1127YOPC   C2B15344  15.052  11.333   6.856  0.0884 -0.0017  0.1165
 1127YOPC   D3B15345  15.117  11.171   7.240  0.1386  0.3979  0.5060
 1127YOPC   C4B15346  15.477  11.003   7.405  0.1941  0.1309  0.1164
 1128YOPC   NC315347  15.023  11.773   5.698  0.1540  0.0234  0.1592
 1128YOPC   PO415348  14.562  11.635   5.626  0.1023 -0.0846 -0.3160
 1128YOPC   GL115349  14.351  11.795   5.958  0.1906  0.1548  0.1127
 1128YOPC   GL215350  14.053  11.913   5.985 -0.1897  0.0297  0.1000
 1128YOPC   C1A15351  14.462  11.885   6.402 -0.0256 -0.0135 -0.0004
 1128YOPC   D2A15352  14.809  11.961   6.699 -0.0874 -0.1397  0.2930
 1128YOPC   C3A15353  14.724  12.075   7.144 -0.0947  0.0514  0.3878
 1128YOPC   C4A15354  14.704  12.012   7.605  0.1419 -0.1032  0.0294
 1128YOPC   C1B15355  13.858  11.939   6.402  0.0241  0.0665  0.2433
 1128YOPC   C2B15356  13.478  12.068   6.645  0.2355  0.0770 -0.1772
 1128YOPC   D3B15357  13.391  12.123   7.050 -0.1122  0.2457  0.2203
 1128YOPC   C4B15358  13.643  12.107   7.308 -0.3083 -0.0988  0.2531
 1129YOPC   NC315359  12.037   8.411   4.861  0.4421  0.0142 -0.0404
 1129YOPC   PO415360  12.275   8.551   5.220  0.0248  0.2107 -0.1624
 1129YOPC   GL115361  12.155   8.638   5.740  0.0761  0.0820 -0.0123
 1129YOPC   GL215362  11.970   8.775   5.869 -0.1825 -0.1734 -0.1105
 1129YOPC   C1A15363  12.288   8.378   6.101  0.0246  0.0338 -0.1559
 1129YOPC   D2A15364  12.398   8.041   6.423  0.2185  0.3146 -0.1022
 1129YOPC   C3A15365  12.351   8.061   6.771  0.1785  0.0780 -0.1340
 1129YOPC   C4A15366  12.468   8.218   7.161  0.0551  0.1266  0.1177
 1129YOPC   C1B15367  12.172   8.887   6.189 -0.2037  0.1162 -0.1379
 1129YOPC   C2B15368  12.308   8.549   6.557 -0.2383  0.0653  0.1889
 1129YOPC   D3B15369  12.214   8.613   6.848  0.0289  0.2774  0.0660
 1129YOPC   C4B15370  12.175   9.048   7.059  0.1452 -0.1507 -0.0294
 1130YOPC   NC315371  13.851   3.765   6.088  0.1620 -0.1031 -0.1583
 1130YOPC   PO415372  13.715   3.335   5.999 -0.1500  0.0152  0.1289
 1130YOPC   GL115373  13.756   3.421   6.470  0.0521 -0.1368  0.0205
 1130YOPC   GL215374  14.076   3.299   6.655  0.1995  0.0207  0.0215
 1130YOPC   C1A15375  13.713   3.632   6.829  0.0221 -0.1387 -0.0009
 1130YOPC   D2A15376  13.767   3.768   7.238 -0.1169 -0.1099 -0.2029
 1130YOPC   C3A15377  13.986   3.606   7.549 -0.2091  0.2431  0.0736
 1130YOPC   C4A15378  14.090   3.531   8.012 -0.0942 -0.1904 -0.0142
 1130YOPC   C1B15379  13.996   3.292   7.074 -0.3537  0.0376 -0.0057
 1130YOPC   C2B15380  13.740   3.248   7.422  0.0119 -0.0790 -0.1269
 1130YOPC   D3B15381  13.602   2.906   7.583 -0.2858 -0.1600 -0.0132
 1130YOPC   C4B15382  13.513   2.822   7.990  0.2823 -0.0145  0.0233
 1131YOPC   NC315383  11.260   2.218   5.303  0.2341 -0.1271 -0.2085
 1131YOPC   PO415384  11.242   1.756   5.369 -0.1954 -0.0524  0.1343
 1131YOPC   GL115385  11.075   1.733   5.867  0.0926  0.2082 -0.1427
 1131YOPC   GL215386  11.182   1.488   5.998  0.1196 -0.1840  0.2237
 1131YOPC   C1A15387  10.878   1.740   6.326 -0.0563 -0.1292 -0.0151
 1131YOPC   D2A15388  10.606   1.636   6.649 -0.0419 -0.0111 -0.0750
 1131YOPC   C3A15389  10.676   1.955   7.053 -0.0553 -0.2911 -0.1451
 1131YOPC   C4A15390  10.607   2.160   7.527 -0.2932  0.1536  0.1655
 1131YOPC   C1B15391  11.308   1.485   6.446 -0.0613  0.3110 -0.0934
 1131YOPC   C2B15392  11.632   1.331   6.628 -0.1554 -0.0750  0.0134
 1131YOPC   D3B15393  11.799   0.873   6.546 -0.1956  0.0327  0.0012
 1131YOPC   C4B15394  12.094   0.720   6.254  0.0226  0.0591 -0.1571
 1132YOPC   NC315395  13.082  12.801   5.780  0.2132 -0.3982  0.1126
 1132YOPC   PO415396  13.255  13.245   5.947 -0.3132  0.0338  0.1524
 1132YOPC   GL115397  12.965  12.949   6.262 -0.2619 -0.0551  0.2950
 1132YOPC   GL215398  12.675  13.010   6.131 -0.2898 -0.0537 -0.1106
 1132YOPC   C1A15399  12.829  12.808   6.604 -0.2209 -0.3483 -0.1973
 1132YOPC   D2A15400  12.651  12.748   6.977  0.0173  0.2008  0.1836
 1132YOPC   C3A15401  12.658  12.966   7.362  0.3207 -0.1269 -0.1496
 1132YOPC   C4A15402  12.928  12.793   7.713  0.0017  0.0347  0.1794
 1132YOPC   C1B15403  12.595  12.540   6.221 -0.1042  0.0657  0.0030
 1132YOPC   C2B15404  12.241  12.238   6.283 -0.1092 -0.1166  0.1824
 1132YOPC   D3B15405  11.912  12.288   6.570  0.1785  0.1104  0.0292
 1132YOPC   C4B15406  11.925  12.492   6.960  0.0433 -0.0803  0.3561
 1133YOPC   NC315407   3.373  11.077   6.005 -0.0848 -0.1794 -0.0539
 1133YOPC   PO415408   3.126  11.398   5.811 -0.2540 -0.2563 -0.0182
 1133YOPC   GL115409   3.009  11.702   6.145 -0.0511 -0.1532 -0.1495
 1133YOPC   GL215410   3.248  11.895   6.189 -0.0890 -0.2036  0.0812
 1133YOPC   C1A15411   2.791  11.774   6.514  0.4762  0.0020  0.1094
 1133YOPC   D2A15412   2.758  11.799   7.028  0.1356 -0.0125 -0.2476
 1133YOPC   C3A15413   2.725  11.946   7.384  0.2022 -0.1579 -0.1746
 1133YOPC   C4A15414   2.722  12.340   7.672 -0.1767  0.2704 -0.1940
 1133YOPC   C1B15415   3.218  12.171   6.526 -0.0488  0.2483 -0.2002
 1133YOPC   C2B15416   3.322  12.350   6.858  0.2035 -0.1373  0.0941
 1133YOPC   D3B15417   3.590  12.372   7.196  0.0285  0.2419 -0.2802
 1133YOPC   C4B15418   3.780  12.616   7.593  0.1406 -0.1801 -0.0072
 1134YOPC   NC315419   9.914   2.167   5.776  0.2627  0.2270 -0.1282
 1134YOPC   PO415420   9.992   2.521   5.911  0.0174 -0.1124 -0.0145
 1134YOPC   GL115421  10.053   2.368   6.270 -0.0531  0.2901 -0.1747
 1134YOPC   GL215422  10.294   2.634   6.352 -0.0386 -0.0986  0.0448
 1134YOPC   C1A15423  10.021   2.173   6.585 -0.0066  0.0948  0.3656
 1134YOPC   D2A15424   9.688   1.833   6.705 -0.2643 -0.0858 -0.0489
 1134YOPC   C3A15425   9.694   1.741   7.082  0.1306 -0.1175  0.1039
 1134YOPC   C4A15426   9.618   1.789   7.506  0.2384 -0.2305 -0.0510
 1134YOPC   C1B15427  10.091   2.693   6.634  0.0330 -0.2541  0.1034
 1134YOPC   C2B15428   9.914   2.859   6.939  0.1902  0.2087 -0.0208
 1134YOPC   D3B15429   9.910   3.223   7.037  0.0876  0.1703  0.0094
 1134YOPC   C4B15430  10.142   3.431   7.307 -0.3067 -0.0495  0.0900
 1135YOPC   NC315431  15.758  12.321   6.077 -0.2364  0.0485  0.1751
 1135YOPC   PO415432  15.495  12.639   5.869  0.0888 -0.0590  0.1727
 1135YOPC   GL115433  15.406  12.776   6.222 -0.1105  0.2242 -0.3112
 1135YOPC   GL215434  15.510  12.610   6.524  0.1363 -0.0981 -0.0058
 1135YOPC   C1A15435  15.068  12.866   6.595  0.2475  0.1202  0.1385
 1135YOPC   D2A15436  14.620  13.003   6.762 -0.0830  0.0355 -0.0041
 1135YOPC   C3A15437  14.573  12.925   7.254 -0.0106  0.2154  0.1489
 1135YOPC   C4A15438  14.574  12.475   7.439  0.0793 -0.2526  0.3373
 1135YOPC   C1B15439  15.887  12.495   6.729  0.0109 -0.2911 -0.0261
 1135YOPC   C2B15440  16.192  12.195   6.854  0.3089  0.0455 -0.0178
 1135YOPC   D3B15441  16.161  12.285   7.252  0.0693 -0.1923 -0.2456
 1135YOPC   C4B15442  16.093  12.166   7.640 -0.1599  0.0258 -0.1057
 1136YOPC   NC315443   1.877   2.899   5.896 -0.0169 -0.3837 -0.2780
 1136YOPC   PO415444   1.813   2.910   6.283 -0.1024 -0.0720  0.1933
 1136YOPC   GL115445   1.653   3.110   6.693  0.2501  0.1135  0.2562
 1136YOPC   GL215446   1.547   3.435   6.731  0.0056 -0.0142  0.3818
 1136YOPC   C1A15447   1.319   3.068   7.008  0.0666  0.0341 -0.2580
 1136YOPC   D2A15448   1.355   2.968   7.396 -0.0871 -0.3149  0.0335
 1136YOPC   C3A15449   1.394   2.674   7.693 -0.2079  0.1275 -0.2289
 1136YOPC   C4A15450   1.278   2.238   7.902 -0.0169 -0.0597  0.1344
 1136YOPC   C1B15451   1.480   3.554   7.133  0.1316  0.1561 -0.2329
 1136YOPC   C2B15452   1.511   3.549   7.551  0.1931 -0.2391  0.2056
 1136YOPC   D3B15453   1.683   3.095   7.756 -0.1124 -0.1046 -0.0164
 1136YOPC   C4B15454   1.715   2.782   8.132 -0.2445 -0.3316  0.2504
 1137YOPC   NC315455   0.186   0.611   5.905  0.2675  0.2596  0.3764
 1137YOPC   PO415456  -0.094   0.282   5.971 -0.0878  0.1196 -0.0180
 1137YOPC   GL115457  -0.095   0.294   6.393 -0.1682 -0.1130 -0.0702
 1137YOPC   GL215458   0.077   0.616   6.438  0.1116 -0.2061 -0.1235
 1137YOPC   C1A15459  -0.177   0.162   6.849  0.2011 -0.1219  0.0932
 1137YOPC   D2A15460  -0.230   0.016   7.235 -0.0366 -0.3155 -0.1127
 1137YOPC   C3A15461  -0.524  -0.137   7.448  0.0100  0.4501  0.0859
 1137YOPC   C4A15462  -0.711  -0.282   7.862  0.1274 -0.0029  0.0650
 1137YOPC   C1B15463   0.299   0.111   6.578  0.3219 -0.1445 -0.0814
 1137YOPC   C2B15464   0.484  -0.022   6.912  0.1984  0.2689 -0.1454
 1137YOPC   D3B15465   0.661   0.303   7.076  0.4642  0.0163 -0.1226
 1137YOPC   C4B15466   1.103   0.194   7.340 -0.4750 -0.5063  0.3634
 1138YOPC   NC315467   0.854   3.999   6.283  0.1763 -0.0783  0.2094
 1138YOPC   PO415468   1.209   3.750   6.510  0.2103  0.1155  0.1772
 1138YOPC   GL115469   1.255   4.014   6.946 -0.0405 -0.1682  0.2069
 1138YOPC   GL215470   1.221   4.354   6.915  0.0710 -0.0170  0.0915
 1138YOPC   C1A15471   1.591   4.135   7.217  0.3579 -0.1539 -0.1292
 1138YOPC   D2A15472   1.895   4.245   7.521  0.0474 -0.2554 -0.1908
 1138YOPC   C3A15473   2.016   4.530   7.838 -0.3352  0.3021  0.1301
 1138YOPC   C4A15474   1.965   4.721   8.205 -0.1393 -0.2911 -0.1201
 1138YOPC   C1B15475   1.422   4.626   7.158 -0.0818  0.2533  0.0983
 1138YOPC   C2B15476   1.453   4.515   7.548 -0.1251  0.2134  0.0039
 1138YOPC   D3B15477   1.103   4.353   7.881  0.2063  0.2192  0.0645
 1138YOPC   C4B15478   1.190   4.242   8.338  0.1800  0.1084  0.0795
 1139YOPC   NC315479   2.207   1.349   5.878  0.4214  0.2131  0.0512
 1139YOPC   PO415480   2.666   1.396   5.831 -0.2019  0.1453  0.1301
 1139YOPC   GL115481   2.708   1.247   6.315  0.1678 -0.1110 -0.0696
 1139YOPC   GL215482   2.688   0.983   6.304 -0.0601  0.0874 -0.2380
 1139YOPC   C1A15483   2.842   1.266   6.746 -0.2693  0.1460  0.2008
 1139YOPC   D2A15484   2.803   1.048   7.094 -0.1436  0.1755  0.2898
 1139YOPC   C3A15485   2.554   1.187   7.444  0.1475  0.0667  0.2557
 1139YOPC   C4A15486   2.462   1.365   7.873 -0.3123 -0.2921 -0.1041
 1139YOPC   C1B15487   2.501   0.819   6.712  0.0532  0.2444 -0.1207
 1139YOPC   C2B15488   2.393   0.711   7.179 -0.1382  0.1008  0.1832
 1139YOPC   D3B15489   2.497   0.716   7.590 -0.0503 -0.2857 -0.1105
 1139YOPC   C4B15490   2.259   0.441   8.025 -0.1192 -0.1372  0.0551
 1140YOPC   NC315491   9.707  10.556   5.492  0.0292  0.0030 -0.1330
 1140YOPC   PO415492   9.524  10.367   5.765  0.0009  0.3806  0.0364
 1140YOPC   GL115493   9.441  10.571   6.007 -0.1962  0.1229 -0.4017
 1140YOPC   GL215494   9.241  10.867   6.098  0.1415 -0.0444  0.0144
 1140YOPC   C1A15495   9.705  10.753   6.316 -0.0540 -0.0693  0.3565
 1140YOPC   D2A15496   9.833  10.753   6.771 -0.0943 -0.0299  0.2815
 1140YOPC   C3A15497   9.838  10.745   7.166  0.1247  0.2452  0.2649
 1140YOPC   C4A15498   9.816  10.365   7.381  0.0166  0.2066 -0.1730
 1140YOPC   C1B15499   9.274  10.837   6.543 -0.1331 -0.1924  0.0644
 1140YOPC   C2B15500   9.410  10.887   6.941 -0.1314 -0.0450  0.0847
 1140YOPC   D3B15501   9.316  10.811   7.340 -0.0244 -0.0964 -0.1299
 1140YOPC   C4B15502   9.140  10.800   7.850 -0.0899 -0.2070  0.1429
 1141YOPC   NC315503  11.866  10.488   5.584 -0.0789 -0.2023 -0.0815
 1141YOPC   PO415504  11.607  10.121   5.515  0.0979 -0.0985  0.2105
 1141YOPC   GL115505  12.075   9.939   5.684  0.1823 -0.0808 -0.2487
 1141YOPC   GL215506  12.370   9.849   5.571  0.1404 -0.1499 -0.0386
 1141YOPC   C1A15507  12.185   9.605   6.041 -0.0735  0.0981  0.3043
 1141YOPC   D2A15508  12.523   9.152   5.850 -0.1481 -0.3256 -0.1087
 1141YOPC   C3A15509  12.696   8.862   6.024 -0.0444  0.2999  0.1205
 1141YOPC   C4A15510  13.130   8.790   5.945  0.0234 -0.0762 -0.0276
 1141YOPC   C1B15511  12.675   9.753   5.860  0.0212  0.0694 -0.2174
 1141YOPC   C2B15512  12.578   9.421   6.327 -0.1478 -0.0289  0.0914
 1141YOPC   D3B15513  12.204   9.513   6.588 -0.1366  0.0279  0.0068
 1141YOPC   C4B15514  11.952   9.497   6.972  0.1493  0.2207  0.2603
 1142YOPC   NC315515  16.638  15.817   5.895  0.1383  0.2046  0.0486
 1142YOPC   PO415516  16.426  15.430   6.121 -0.3968  0.2736 -0.0409
 1142YOPC   GL115517  16.331  15.168   6.431 -0.1064 -0.1311 -0.1541
 1142YOPC   GL215518  16.677  15.189   6.519 -0.1217  0.2900 -0.2470
 1142YOPC   C1A15519  16.304  14.789   6.499  0.0205 -0.1607 -0.0969
 1142YOPC   D2A15520  16.290  14.502   6.767 -0.0825 -0.2084  0.1406
 1142YOPC   C3A15521  16.009  14.137   6.805  0.0646 -0.1933 -0.3215
 1142YOPC   C4A15522  15.930  13.876   7.077 -0.2462 -0.3225  0.0569
 1142YOPC   C1B15523  16.729  14.864   6.847  0.0000  0.0290 -0.0565
 1142YOPC   C2B15524  16.735  14.575   7.186 -0.2563 -0.2811 -0.0844
 1142YOPC   D3B15525  16.570  14.516   7.626  0.3216 -0.1302 -0.1103
 1142YOPC   C4B15526  16.399  14.747   7.929 -0.2693 -0.0843  0.0562
 1143YOPC   NC315527   9.518  17.001   6.128 -0.1460 -0.0125 -0.2925
 1143YOPC   PO415528   9.456  16.618   5.887  0.5056  0.1652  0.2623
 1143YOPC   GL115529   9.495  16.386   6.256 -0.0203 -0.0852  0.0446
 1143YOPC   GL215530   9.724  16.540   6.431 -0.1300 -0.0776  0.2032
 1143YOPC   C1A15531   9.529  16.037   6.627 -0.1430  0.0360  0.2674
 1143YOPC   D2A15532   9.620  15.956   6.986  0.0156  0.0854  0.0955
 1143YOPC   C3A15533  10.104  16.007   7.254 -0.0088  0.0562 -0.0122
 1143YOPC   C4A15534  10.247  15.821   7.659  0.3469  0.1338  0.3424
 1143YOPC   C1B15535   9.714  16.411   6.858 -0.1931  0.0240 -0.0549
 1143YOPC   C2B15536   9.882  16.404   7.200  0.0265 -0.0453  0.1625
 1143YOPC   D3B15537   9.866  16.251   7.622 -0.0640 -0.2614 -0.0964
 1143YOPC   C4B15538   9.869  15.993   7.955  0.1609 -0.3213 -0.2367
 1144ERGO   ROH15539  10.225   0.990   6.264  0.0048  0.1211 -0.1005
 1144ERGO    R115540  10.330   1.040   6.522  0.0483  0.2280 -0.1371
 1144ERGO    R215541  10.245   1.251   6.680 -0.0808  0.1706 -0.1208
 1144ERGO    R315542  10.201   1.054   6.862  0.1440  0.1407 -0.0976
 1144ERGO    R415543  10.222   1.299   7.021 -0.0293  0.1657 -0.1177
 1144ERGO    R515544  10.336   1.115   7.050  0.1405  0.2687 -0.1386
 1144ERGO    C115545  10.167   1.142   7.391  0.2117  0.1347 -0.0941
 1144ERGO    C215546  10.025   1.132   7.644 -0.2337 -0.4628 -0.3739
 1145ERGO   ROH15547   4.584   4.013   6.244  0.0998  0.2108  0.0804
 1145ERGO    R115548   4.497   4.009   6.514 -0.0496  0.0722  0.0334
 1145ERGO    R215549   4.529   3.789   6.677 -0.0194  0.0291 -0.0196
 1145ERGO    R315550   4.652   3.968   6.840 -0.2052  0.0462  0.1026
 1145ERGO    R415551   4.627   3.724   7.002  0.1869 -0.1343 -0.1125
 1145ERGO    R515552   4.559   3.924   7.057 -0.0660 -0.2785  0.0973
 1145ERGO    C115553   4.799   3.855   7.345  0.1324 -0.2133 -0.0521
 1145ERGO    C215554   4.995   3.719   7.478  0.1221 -0.0432 -0.3200
 1146ERGO   ROH15555  10.934   2.249   6.116 -0.0707 -0.0656 -0.0187
 1146ERGO    R115556  10.981   2.372   6.366  0.0810 -0.1390 -0.0088
 1146ERGO    R215557  10.777   2.463   6.528  0.1876  0.2065 -0.0493
 1146ERGO    R315558  10.897   2.305   6.714 -0.1107 -0.0014 -0.0288
 1146ERGO    R415559  10.813   2.544   6.863  0.3085  0.1582 -0.0513
 1146ERGO    R515560  11.014   2.459   6.857  0.1565 -0.2046 -0.0275
 1146ERGO    C115561  10.946   2.443   7.232  0.0988 -0.0651 -0.0331
 1146ERGO    C215562  11.155   2.512   7.551  0.0622 -0.2343 -0.0208
 1147ERGO   ROH15563  13.770   2.958   6.373  0.1092  0.0580  0.0219
 1147ERGO    R115564  13.741   2.889   6.646  0.0393 -0.0594 -0.0143
 1147ERGO    R215565  13.665   3.073   6.839  0.2464 -0.0775  0.0871
 1147ERGO    R315566  13.472   2.889   6.892  0.0416  0.1050 -0.0104
 1147ERGO    R415567  13.427   3.102   7.087  0.1915  0.1167  0.0130
 1147ERGO    R515568  13.452   2.890   7.130 -0.0360  0.0807 -0.0161
 1147ERGO    C115569  13.107   2.947   7.282 -0.0325  0.4011 -0.1216
 1147ERGO    C215570  13.079   2.897   7.657 -0.3098  0.0020 -0.4289
 1148ERGO   ROH15571  16.648   5.414  10.418  0.2938 -0.1219  0.0735
 1148ERGO    R115572  16.591   5.228  10.213  0.0527  0.0100  0.0174
 1148ERGO    R215573  16.421   5.285  10.003  0.1019  0.2831  0.0483
 1148ERGO    R315574  16.634   5.210   9.851  0.0036  0.0748  0.0084
 1148ERGO    R415575  16.420   5.265   9.658 -0.0260  0.1217  0.0564
 1148ERGO    R515576  16.538   5.082   9.673 -0.1390  0.0526  0.1001
 1148ERGO    C115577  16.620   5.183   9.315 -0.1928 -0.1678  0.0236
 1148ERGO    C215578  16.630   5.114   8.950  0.0329 -0.4032  0.0657
 1149ERGO   ROH15579  15.477   0.109   6.463  0.0330  0.1352 -0.1230
 1149ERGO    R115580  15.383   0.024   6.716 -0.0710  0.0042 -0.2045
 1149ERGO    R215581  15.518   0.078   6.951 -0.0568 -0.2971 -0.1388
 1149ERGO    R315582  15.278   0.182   7.027  0.0170 -0.1619 -0.0885
 1149ERGO    R415583  15.392   0.071   7.273 -0.0292 -0.2997 -0.1282
 1149ERGO    R515584  15.195   0.028   7.190 -0.0660 -0.1515 -0.1205
 1149ERGO    C115585  15.094   0.165   7.531  0.0562 -0.1743 -0.0748
 1149ERGO    C215586  14.908   0.009   7.797 -0.2880 -0.1473  0.1082
 1150ERGO   ROH15587   5.485   0.021   6.336 -0.1156 -0.0753  0.0220
 1150ERGO    R115588   5.486   0.225   6.532  0.0669 -0.0391 -0.0109
 1150ERGO    R215589   5.301   0.236   6.738 -0.0969  0.3038 -0.1508
 1150ERGO    R315590   5.523   0.244   6.893 -0.1943 -0.0555  0.0152
 1150ERGO    R415591   5.317   0.373   7.054 -0.0843  0.2938 -0.1494
 1150ERGO    R515592   5.511   0.456   7.004  0.0849 -0.0347 -0.0075
 1150ERGO    C115593   5.535   0.462   7.384 -0.1684 -0.0493  0.0073
 1150ERGO    C215594   5.839   0.534   7.510 -0.0732 -0.0696 -0.0665
 1151ERGO   ROH15595   5.221   4.749   6.343 -0.2982  0.1686  0.0884
 1151ERGO    R115596   5.218   4.635   6.602  0.0358 -0.0010  0.0213
 1151ERGO    R215597   5.378   4.728   6.807 -0.0597  0.1913  0.0033
 1151ERGO    R315598   5.141   4.747   6.940 -0.0500 -0.3599  0.1270
 1151ERGO    R415599   5.344   4.735   7.151  0.1582  0.5147  0.0227
 1151ERGO    R515600   5.169   4.607   7.132  0.5124 -0.0559  0.2936
 1151ERGO    C115601   5.102   4.758   7.476  0.2943  0.1857  0.1502
 1151ERGO    C215602   5.050   4.800   7.777 -0.1310 -0.0415  0.1346
 1152ERGO   ROH15603  15.183   4.332  10.054 -0.4155  0.0300  0.0210
 1152ERGO    R115604  15.290   4.377   9.796 -0.2192  0.0186  0.0988
 1152ERGO    R215605  15.258   4.199   9.588 -0.1400  0.0517  0.0559
 1152ERGO    R315606  15.160   4.417   9.459  0.0281  0.1019  0.0117
 1152ERGO    R415607  15.266   4.246   9.246 -0.2017 -0.0708  0.0374
 1152ERGO    R515608  15.316   4.455   9.280  0.0089 -0.1060 -0.0498
 1152ERGO    C115609  15.179   4.478   8.925 -0.0798 -0.0951 -0.0150
 1152ERGO    C215610  15.175   4.645   8.663  0.2108 -0.1448 -0.0198
 1153ERGO   ROH15611  10.101   2.845   9.278 -0.0185 -0.0299  0.0672
 1153ERGO    R115612   9.993   2.730   9.043  0.0574 -0.1585  0.0941
 1153ERGO    R215613   9.951   2.876   8.812 -0.1304 -0.2167  0.0909
 1153ERGO    R315614  10.101   2.679   8.699  0.0517 -0.0739  0.0794
 1153ERGO    R415615  10.002   2.836   8.472 -0.3728 -0.3431  0.0671
 1153ERGO    R515616   9.983   2.620   8.500 -0.0457 -0.3602  0.2155
 1153ERGO    C115617  10.173   2.628   8.169 -0.3431 -0.2827  0.0424
 1153ERGO    C215618  10.278   2.597   7.756 -0.0135 -0.0886 -0.1928
 1154ERGO   ROH15619   7.089   4.211   9.877  0.0142  0.0137  0.0424
 1154ERGO    R115620   7.192   4.273   9.620  0.1090 -0.1304  0.0436
 1154ERGO    R215621   7.204   4.087   9.416 -0.1300 -0.1574  0.0476
 1154ERGO    R315622   7.066   4.278   9.279  0.1251  0.0261  0.0401
 1154ERGO    R415623   7.193   4.113   9.072  0.0794 -0.0140  0.0503
 1154ERGO    R515624   7.207   4.330   9.092  0.2749 -0.0361  0.1367
 1154ERGO    C115625   7.057   4.307   8.742  0.4409  0.2417  0.0449
 1154ERGO    C215626   7.098   4.376   8.415  0.2647 -0.4496  0.2045
 1155ERGO   ROH15627  13.633  11.530   6.262  0.1328  0.0836  0.0107
 1155ERGO    R115628  13.623  11.487   6.542  0.1118 -0.0002 -0.0024
 1155ERGO    R215629  13.691  11.245   6.658  0.0499 -0.0542 -0.0731
 1155ERGO    R315630  13.860  11.400   6.805  0.0818 -0.1378 -0.0209
 1155ERGO    R415631  13.834  11.153   6.959  0.1257 -0.2256 -0.1603
 1155ERGO    R515632  13.800  11.355   7.032  0.1395 -0.2709 -0.0331
 1155ERGO    C115633  14.076  11.245   7.272  0.1996 -0.4039 -0.1620
 1155ERGO    C215634  14.313  11.394   7.478 -0.0739  0.2080 -0.0302
 1156ERGO   ROH15635   4.937  12.643   9.888  0.1043  0.2406 -0.0278
 1156ERGO    R115636   4.976  12.582   9.615  0.0747  0.0662  0.0051
 1156ERGO    R215637   4.887  12.346   9.501 -0.1140  0.0764  0.1177
 1156ERGO    R315638   4.766  12.514   9.326  0.0384  0.0921  0.0270
 1156ERGO    R415639   4.913  12.326   9.157  0.0283 -0.0016  0.1327
 1156ERGO    R515640   4.925  12.543   9.150  0.1256 -0.0125  0.0918
 1156ERGO    C115641   4.813  12.472   8.792  0.2542 -0.0322  0.0560
 1156ERGO    C215642   4.836  12.458   8.406 -0.2369  0.1777  0.0623
 1157ERGO   ROH15643   7.044  11.840   9.861 -0.0382  0.2293  0.1376
 1157ERGO    R115644   7.172  11.749   9.625  0.0234  0.1270  0.2091
 1157ERGO    R215645   7.047  11.582   9.442  0.0295  0.1384  0.1903
 1157ERGO    R315646   7.116  11.778   9.267  0.1827  0.0763  0.1806
 1157ERGO    R415647   7.069  11.542   9.100 -0.2836  0.1795  0.1631
 1157ERGO    R515648   7.248  11.666   9.101 -0.1013 -0.0802  0.0568
 1157ERGO    C115649   7.146  11.703   8.735 -0.3220  0.1451  0.1380
 1157ERGO    C215650   7.094  11.605   8.420  0.1408  0.3307  0.0806
 1158ERGO   ROH15651   9.294  16.821   6.557  0.0874 -0.1103 -0.1691
 1158ERGO    R115652   9.411  16.868   6.810 -0.1075  0.1174 -0.1157
 1158ERGO    R215653   9.262  16.893   7.042 -0.2654 -0.1438 -0.1754
 1158ERGO    R315654   9.427  16.696   7.131  0.0592  0.1514 -0.1077
 1158ERGO    R415655   9.358  16.849   7.371 -0.3143  0.0143 -0.1401
 1158ERGO    R515656   9.559  16.801   7.301 -0.1993  0.3801 -0.0516
 1158ERGO    C115657   9.569  16.638   7.646 -0.0380  0.3833 -0.0561
 1158ERGO    C215658   9.647  16.460   8.009 -0.1197 -0.0421  0.0096
 1159ERGO   ROH15659   6.355  15.886  10.087  0.0265 -0.1463 -0.0515
 1159ERGO    R115660   6.225  15.851   9.838 -0.0402  0.0403 -0.0446
 1159ERGO    R215661   6.246  16.033   9.632  0.1374  0.0573 -0.0151
 1159ERGO    R315662   6.324  15.815   9.490 -0.1139 -0.0064 -0.0606
 1159ERGO    R415663   6.246  16.013   9.287 -0.1343  0.0262 -0.0156
 1159ERGO    R515664   6.173  15.808   9.304 -0.2575  0.0774  0.0536
 1159ERGO    C115665   6.320  15.797   8.952 -0.5286 -0.0517 -0.0587
 1159ERGO    C215666   6.358  15.916   8.654 -0.1206 -0.2349  0.1031
 1160ERGO   ROH15667  15.345  14.840   9.721 -0.1196  0.4593 -0.0624
 1160ERGO    R115668  15.401  14.973   9.478 -0.1188  0.3443 -0.1260
 1160ERGO    R215669  15.520  14.847   9.263  0.0498  0.2884 -0.0026
 1160ERGO    R315670  15.303  14.938   9.129  0.0353  0.0556 -0.1434
 1160ERGO    R415671  15.494  14.862   8.919  0.2623  0.2806 -0.0208
 1160ERGO    R515672  15.394  15.055   8.941  0.0321  0.1700 -0.0734
 1160ERGO    C115673  15.274  14.957   8.593  0.3723  0.0574 -0.1637
 1160ERGO    C215674  15.329  14.925   8.312 -0.2726 -0.0251  0.3752
 1161ERGO   ROH15675   9.092   0.833   9.484 -0.0581 -0.1145 -0.0520
 1161ERGO    R115676   9.095   0.959   9.230 -0.0605 -0.0663 -0.0280
 1161ERGO    R215677   9.213   0.845   9.008 -0.0782 -0.0331 -0.0554
 1161ERGO    R315678   8.969   0.885   8.897 -0.0814  0.0058 -0.0357
 1161ERGO    R415679   9.146   0.835   8.669 -0.0935  0.0832 -0.0566
 1161ERGO    R515680   9.015   1.006   8.695 -0.0904  0.0733  0.0044
 1161ERGO    C115681   8.878   0.867   8.367 -0.1052  0.1874 -0.0388
 1161ERGO    C215682   8.700   0.745   8.107 -0.1786  0.0090  0.0672
 1162ERGO   ROH15683  15.537  16.578   6.569  0.1465  0.0860  0.0378
 1162ERGO    R115684  15.514  16.626   6.847  0.0873  0.1196  0.0284
 1162ERGO    R215685  15.721  16.733   6.997  0.0834  0.0733  0.0757
 1162ERGO    R315686  15.532  16.915   7.068  0.1177  0.1365  0.0016
 1162ERGO    R415687  15.678  16.861   7.315 -0.1159 -0.0399  0.0951
 1162ERGO    R515688  15.463  16.848   7.287 -0.0959  0.0801 -0.0849
 1162ERGO    C115689  15.475  17.107   7.566 -0.1998 -0.0464  0.0368
 1162ERGO    C215690  15.236  17.375   7.666  0.2943 -0.1772  0.1487
 1163ERGO   ROH15691   9.417  12.260   6.254  0.2508 -0.0873 -0.1739
 1163ERGO    R115692   9.603  12.221   6.464  0.1688 -0.0169 -0.0871
 1163ERGO    R215693   9.747  12.428   6.575 -0.0193  0.0518  0.0366
 1163ERGO    R315694   9.641  12.335   6.807 -0.0814 -0.0699 -0.0398
 1163ERGO    R415695   9.865  12.505   6.891 -0.1658 -0.0349  0.1133
 1163ERGO    R515696   9.831  12.297   6.949 -0.1258 -0.0669  0.0198
 1163ERGO    C115697   9.834  12.462   7.293 -0.3095 -0.1994  0.0862
 1163ERGO    C215698  10.008  12.517   7.559 -0.2532  0.1103 -0.1942
 1164ERGO   ROH15699   6.443  10.037   6.538 -0.2845  0.0245  0.0433
 1164ERGO    R115700   6.496   9.973   6.808 -0.4136 -0.1831  0.0227
 1164ERGO    R215701   6.639  10.141   6.976  0.0413 -0.5705  0.0563
 1164ERGO    R315702   6.419  10.116   7.134 -0.0236 -0.0569  0.0624
 1164ERGO    R415703   6.638  10.173   7.320  0.0632 -0.3749  0.0389
 1164ERGO    R515704   6.500  10.005   7.330 -0.2596 -0.1002  0.1295
 1164ERGO    C115705   6.432  10.168   7.669  0.0152  0.2212  0.0344
 1164ERGO    C215706   6.287  10.251   7.947 -0.0231  0.1981  0.0831
 1165ERGO   ROH15707   4.359  10.324   6.492  0.1651 -0.3881  0.1212
 1165ERGO    R115708   4.495  10.461   6.700  0.0109 -0.3139  0.1749
 1165ERGO    R215709   4.543  10.733   6.693  0.1544 -0.3422  0.0352
 1165ERGO    R315710   4.419  10.728   6.935 -0.1098 -0.1103 -0.0891
 1165ERGO    R415711   4.582  10.970   6.941  0.2607 -0.3492  0.0256
 1165ERGO    R515712   4.583  10.810   7.088 -0.1357 -0.3294  0.0639
 1165ERGO    C115713   4.489  11.104   7.312  0.0745 -0.1356 -0.0968
 1165ERGO    C215714   4.334  11.268   7.518 -0.2649  0.0707 -0.1144
 1166ERGO   ROH15715   9.938   9.056   9.575  0.1495 -0.0050 -0.0222
 1166ERGO    R115716   9.918   9.157   9.312 -0.0205 -0.0064 -0.0089
 1166ERGO    R215717  10.107   9.104   9.117 -0.0821  0.1021 -0.0876
 1166ERGO    R315718   9.890   9.018   8.976 -0.0959 -0.0045 -0.0060
 1166ERGO    R415719  10.097   9.066   8.774 -0.1741  0.0809 -0.0841
 1166ERGO    R515720   9.895   9.148   8.775 -0.2187 -0.0062 -0.0178
 1166ERGO    C115721   9.888   8.963   8.442 -0.2406 -0.0316 -0.0057
 1166ERGO    C215722   9.828   8.812   8.090 -0.0088 -0.2288 -0.2195
 1167ERGO   ROH15723   4.328  10.304  10.044  0.0680  0.0744 -0.0818
 1167ERGO    R115724   4.371  10.107   9.846 -0.0004  0.0785 -0.1001
 1167ERGO    R215725   4.196  10.067   9.635 -0.0266  0.1418 -0.0870
 1167ERGO    R315726   4.420  10.102   9.485 -0.0301  0.0910 -0.1053
 1167ERGO    R415727   4.206  10.060   9.290 -0.0731  0.1984 -0.0900
 1167ERGO    R515728   4.394   9.949   9.303 -0.1065  0.1294 -0.1298
 1167ERGO    C115729   4.422  10.087   8.948 -0.1036  0.1837 -0.1092
 1167ERGO    C215730   4.457  10.003   8.606  0.0178  0.0447  0.1486
 1168ERGO   ROH15731   9.930  14.217  10.297 -0.1152 -0.0321 -0.0423
 1168ERGO    R115732   9.787  14.274  10.059 -0.0463 -0.0458 -0.0878
 1168ERGO    R215733   9.875  14.460   9.874 -0.0207 -0.0147 -0.0477
 1168ERGO    R315734   9.850  14.252   9.701  0.0816 -0.0099 -0.0678
 1168ERGO    R415735   9.893  14.485   9.529 -0.0697  0.0321 -0.0466
 1168ERGO    R515736   9.730  14.342   9.515  0.0115 -0.0597 -0.0453
 1168ERGO    C115737   9.881  14.303   9.167 -0.0024  0.0639 -0.0648
 1168ERGO    C215738   9.898  14.383   8.767 -0.1855  0.2036 -0.0664
 1169ERGO   ROH15739  10.951  10.361   6.186 -0.0016  0.0496 -0.1248
 1169ERGO    R115740  10.908  10.345   6.465 -0.1295 -0.1073 -0.1529
 1169ERGO    R215741  11.058  10.488   6.647 -0.1648 -0.2655 -0.0003
 1169ERGO    R315742  10.814  10.574   6.732 -0.1752 -0.2407 -0.0526
 1169ERGO    R415743  10.989  10.605   6.965 -0.1747 -0.0679 -0.0725
 1169ERGO    R515744  10.799  10.497   6.958 -0.1624 -0.0974 -0.0009
 1169ERGO    C115745  10.720  10.753   7.230 -0.1902  0.0704 -0.1636
 1169ERGO    C215746  10.789  10.929   7.466  0.2463  0.2076  0.3129
 1170ERGO   ROH15747  17.156  15.472   9.953  0.2602 -0.0080 -0.1548
 1170ERGO    R115748  17.179  15.393   9.682  0.0854  0.0289 -0.1815
 1170ERGO    R215749  16.971  15.417   9.502  0.0339  0.2488 -0.0954
 1170ERGO    R315750  17.155  15.554   9.357  0.0976  0.1196 -0.1384
 1170ERGO    R415751  17.059  15.345   9.175  0.1208  0.0025 -0.0206
 1170ERGO    R515752  17.266  15.386   9.227  0.1124  0.0091  0.0132
 1170ERGO    C115753  17.283  15.433   8.849  0.2311 -0.2620 -0.0173
 1170ERGO    C215754  17.311  15.396   8.510  0.0949  0.2817 -0.0389
 1171ERGO   ROH15755  10.884  15.384  10.383 -0.2780 -0.2123  0.1122
 1171ERGO    R115756  10.755  15.407  10.132 -0.1218 -0.0449  0.0461
 1171ERGO    R215757  10.807  15.614   9.956  0.1530 -0.0510  0.1218
 1171ERGO    R315758  10.856  15.411   9.782  0.0713 -0.0532  0.0995
 1171ERGO    R415759  10.767  15.633   9.613  0.3227  0.0638  0.1063
 1171ERGO    R515760  10.685  15.432   9.617  0.1585  0.1236  0.0245
 1171ERGO    C115761  10.790  15.453   9.251  0.3451  0.1287  0.0762
 1171ERGO    C215762  10.844  15.538   8.866 -0.1569  0.0484  0.1107
 1172ERGO   ROH15763   4.865   6.339   6.289 -0.2272  0.1119 -0.0015
 1172ERGO    R115764   4.909   6.412   6.559 -0.2820  0.2125 -0.0198
 1172ERGO    R215765   4.705   6.423   6.745 -0.2554 -0.1280  0.0289
 1172ERGO    R315766   4.867   6.255   6.885  0.0763  0.1639  0.0075
 1172ERGO    R415767   4.709   6.393   7.089 -0.2985 -0.2467  0.0203
 1172ERGO    R515768   4.927   6.380   7.080 -0.2513  0.2298  0.0749
 1172ERGO    C115769   4.865   6.219   7.421 -0.0122 -0.0417 -0.0048
 1172ERGO    C215770   4.670   6.182   7.692 -0.0442  0.2973  0.4006
 1173ERGO   ROH15771  14.769  17.286   6.404 -0.0271  0.0115  0.0295
 1173ERGO    R115772  14.624  17.333   6.642  0.0350  0.0326  0.0645
 1173ERGO    R215773  14.534  17.129   6.805  0.0387  0.0416  0.0879
 1173ERGO    R315774  14.669  17.266   6.997  0.1101  0.0207  0.0510
 1173ERGO    R415775  14.472  17.107   7.144  0.1244  0.0717  0.1048
 1173ERGO    R515776  14.503  17.322   7.159  0.1685  0.0599  0.0905
 1173ERGO    C115777  14.564  17.222   7.522  0.2414  0.0699  0.0799
 1173ERGO    C215778  14.778  17.090   7.813 -0.2697 -0.0502 -0.0553
 1174ERGO   ROH15779  10.390  12.989   9.778  0.3192 -0.0874  0.0243
 1174ERGO    R115780  10.447  12.977   9.501  0.0665 -0.3005 -0.0236
 1174ERGO    R215781  10.270  12.870   9.317 -0.3279  0.0064  0.1502
 1174ERGO    R315782  10.301  13.111   9.195  0.0860 -0.0857  0.0625
 1174ERGO    R415783  10.243  12.924   8.977 -0.1844 -0.0586  0.1287
 1174ERGO    R515784  10.413  13.059   8.990  0.0322 -0.3353  0.1010
 1174ERGO    C115785  10.257  13.181   8.664  0.2876 -0.1827  0.0338
 1174ERGO    C215786  10.314  13.236   8.375  0.0425 -0.1305  0.1392
 1175ERGO   ROH15787   3.140  17.474   8.027 -0.0483  0.0820 -0.0586
 1175ERGO    R115788   3.405  17.492   8.124 -0.0930  0.1764  0.0538
 1175ERGO    R215789   3.626  17.428   7.970 -0.0174 -0.2011  0.2823
 1175ERGO    R315790   3.706  17.678   8.039  0.0093 -0.0840 -0.1518
 1175ERGO    R415791   3.951  17.542   7.954  0.0012 -0.2706  0.1874
 1175ERGO    R515792   3.919  17.646   8.143 -0.0395  0.0819 -0.0207
 1175ERGO    C115793   4.216  17.844   8.010  0.0372 -0.2013 -0.2755
 1175ERGO    C215794   4.468  17.887   7.895 -0.1815 -0.3578 -0.0907
 1176ERGO   ROH15795   4.924  14.993   6.179  0.1689 -0.2427  0.0896
 1176ERGO    R115796   4.910  15.162   6.405  0.1419 -0.1256  0.0015
 1176ERGO    R215797   4.674  15.207   6.543  0.1224 -0.0327 -0.0665
 1176ERGO    R315798   4.821  15.127   6.756  0.0717  0.0641  0.0056
 1176ERGO    R415799   4.622  15.310   6.868 -0.1061 -0.0509 -0.0963
 1176ERGO    R515800   4.838  15.322   6.894 -0.1197  0.0850  0.0074
 1176ERGO    C115801   4.729  15.294   7.259 -0.2867  0.0293 -0.0461
 1176ERGO    C215802   4.875  15.180   7.590  0.0883  0.0772 -0.1647
 1177ERGO   ROH15803  10.065   4.407   9.575 -0.0366 -0.0932 -0.0713
 1177ERGO    R115804   9.936   4.438   9.325  0.0302 -0.0570 -0.1021
 1177ERGO    R215805  10.030   4.609   9.129  0.0694 -0.0096 -0.0447
 1177ERGO    R315806  10.022   4.386   8.975  0.1340  0.0186 -0.0878
 1177ERGO    R415807  10.090   4.603   8.789  0.0021  0.0843 -0.0583
 1177ERGO    R515808   9.926   4.460   8.768  0.0599  0.0185 -0.0527
 1177ERGO    C115809  10.117   4.389   8.446  0.0233  0.1654 -0.1066
 1177ERGO    C215810  10.098   4.448   8.145  0.0029  0.0518  0.2056
 1178ERGO   ROH15811   9.292  16.703  10.016 -0.1460 -0.0111  0.0475
 1178ERGO    R115812   9.233  16.586   9.765 -0.1771 -0.0169  0.0569
 1178ERGO    R215813   8.988  16.618   9.640 -0.1419  0.1071  0.0139
 1178ERGO    R315814   9.142  16.704   9.433 -0.0580 -0.0150  0.0256
 1178ERGO    R415815   8.934  16.541   9.307 -0.0214 -0.0602  0.0321
 1178ERGO    R515816   9.149  16.518   9.283 -0.0165 -0.0921  0.1241
 1178ERGO    C115817   9.048  16.577   8.920  0.1275 -0.2722  0.0536
 1178ERGO    C215818   9.072  16.625   8.606  0.0187  0.0790 -0.2094
 1179ERGO   ROH15819   1.187   2.676   6.722 -0.1409  0.1426  0.2825
 1179ERGO    R115820   1.066   2.453   6.847 -0.0635 -0.0360  0.0450
 1179ERGO    R215821   1.015   2.217   6.712  0.0936  0.0589 -0.1873
 1179ERGO    R315822   1.157   2.108   6.916  0.0921 -0.0569 -0.2474
 1179ERGO    R415823   0.912   1.947   6.901 -0.0658  0.1675 -0.1158
 1179ERGO    R515824   0.992   2.047   7.078  0.1130  0.1097 -0.1617
 1179ERGO    C115825   0.986   1.686   7.203 -0.1600  0.1220 -0.1305
 1179ERGO    C215826   0.814   1.290   7.259 -0.3229 -0.0713  0.3366
 1180ERGO   ROH15827   6.689  13.135   9.897  0.0139 -0.0273  0.0977
 1180ERGO    R115828   6.772  13.024   9.650 -0.1138 -0.1126  0.0920
 1180ERGO    R215829   6.594  12.954   9.451 -0.2028  0.0356  0.1151
 1180ERGO    R315830   6.751  13.115   9.298 -0.0768 -0.1070  0.0919
 1180ERGO    R415831   6.636  12.922   9.110 -0.3202  0.0340  0.1005
 1180ERGO    R515832   6.848  12.967   9.137 -0.2678 -0.1853  0.0500
 1180ERGO    C115833   6.808  13.054   8.767 -0.2703 -0.1007  0.0701
 1180ERGO    C215834   6.762  13.058   8.349 -0.0289  0.2082 -0.4292
 1181ERGO   ROH15835  18.124  15.843  10.086  0.2754  0.3052 -0.0142
 1181ERGO    R115836  18.030  15.903   9.826  0.2081  0.0715 -0.0480
 1181ERGO    R215837  18.142  16.102   9.669 -0.0255  0.1444 -0.1401
 1181ERGO    R315838  18.167  15.901   9.488  0.2282  0.0813 -0.0376
 1181ERGO    R415839  18.104  16.137   9.328 -0.2868 -0.1292 -0.1420
 1181ERGO    R515840  17.999  15.947   9.325  0.0517 -0.3188  0.0286
 1181ERGO    C115841  18.105  15.968   8.959 -0.2005 -0.3477 -0.0468
 1181ERGO    C215842  18.165  15.902   8.636 -0.3564 -0.3342 -0.1128
 1182ERGO   ROH15843  16.543   2.206  10.256  0.1152  0.1347  0.2003
 1182ERGO    R115844  16.415   2.264  10.011 -0.0361 -0.0912  0.2221
 1182ERGO    R215845  16.465   2.495   9.867 -0.3002 -0.1067  0.0954
 1182ERGO    R315846  16.517   2.320   9.666 -0.2212 -0.1534  0.1559
 1182ERGO    R415847  16.469   2.576   9.531 -0.1655 -0.1865  0.0770
 1182ERGO    R515848  16.369   2.387   9.490 -0.1498 -0.1941  0.0812
 1182ERGO    C115849  16.520   2.458   9.147 -0.0129 -0.2768  0.1231
 1182ERGO    C215850  16.559   2.438   8.733 -0.0224  0.1147  0.1763
 1183ERGO   ROH15851  10.874  10.709   9.373 -0.0095 -0.1976  0.0568
 1183ERGO    R115852  10.931  10.820   9.118 -0.1124 -0.0938  0.0786
 1183ERGO    R215853  11.133  10.724   8.956 -0.0935  0.0569  0.0138
 1183ERGO    R315854  10.932  10.703   8.774 -0.1157  0.0081  0.0431
 1183ERGO    R415855  11.160  10.802   8.620 -0.1622  0.0740  0.0117
 1183ERGO    R515856  10.962  10.891   8.630 -0.1862  0.0216  0.0439
 1183ERGO    C115857  10.987  10.828   8.254 -0.2231  0.0381  0.0381
 1183ERGO    C215858  11.154  10.948   7.916  0.0013 -0.0791 -0.1538
 1184ERGO   ROH15859   2.397  10.133  10.192 -0.0978 -0.1611  0.0906
 1184ERGO    R115860   2.444  10.210   9.923 -0.0137 -0.0583  0.1342
 1184ERGO    R215861   2.679  10.151   9.790  0.0251 -0.0141  0.1819
 1184ERGO    R315862   2.510  10.042   9.608  0.0765  0.0619  0.0881
 1184ERGO    R415863   2.724  10.162   9.448  0.1260  0.1196  0.1987
 1184ERGO    R515864   2.510  10.197   9.426  0.1339  0.1333  0.1493
 1184ERGO    C115865   2.591  10.066   9.077  0.2330  0.2689  0.1203
 1184ERGO    C215866   2.514   9.988   8.719 -0.0715  0.2047 -0.1222
 1185ERGO   ROH15867  17.662   0.088   6.549 -0.0742 -0.1916 -0.0271
 1185ERGO    R115868  17.522  -0.117   6.684 -0.0874 -0.0635  0.1584
 1185ERGO    R215869  17.548  -0.162   6.956 -0.0095  0.1104  0.1823
 1185ERGO    R315870  17.277  -0.138   6.953 -0.0035  0.1851  0.2557
 1185ERGO    R415871  17.329  -0.366   7.129 -0.0300  0.0398  0.0731
 1185ERGO    R515872  17.197  -0.363   6.956 -0.0641  0.2052  0.1026
 1185ERGO    C115873  16.947  -0.462   7.227 -0.0363  0.0685  0.0784
 1185ERGO    C215874  16.689  -0.666   7.287  0.0690 -0.0132 -0.1951
 1186ERGO   ROH15875  10.063   6.209   9.750 -0.0954  0.1736 -0.0513
 1186ERGO    R115876  10.001   5.995   9.576 -0.0285  0.1295 -0.0200
 1186ERGO    R215877   9.771   5.990   9.423 -0.0639 -0.0020  0.0456
 1186ERGO    R315878   9.947   5.952   9.219 -0.1024  0.0740 -0.0042
 1186ERGO    R415879   9.684   5.946   9.091 -0.1454  0.0349  0.0609
 1186ERGO    R515880   9.839   5.794   9.075 -0.1083  0.0690 -0.0027
 1186ERGO    C115881   9.799   5.884   8.707 -0.2291  0.1275  0.0232
 1186ERGO    C215882   9.774   5.769   8.334  0.1855  0.0779  0.0005
 1187ERGO   ROH15883  12.092   1.298   6.192 -0.0553  0.0755 -0.1547
 1187ERGO    R115884  12.145   1.316   6.470 -0.1801  0.0260 -0.1274
 1187ERGO    R215885  12.337   1.486   6.574 -0.1007 -0.1258 -0.0281
 1187ERGO    R315886  12.129   1.574   6.726 -0.1083  0.0315 -0.1270
 1187ERGO    R415887  12.366   1.700   6.844 -0.0517 -0.1971  0.0236
 1187ERGO    R515888  12.216   1.580   6.949 -0.2186 -0.0866 -0.0763
 1187ERGO    C115889  12.188   1.907   7.144 -0.0304 -0.0909 -0.0391
 1187ERGO    C215890  12.180   2.132   7.347  0.0667  0.2053 -0.0165
 1188ERGO   ROH15891  11.971   2.326   5.984  0.0970 -0.2512 -0.2335
 1188ERGO    R115892  11.971   2.542   6.167 -0.0051 -0.2085 -0.2836
 1188ERGO    R215893  11.984   2.504   6.441 -0.0213 -0.1394 -0.2774
 1188ERGO    R315894  12.196   2.673   6.421 -0.0839 -0.0605 -0.2866
 1188ERGO    R415895  12.119   2.683   6.704  0.0236 -0.2281 -0.2394
 1188ERGO    R515896  12.143   2.853   6.570 -0.0881 -0.1496 -0.1716
 1188ERGO    C115897  12.397   2.945   6.839 -0.0090 -0.2057 -0.2260
 1188ERGO    C215898  12.626   2.941   7.140  0.1608 -0.0608  0.0328
 1189ERGO   ROH15899   0.345  12.671   9.929  0.1879 -0.2641  0.0305
 1189ERGO    R115900   0.453  12.577   9.684  0.1770  0.0360 -0.0926
 1189ERGO    R215901   0.311  12.413   9.512  0.3135 -0.0820 -0.0878
 1189ERGO    R315902   0.371  12.607   9.331 -0.0936  0.1139 -0.0272
 1189ERGO    R415903   0.223  12.406   9.178  0.1063 -0.0361 -0.0364
 1189ERGO    R515904   0.419  12.487   9.129 -0.0396  0.2892 -0.1234
 1189ERGO    C115905   0.227  12.584   8.814 -0.3967  0.1744  0.0506
 1189ERGO    C215906   0.238  12.574   8.423  0.0052 -0.2202 -0.4260
 1190ERGO   ROH15907  17.979   6.213   6.554  0.4494 -0.1819  0.0458
 1190ERGO    R115908  18.034   6.396   6.763  0.1562 -0.0872  0.0453
 1190ERGO    R215909  17.845   6.572   6.861 -0.0909 -0.2905 -0.0494
 1190ERGO    R315910  17.910   6.459   7.099 -0.0507 -0.1880 -0.0117
 1190ERGO    R415911  17.795   6.720   7.169  0.0057 -0.1436 -0.1034
 1190ERGO    R515912  17.989   6.642   7.232  0.0071 -0.1406 -0.1140
 1190ERGO    C115913  17.827   6.700   7.573  0.1002  0.0381 -0.0994
 1190ERGO    C215914  17.571   6.696   7.797 -0.1218  0.0254 -0.1410
 1191ERGO   ROH15915   3.388   9.664  10.064 -0.1937 -0.2900  0.0772
 1191ERGO    R115916   3.462   9.675   9.791 -0.0447 -0.1003  0.1231
 1191ERGO    R215917   3.487   9.448   9.634 -0.1342  0.0208 -0.0647
 1191ERGO    R315918   3.313   9.581   9.472  0.0487  0.2949 -0.0447
 1191ERGO    R415919   3.499   9.447   9.289 -0.2966 -0.1905 -0.0720
 1191ERGO    R515920   3.449   9.659   9.291  0.1336 -0.0736 -0.1535
 1191ERGO    C115921   3.344   9.570   8.936 -0.2195 -0.0562 -0.0574
 1191ERGO    C215922   3.376   9.587   8.594  0.1818 -0.0361  0.0989
 1192ERGO   ROH15923  10.298  12.650   6.330 -0.1004 -0.1436 -0.0303
 1192ERGO    R115924  10.207  12.548   6.579 -0.1251  0.1056  0.0654
 1192ERGO    R215925  10.292  12.306   6.681 -0.4548  0.0061  0.1175
 1192ERGO    R315926  10.357  12.457   6.897 -0.0879 -0.0006  0.0176
 1192ERGO    R415927  10.419  12.182   6.977 -0.5846 -0.0875  0.1346
 1192ERGO    R515928  10.293  12.323   7.085 -0.2814  0.2155  0.1092
 1192ERGO    C115929  10.555  12.252   7.353 -0.3158 -0.1482  0.0509
 1192ERGO    C215930  10.767  12.154   7.607 -0.0527 -0.0239 -0.0906
 1193ERGO   ROH15931  11.572   7.327   9.530 -0.0488  0.0959  0.0592
 1193ERGO    R115932  11.616   7.409   9.262 -0.2200  0.3483  0.1050
 1193ERGO    R215933  11.673   7.230   9.059  0.3079  0.5866  0.0257
 1193ERGO    R315934  11.460   7.349   8.939 -0.0099  0.0736  0.0514
 1193ERGO    R415935  11.631   7.259   8.718  0.1288  0.3868  0.0287
 1193ERGO    R515936  11.554   7.461   8.749 -0.3208  0.2334 -0.0141
 1193ERGO    C115937  11.406   7.387   8.406 -0.2739 -0.2111  0.0546
 1193ERGO    C215938  11.238   7.351   8.103  0.0391 -0.0391  0.1392
 1194ERGO   ROH15939  11.150   9.294   6.080  0.1090 -0.0270  0.0235
 1194ERGO    R115940  11.294   9.350   6.318  0.0665 -0.0009  0.0437
 1194ERGO    R215941  11.444   9.580   6.350  0.1104 -0.0253  0.0219
 1194ERGO    R315942  11.292   9.608   6.574  0.0637  0.0628 -0.0206
 1194ERGO    R415943  11.567   9.646   6.666  0.0513  0.0026  0.0391
 1194ERGO    R515944  11.422   9.506   6.747 -0.0082  0.0607  0.0318
 1194ERGO    C115945  11.497   9.712   7.060 -0.0270  0.1014  0.0092
 1194ERGO    C215946  11.761   9.878   7.270 -0.3818  0.0899 -0.2425
 1195ERGO   ROH15947   8.470  17.570   9.862 -0.0270 -0.0981  0.2164
 1195ERGO    R115948   8.544  17.422   9.633 -0.1568 -0.0027  0.1124
 1195ERGO    R215949   8.361  17.347   9.439 -0.2260  0.2737  0.0715
 1195ERGO    R315950   8.536  17.471   9.272 -0.1355  0.2461  0.1434
 1195ERGO    R415951   8.404  17.271   9.105 -0.1560  0.3149  0.0701
 1195ERGO    R515952   8.618  17.297   9.131 -0.1519  0.2400  0.1376
 1195ERGO    C115953   8.593  17.344   8.753 -0.0302  0.3129  0.1368
 1195ERGO    C215954   8.499  17.453   8.393 -0.2084  0.1765 -0.3614
 1196ERGO   ROH15955   7.646  10.414  10.004  0.0451  0.0096  0.0532
 1196ERGO    R115956   7.705  10.290   9.756  0.0482 -0.0610  0.0893
 1196ERGO    R215957   7.513  10.248   9.562  0.0369 -0.1736  0.1235
 1196ERGO    R315958   7.691  10.381   9.404 -0.0116 -0.1845  0.0591
 1196ERGO    R415959   7.530  10.222   9.217  0.0086 -0.2883  0.1303
 1196ERGO    R515960   7.748  10.224   9.233  0.0095 -0.2297  0.1078
 1196ERGO    C115961   7.707  10.332   8.869 -0.0533 -0.3653  0.0738
 1196ERGO    C215962   7.611  10.401   8.544  0.0468 -0.0790  0.1422
 1197ERGO   ROH15963   5.530  11.337   6.170 -0.0550  0.1577 -0.1040
 1197ERGO    R115964   5.434  11.229   6.414  0.1125 -0.1015 -0.1490
 1197ERGO    R215965   5.602  11.157   6.620  0.2259  0.1764 -0.1435
 1197ERGO    R315966   5.442  11.323   6.765 -0.1359 -0.1746 -0.1212
 1197ERGO    R415967   5.596  11.173   6.966  0.3479  0.2575 -0.1440
 1197ERGO    R515968   5.379  11.192   6.956  0.2785 -0.2923 -0.0524
 1197ERGO    C115969   5.444  11.337   7.303  0.0793 -0.0245 -0.1234
 1197ERGO    C215970   5.448  11.649   7.503 -0.1696 -0.1230  0.1641
 1198ERGO   ROH15971   8.516  13.640   6.336 -0.3068 -0.3235  0.2228
 1198ERGO    R115972   8.550  13.570   6.608 -0.1496 -0.0704  0.2711
 1198ERGO    R215973   8.794  13.491   6.712 -0.1251 -0.1266  0.1651
 1198ERGO    R315974   8.746  13.692   6.890  0.1456  0.0864  0.0057
 1198ERGO    R415975   8.972  13.542   7.004 -0.1301 -0.2198  0.1847
 1198ERGO    R515976   8.784  13.591   7.104 -0.0923  0.1673  0.0924
 1198ERGO    C115977   9.031  13.759   7.341  0.1210 -0.0742  0.0465
 1198ERGO    C215978   9.079  13.917   7.578 -0.0862  0.1754 -0.1531
 1199ERGO   ROH15979   4.343   5.383   6.330 -0.0510 -0.0366 -0.1589
 1199ERGO    R115980   4.369   5.347   6.609  0.1188 -0.0710 -0.1785
 1199ERGO    R215981   4.563   5.476   6.758  0.0607  0.0935 -0.2458
 1199ERGO    R315982   4.350   5.557   6.906  0.0469 -0.1535 -0.1239
 1199ERGO    R415983   4.558   5.492   7.103  0.3290  0.3118 -0.2483
 1199ERGO    R515984   4.354   5.414   7.099  0.4425 -0.0267 -0.0268
 1199ERGO    C115985   4.355   5.577   7.443  0.4723  0.2070 -0.1353
 1199ERGO    C215986   4.465   5.639   7.811  0.1306  0.0470  0.1002
 1200ERGO   ROH15987  14.374  12.212   6.801  0.0829 -0.0486  0.1594
 1200ERGO    R115988  14.289  12.325   7.045 -0.0037  0.0076  0.1036
 1200ERGO    R215989  14.226  12.593   7.071  0.0458  0.0268  0.0349
 1200ERGO    R315990  13.991  12.495   7.168 -0.0217  0.0947 -0.0587
 1200ERGO    R415991  14.037  12.743   7.319  0.0850 -0.0167  0.0916
 1200ERGO    R515992  13.998  12.545   7.402 -0.0329 -0.0447 -0.0286
 1200ERGO    C115993  13.706  12.739   7.554  0.0445  0.0218  0.0368
 1200ERGO    C215994  13.466  12.802   7.844 -0.1267 -0.1019 -0.1772
 1201ERGO   ROH15995  10.916  14.394  10.233 -0.0070  0.0769  0.1027
 1201ERGO    R115996  10.786  14.315   9.994  0.0724  0.0112  0.0806
 1201ERGO    R215997  10.725  14.494   9.793 -0.1299  0.0141  0.1405
 1201ERGO    R315998  10.862  14.317   9.638  0.0646  0.2136  0.0797
 1201ERGO    R415999  10.692  14.466   9.450 -0.1929 -0.0017  0.1472
 1201ERGO    R516000  10.704  14.249   9.472  0.1089  0.0113  0.1223
 1201ERGO    C116001  10.802  14.283   9.105 -0.0469  0.1763  0.0940
 1201ERGO    C216002  10.792  14.479   8.735  0.1033  0.1916 -0.3457
 1202ERGO   ROH16003  10.817   0.107   6.656 -0.1738  0.1538  0.0634
 1202ERGO    R116004  10.775   0.266   6.886  0.0387  0.1005  0.1400
 1202ERGO    R216005  10.586   0.205   7.078  0.0461  0.1921  0.1699
 1202ERGO    R316006  10.798   0.222   7.247  0.1118 -0.0593  0.1180
 1202ERGO    R416007  10.566   0.281   7.415  0.2170  0.3510  0.1464
 1202ERGO    R516008  10.744   0.403   7.393  0.4035  0.0845  0.0614
 1202ERGO    C116009  10.754   0.341   7.769  0.3782  0.2075  0.0839
 1202ERGO    C216010  10.645   0.508   8.058 -0.0826  0.2481 -0.0566
 1203ERGO   ROH16011  14.679   6.136  10.202  0.0907  0.1156  0.1061
 1203ERGO    R116012  14.612   6.250   9.951  0.0345  0.0206  0.0776
 1203ERGO    R216013  14.803   6.311   9.761  0.0129  0.1459  0.0982
 1203ERGO    R316014  14.647   6.157   9.601  0.1639 -0.0086  0.0970
 1203ERGO    R416015  14.794   6.330   9.416  0.0097  0.1291  0.0971
 1203ERGO    R516016  14.578   6.304   9.425  0.0308 -0.0760  0.0898
 1203ERGO    C116017  14.643   6.196   9.065  0.1497 -0.0258  0.0953
 1203ERGO    C216018  14.784   6.203   8.744 -0.0464  0.2669  0.1848
 1204ERGO   ROH16019   5.799  15.395   6.634 -0.2011  0.0463 -0.1415
 1204ERGO    R116020   5.871  15.283   6.884  0.0368 -0.0074 -0.2313
 1204ERGO    R216021   5.750  15.359   7.121  0.3002 -0.0151 -0.0894
 1204ERGO    R316022   5.706  15.092   7.146  0.2655 -0.0086 -0.0857
 1204ERGO    R416023   5.839  15.167   7.395  0.1194  0.0076 -0.0140
 1204ERGO    R516024   5.900  15.009   7.259  0.1899 -0.0114  0.0413
 1204ERGO    C116025   5.849  14.806   7.578 -0.0184  0.0270  0.0333
 1204ERGO    C216026   5.963  14.707   7.805 -0.2189  0.0593 -0.1196
 1205ERGO   ROH16027  15.164   1.203   6.718 -0.1194  0.1382 -0.0673
 1205ERGO    R116028  14.979   1.180   6.931 -0.0779  0.0870 -0.0350
 1205ERGO    R216029  15.014   1.003   7.139 -0.0821 -0.0319 -0.1260
 1205ERGO    R316030  14.984   1.226   7.292  0.0240 -0.0949 -0.0138
 1205ERGO    R416031  14.881   1.006   7.459 -0.2341 -0.0966 -0.1883
 1205ERGO    R516032  14.776   1.191   7.407 -0.0566  0.0134 -0.1342
 1205ERGO    C116033  14.776   1.218   7.788 -0.2229 -0.1934 -0.1193
 1205ERGO    C216034  14.561   1.003   8.090  0.1852  0.1709  0.1089
 1206ERGO   ROH16035   9.468   5.491   6.304  0.1046 -0.1727  0.0033
 1206ERGO    R116036   9.497   5.454   6.583  0.0390 -0.1034  0.0203
 1206ERGO    R216037   9.546   5.663   6.757  0.0359 -0.0641 -0.0234
 1206ERGO    R316038   9.326   5.566   6.884 -0.0075  0.0053 -0.0460
 1206ERGO    R416039   9.514   5.631   7.100 -0.0889  0.1427 -0.0146
 1206ERGO    R516040   9.415   5.440   7.068 -0.0700  0.1194  0.0640
 1206ERGO    C116041   9.290   5.521   7.419 -0.2024  0.3283 -0.0307
 1206ERGO    C216042   9.170   5.672   7.747 -0.0619 -0.1959  0.1885
 1207ERGO   ROH16043  10.310  16.322  10.303  0.2530  0.2649  0.0823
 1207ERGO    R116044  10.430  16.373  10.052  0.2766  0.0585  0.0471
 1207ERGO    R216045  10.505  16.172   9.879  0.0349 -0.0845  0.0882
 1207ERGO    R316046  10.351  16.310   9.702  0.1519  0.0355  0.0819
 1207ERGO    R416047  10.494  16.113   9.538  0.0286 -0.0318  0.0809
 1207ERGO    R516048  10.487  16.328   9.506  0.1781 -0.0334  0.1026
 1207ERGO    C116049  10.342  16.208   9.175  0.1348  0.1119  0.0710
 1207ERGO    C216050  10.398  16.287   8.833  0.0467 -0.0673 -0.1934
 1208ERGO   ROH16051   9.763  11.185   6.050  0.2239 -0.2345 -0.0108
 1208ERGO    R116052   9.887  11.202   6.304  0.1657 -0.2680  0.0230
 1208ERGO    R216053   9.836  11.408   6.482  0.3561 -0.1121 -0.0790
 1208ERGO    R316054   9.779  11.203   6.651  0.0468  0.0245 -0.0161
 1208ERGO    R416055   9.820  11.432   6.826  0.3110  0.0114 -0.0916
 1208ERGO    R516056   9.919  11.240   6.841  0.0460 -0.1073 -0.0020
 1208ERGO    C116057   9.757  11.254   7.185 -0.0056  0.2116 -0.0399
 1208ERGO    C216058   9.696  11.212   7.517  0.4402  0.2746  0.0685
 1209ERGO   ROH16059  17.566   3.640   6.573 -0.0371 -0.0540  0.1217
 1209ERGO    R116060  17.633   3.804   6.795 -0.0108 -0.0020  0.0768
 1209ERGO    R216061  17.520   3.768   7.045  0.0093  0.0611  0.1023
 1209ERGO    R316062  17.780   3.755   7.124  0.0180  0.0678  0.0718
 1209ERGO    R416063  17.631   3.822   7.368  0.0800  0.2139  0.0533
 1209ERGO    R516064  17.802   3.930   7.286  0.0759  0.1434 -0.0259
 1209ERGO    C116065  17.940   3.841   7.630  0.1293  0.3093 -0.0039
 1209ERGO    C216066  18.187   3.950   7.810 -0.1186 -0.3040 -0.1438
 1210ERGO   ROH16067   6.492   3.228   9.727 -0.3367  0.0849 -0.1829
 1210ERGO    R116068   6.675   3.295   9.523 -0.2236  0.1064 -0.0758
 1210ERGO    R216069   6.663   3.185   9.270  0.0107  0.0139 -0.0510
 1210ERGO    R316070   6.660   3.446   9.192 -0.0646 -0.0133 -0.1390
 1210ERGO    R416071   6.661   3.293   8.942 -0.0098 -0.0966 -0.0874
 1210ERGO    R516072   6.800   3.452   8.998 -0.0598 -0.0362 -0.1354
 1210ERGO    C116073   6.656   3.601   8.678 -0.0923 -0.1865 -0.1912
 1210ERGO    C216074   6.623   3.601   8.395 -0.0103 -0.1185 -0.1012
 1211ERGO   ROH16075   7.375   9.567   6.618  0.0976  0.1841  0.0099
 1211ERGO    R116076   7.334   9.569   6.898 -0.2954 -0.1013 -0.0381
 1211ERGO    R216077   7.264   9.343   7.040  0.1318 -0.4001 -0.2815
 1211ERGO    R316078   7.481   9.408   7.189 -0.2323  0.1223  0.0561
 1211ERGO    R416079   7.329   9.219   7.356  0.1192 -0.5454 -0.3351
 1211ERGO    R516080   7.397   9.418   7.414 -0.5580 -0.3739 -0.0257
 1211ERGO    C116081   7.572   9.208   7.680 -0.2299 -0.1397 -0.0494
 1211ERGO    C216082   7.670   9.054   8.037  0.0477 -0.0765  0.0928
 1212ERGO   ROH16083   7.547  13.592   6.265  0.2780  0.2511  0.1193
 1212ERGO    R116084   7.554  13.587   6.548  0.0607  0.2438  0.1270
 1212ERGO    R216085   7.495  13.809   6.702 -0.1254  0.2214  0.0909
 1212ERGO    R316086   7.318  13.639   6.820 -0.1668  0.1641 -0.0526
 1212ERGO    R416087   7.328  13.871   6.998 -0.0136 -0.0410  0.2121
 1212ERGO    R516088   7.359  13.663   7.054 -0.0892 -0.1215 -0.0338
 1212ERGO    C116089   7.065  13.748   7.281  0.0126 -0.2476  0.1479
 1212ERGO    C216090   6.805  13.844   7.264  0.2418 -0.0284  0.3597
 1213ERGO   ROH16091   5.234  14.942   9.799  0.3335 -0.1069 -0.0048
 1213ERGO    R116092   5.345  14.990   9.543 -0.0177  0.2258 -0.1001
 1213ERGO    R216093   5.428  14.786   9.375  0.4090  0.4661 -0.1674
 1213ERGO    R316094   5.261  14.907   9.198 -0.0861  0.0161 -0.0404
 1213ERGO    R416095   5.433  14.737   9.033  0.5292  0.6858 -0.2014
 1213ERGO    R516096   5.398  14.951   9.007 -0.2383  0.6301 -0.0518
 1213ERGO    C116097   5.279  14.822   8.668  0.1344  0.3914 -0.1018
 1213ERGO    C216098   5.213  14.808   8.357 -0.2312  0.1070  0.4513
 1214ERGO   ROH16099  14.125  15.449   6.331 -0.0188  0.0167 -0.0269
 1214ERGO    R116100  14.177  15.219   6.488  0.1974  0.0226 -0.0868
 1214ERGO    R216101  14.373  15.213   6.683  0.0278  0.2447  0.0967
 1214ERGO    R316102  14.167  15.131   6.841 -0.0016 -0.1551 -0.1346
 1214ERGO    R416103  14.408  15.062   6.992 -0.0262  0.2921  0.1260
 1214ERGO    R516104  14.244  14.928   6.940  0.2777 -0.0193 -0.0657
 1214ERGO    C116105  14.235  14.898   7.320 -0.0852 -0.0555 -0.0741
 1214ERGO    C216106  14.151  14.969   7.592  0.2163 -0.1566  0.2610
 1215ERGO   ROH16107   5.339  17.452   9.770  0.0489  0.3456 -0.0059
 1215ERGO    R116108   5.383  17.627   9.552 -0.1635  0.3278 -0.0650
 1215ERGO    R216109   5.537  17.555   9.334  0.0122  0.4769  0.0126
 1215ERGO    R316110   5.315  17.625   9.194 -0.0624  0.0714 -0.0868
 1215ERGO    R416111   5.493  17.505   8.995  0.2758  0.4151 -0.0150
 1215ERGO    R516112   5.399  17.701   8.983 -0.0942  0.2496 -0.0412
 1215ERGO    C116113   5.259  17.541   8.666  0.3593 -0.0017 -0.1245
 1215ERGO    C216114   5.036  17.482   8.290 -0.1772  0.2520 -0.0985
 1216ERGO   ROH16115   3.028  16.763   9.810  0.0304  0.0030 -0.0866
 1216ERGO    R116116   2.988  16.943   9.595  0.0113 -0.0027 -0.0881
 1216ERGO    R216117   3.117  16.914   9.353 -0.0029 -0.0035 -0.0957
 1216ERGO    R316118   2.864  16.924   9.254 -0.0091 -0.0139 -0.0802
 1216ERGO    R416119   3.036  16.919   9.017 -0.0183  0.0699 -0.0908
 1216ERGO    R516120   2.880  17.065   9.061 -0.0371  0.0376 -0.0458
 1216ERGO    C116121   2.752  16.931   8.728 -0.0331  0.1031 -0.0735
 1216ERGO    C216122   2.586  16.898   8.482 -0.0553 -0.3724  0.0116
 1217ERGO   ROH16123  10.088   1.789   9.730 -0.1958 -0.1332 -0.0114
 1217ERGO    R116124  10.051   1.685   9.469 -0.2646 -0.1144 -0.0100
 1217ERGO    R216125   9.807   1.689   9.340 -0.2611  0.0589 -0.0172
 1217ERGO    R316126   9.948   1.815   9.145 -0.1634 -0.0470 -0.0148
 1217ERGO    R416127   9.751   1.652   9.001 -0.3391  0.1682 -0.0167
 1217ERGO    R516128   9.967   1.651   8.971 -0.3437 -0.0369 -0.0436
 1217ERGO    C116129   9.852   1.748   8.620 -0.2927  0.1324 -0.0142
 1217ERGO    C216130   9.850   1.718   8.317  0.0052  0.4613 -0.0247
 1218ERGO   ROH16131   3.452   5.264  10.113 -0.0876  0.0075 -0.1089
 1218ERGO    R116132   3.376   5.207   9.847 -0.0766  0.0232 -0.1154
 1218ERGO    R216133   3.313   5.405   9.664 -0.0396  0.0349 -0.1152
 1218ERGO    R316134   3.502   5.281   9.513 -0.0450  0.0151 -0.1055
 1218ERGO    R416135   3.330   5.418   9.319  0.0022  0.0688 -0.1119
 1218ERGO    R516136   3.383   5.206   9.319 -0.0373  0.0579 -0.1274
 1218ERGO    C116137   3.516   5.309   8.977  0.0215  0.0700 -0.1009
 1218ERGO    C216138   3.425   5.351   8.650  0.0426  0.0384 -0.1743
 1219ERGO   ROH16139   9.059  12.544   6.374  0.0298  0.2231 -0.1218
 1219ERGO    R116140   9.218  12.486   6.601  0.0702  0.1438 -0.1699
 1219ERGO    R216141   9.378  12.675   6.724 -0.0419  0.1480 -0.0283
 1219ERGO    R316142   9.239  12.602   6.946  0.0073 -0.1074 -0.0790
 1219ERGO    R416143   9.492  12.707   7.048 -0.2237  0.3902  0.0143
 1219ERGO    R516144   9.405  12.513   7.093  0.1286  0.2177 -0.0100
 1219ERGO    C116145   9.428  12.657   7.445 -0.2833  0.2915 -0.0084
 1219ERGO    C216146   9.500  12.563   7.744 -0.1300  0.2251  0.0337
 1220ERGO   ROH16147   2.911  13.262   6.166 -0.2888  0.0072  0.2482
 1220ERGO    R116148   2.843  13.140   6.412 -0.0926  0.0048  0.3023
 1220ERGO    R216149   2.934  12.889   6.484 -0.0788 -0.0148  0.2012
 1220ERGO    R316150   3.021  13.020   6.706  0.1472 -0.0521  0.1387
 1220ERGO    R416151   3.064  12.736   6.765  0.0168 -0.0835  0.1214
 1220ERGO    R516152   2.954  12.879   6.888  0.1798 -0.0074  0.1902
 1220ERGO    C116153   3.220  12.770   7.137  0.2847 -0.1584  0.0162
 1220ERGO    C216154   3.168  12.614   7.440  0.2234  0.2537  0.0872
 1221ERGO   ROH16155   7.346  13.914  10.069 -0.1664 -0.0524  0.0922
 1221ERGO    R116156   7.302  13.812   9.808 -0.1090 -0.0211  0.0705
 1221ERGO    R216157   7.078  13.876   9.659 -0.0194  0.0865 -0.0151
 1221ERGO    R316158   7.263  13.949   9.473  0.0868  0.0100  0.0586
 1221ERGO    R416159   7.051  13.816   9.320  0.0649  0.1378 -0.0314
 1221ERGO    R516160   7.264  13.768   9.316  0.0440  0.0240  0.0391
 1221ERGO    C116161   7.209  13.850   8.948  0.2137  0.0958  0.0284
 1221ERGO    C216162   7.177  13.906   8.618 -0.3722 -0.1413 -0.0413
 1222ERGO   ROH16163  14.741   7.683   6.046  0.1247  0.0938  0.0202
 1222ERGO    R116164  14.572   7.710   6.271  0.0417  0.1028 -0.0405
 1222ERGO    R216165  14.571   7.528   6.480 -0.1622  0.0101 -0.1096
 1222ERGO    R316166  14.615   7.750   6.630 -0.0845 -0.0770 -0.0060
 1222ERGO    R416167  14.459   7.572   6.803 -0.3475 -0.0013 -0.1731
 1222ERGO    R516168  14.412   7.779   6.754 -0.1421  0.0504 -0.1367
 1222ERGO    C116169  14.434   7.806   7.134 -0.3824 -0.0897 -0.1128
 1222ERGO    C216170  14.396   8.029   7.529  0.1064  0.2504 -0.2189
 1223ERGO   ROH16171  14.178   9.511   9.284 -0.0175 -0.0642  0.0140
 1223ERGO    R116172  14.277   9.448   9.027  0.1278 -0.1320  0.0842
 1223ERGO    R216173  14.335   9.190   8.949 -0.0469 -0.1838  0.1076
 1223ERGO    R316174  14.168   9.248   8.743  0.1630 -0.0081 -0.0163
 1223ERGO    R416175  14.341   9.035   8.640 -0.0704 -0.2840  0.1578
 1223ERGO    R516176  14.305   9.229   8.547  0.2606 -0.2593  0.0752
 1223ERGO    C116177  14.187   9.000   8.266  0.1128 -0.1774  0.0706
 1223ERGO    C216178  14.209   8.895   7.919  0.1711  0.2591 -0.0400
 1224ERGO   ROH16179  17.404   8.518  10.177 -0.0196 -0.3348 -0.0508
 1224ERGO    R116180  17.518   8.379   9.959  0.1063 -0.1383 -0.1145
 1224ERGO    R216181  17.365   8.246   9.771  0.2253 -0.3332 -0.0815
 1224ERGO    R316182  17.506   8.400   9.596 -0.0571 -0.0964 -0.1064
 1224ERGO    R416183  17.357   8.213   9.427  0.3136 -0.4302 -0.0738
 1224ERGO    R516184  17.572   8.248   9.423  0.2508 -0.0124 -0.0662
 1224ERGO    C116185  17.484   8.337   9.063  0.0998 -0.2642 -0.0927
 1224ERGO    C216186  17.475   8.269   8.713 -0.1434  0.2309  0.2032
 1225ERGO   ROH16187  10.181  11.706   9.743 -0.2225  0.0147 -0.1462
 1225ERGO    R116188  10.373  11.681   9.537 -0.0327  0.2291 -0.0013
 1225ERGO    R216189  10.309  11.590   9.284  0.2905 -0.0069 -0.0073
 1225ERGO    R316190  10.425  11.823   9.205 -0.0408  0.1544 -0.0340
 1225ERGO    R416191  10.404  11.663   8.960  0.3461  0.0208  0.0159
 1225ERGO    R516192  10.585  11.756   9.039  0.1577  0.3452  0.0772
 1225ERGO    C116193  10.569  11.925   8.697  0.0675  0.1885  0.0042
 1225ERGO    C216194  10.396  12.157   8.458  0.4041 -0.4046  0.2713
 1226ERGO   ROH16195   3.082  11.258   6.383 -0.3467  0.3587 -0.2746
 1226ERGO    R116196   3.226  11.366   6.601 -0.2137 -0.0461 -0.1539
 1226ERGO    R216197   3.235  11.637   6.654  0.3185 -0.0825 -0.0142
 1226ERGO    R316198   3.149  11.559   6.900  0.0504 -0.0359 -0.0888
 1226ERGO    R416199   3.254  11.829   6.941  0.4246 -0.1886  0.0516
 1226ERGO    R516200   3.311  11.650   7.051  0.0984 -0.3117  0.0378
 1226ERGO    C116201   3.185  11.868   7.338  0.2347 -0.2066  0.0198
 1226ERGO    C216202   3.185  12.142   7.398  0.0778 -0.2466  0.4703
 1227ERGO   ROH16203  12.188  13.540   6.403  0.2768  0.2589  0.0160
 1227ERGO    R116204  12.112  13.628   6.661 -0.0971  0.1961 -0.0674
 1227ERGO    R216205  11.850  13.622   6.748 -0.1900 -0.1031 -0.3384
 1227ERGO    R316206  11.955  13.481   6.954 -0.2335  0.0385 -0.2177
 1227ERGO    R416207  11.684  13.550   7.042 -0.3404 -0.1212 -0.4267
 1227ERGO    R516208  11.870  13.589   7.150 -0.4425  0.0428 -0.3112
 1227ERGO    C116209  11.687  13.374   7.408 -0.4688  0.0014 -0.3648
 1227ERGO    C216210  11.443  13.306   7.626  0.1488  0.2828 -0.0057
 1228ERGO   ROH16211   1.803  17.066   6.235 -0.0246 -0.2108  0.1719
 1228ERGO    R116212   1.844  17.017   6.511 -0.0897 -0.2096  0.1814
 1228ERGO    R216213   1.797  17.209   6.704  0.0074 -0.1615  0.1539
 1228ERGO    R316214   1.641  17.015   6.812 -0.1287 -0.0515  0.1584
 1228ERGO    R416215   1.743  17.165   7.042  0.0788 -0.1851  0.1627
 1228ERGO    R516216   1.756  16.949   7.011 -0.1175 -0.1948  0.1089
 1228ERGO    C116217   1.565  16.956   7.341 -0.0074 -0.0955  0.1721
 1228ERGO    C216218   1.432  17.040   7.681 -0.2992  0.1087 -0.2541
 1229ERGO   ROH16219   2.621   9.276   6.580  0.1241 -0.0572  0.0868
 1229ERGO    R116220   2.648   9.357   6.850  0.0217  0.0552  0.0637
 1229ERGO    R216221   2.611   9.619   6.931 -0.0898  0.0722 -0.0472
 1229ERGO    R316222   2.434   9.506   7.103 -0.0989  0.0800 -0.0505
 1229ERGO    R416223   2.583   9.698   7.266 -0.0761  0.0613 -0.0430
 1229ERGO    R516224   2.555   9.486   7.309 -0.0956  0.0596 -0.0524
 1229ERGO    C116225   2.401   9.637   7.623 -0.0767  0.0623 -0.0438
 1229ERGO    C216226   2.262   9.786   7.954  0.2022  0.3289  0.3325
 1230ERGO   ROH16227  14.190   7.084   9.646 -0.1835  0.1862  0.0229
 1230ERGO    R116228  14.197   7.203   9.390 -0.2110  0.0934 -0.0220
 1230ERGO    R216229  14.425   7.208   9.234 -0.1299  0.3338  0.0920
 1230ERGO    R316230  14.262   7.093   9.049  0.1121  0.0371  0.0555
 1230ERGO    R416231  14.470   7.228   8.892 -0.0335  0.3099  0.1034
 1230ERGO    R516232  14.254   7.253   8.870 -0.0628 -0.0223  0.0124
 1230ERGO    C116233  14.343   7.133   8.519  0.2499  0.0175  0.0758
 1230ERGO    C216234  14.381   7.255   8.146 -0.2211  0.0823  0.0895
 1231ERGO   ROH16235  12.234   6.459   9.895  0.0185  0.0045  0.0618
 1231ERGO    R116236  12.171   6.581   9.647  0.0173  0.0998  0.1058
 1231ERGO    R216237  12.358   6.716   9.495  0.0652  0.0123  0.0654
 1231ERGO    R316238  12.276   6.545   9.301 -0.1146  0.0968  0.0686
 1231ERGO    R416239  12.450   6.736   9.163 -0.0752  0.0082  0.0282
 1231ERGO    R516240  12.246   6.684   9.108 -0.1192  0.1368  0.1079
 1231ERGO    C116241  12.426   6.587   8.786 -0.3258  0.0853  0.0096
 1231ERGO    C216242  12.330   6.574   8.444 -0.2300 -0.2171  0.4288
 1232ERGO   ROH16243   7.206   1.261   9.619  0.0219 -0.1576  0.0238
 1232ERGO    R116244   7.193   1.377   9.361 -0.0094 -0.0532  0.0717
 1232ERGO    R216245   7.352   1.293   9.152  0.0501  0.1119  0.0493
 1232ERGO    R316246   7.114   1.264   9.024  0.0752  0.0531  0.0155
 1232ERGO    R416247   7.313   1.165   8.833  0.1205  0.0231  0.0758
 1232ERGO    R516248   7.162   1.318   8.796  0.1101 -0.0020  0.0092
 1232ERGO    C116249   7.066   1.064   8.527  0.1850 -0.0838  0.0595
 1232ERGO    C216250   7.159   0.954   8.283  0.3238  0.2591 -0.0858
 1233ERGO   ROH16251  16.122  11.050   6.690  0.1109  0.0522  0.0381
 1233ERGO    R116252  16.149  11.191   6.934  0.1547  0.1723 -0.0345
 1233ERGO    R216253  16.241  11.071   7.164 -0.1322  0.1925  0.0972
 1233ERGO    R316254  16.420  11.276   7.161  0.1406 -0.0409  0.0635
 1233ERGO    R416255  16.479  11.129   7.409 -0.3742  0.1918  0.3372
 1233ERGO    R516256  16.438  11.342   7.391 -0.0774  0.2288  0.0060
 1233ERGO    C116257  16.786  11.355   7.548 -0.2592 -0.0276  0.4455
 1233ERGO    C216258  16.882  11.138   7.822 -0.0670  0.0970 -0.2252
 1234ERGO   ROH16259  16.761   0.416   6.755  0.0626  0.0755 -0.0048
 1234ERGO    R116260  16.564   0.466   6.952  0.0637  0.0852 -0.0069
 1234ERGO    R216261  16.430   0.264   7.082 -0.0335  0.0942 -0.0970
 1234ERGO    R316262  16.518   0.392   7.305 -0.0052 -0.0255 -0.0377
 1234ERGO    R416263  16.276   0.251   7.392 -0.1066  0.0780 -0.1334
 1234ERGO    R516264  16.318   0.464   7.416  0.0082  0.0506 -0.0570
 1234ERGO    C116265  16.269   0.364   7.781 -0.1227 -0.0439 -0.0990
 1234ERGO    C216266  16.087   0.208   8.008 -0.0488 -0.3134  0.0810
 1235ERGO   ROH16267   8.148  11.771   9.934  0.2263 -0.1348 -0.0752
 1235ERGO    R116268   8.135  11.627   9.690 -0.0804 -0.1441 -0.0576
 1235ERGO    R216269   7.941  11.674   9.499 -0.0985  0.1139  0.0168
 1235ERGO    R316270   8.155  11.705   9.335 -0.1172 -0.2055 -0.0726
 1235ERGO    R416271   7.924  11.695   9.155 -0.2076  0.1297  0.0233
 1235ERGO    R516272   8.103  11.571   9.144 -0.3928 -0.1347 -0.0492
 1235ERGO    C116273   8.116  11.736   8.800 -0.2888 -0.1607 -0.0569
 1235ERGO    C216274   8.125  11.747   8.424 -0.2594  0.0011  0.3615
 1236ERGO   ROH16275   0.518   3.786   7.015 -0.1284  0.2034  0.1443
 1236ERGO    R116276   0.786   3.830   7.095 -0.0865  0.1467  0.0344
 1236ERGO    R216277   0.861   4.044   7.252 -0.0139  0.0084  0.1823
 1236ERGO    R316278   0.968   3.851   7.410  0.0931 -0.1236 -0.0465
 1236ERGO    R416279   1.123   4.092   7.472 -0.0249 -0.1005  0.2207
 1236ERGO    R516280   1.203   3.899   7.411  0.0729  0.0022 -0.0112
 1236ERGO    C116281   1.377   3.938   7.748  0.0691 -0.2877  0.0282
 1236ERGO    C216282   1.497   3.976   8.094  0.2323 -0.0307 -0.3364
 1237ERGO   ROH16283   3.738   8.169  10.130 -0.2709 -0.1517  0.2228
 1237ERGO    R116284   3.739   8.060   9.869 -0.2411 -0.1864  0.2368
 1237ERGO    R216285   3.524   7.921   9.765 -0.3092 -0.0280  0.1566
 1237ERGO    R316286   3.546   8.103   9.564 -0.0708 -0.0679  0.1452
 1237ERGO    R416287   3.460   7.856   9.431 -0.2548  0.0041  0.1402
 1237ERGO    R516288   3.633   7.978   9.379 -0.1252 -0.1639  0.1873
 1237ERGO    C116289   3.443   7.989   9.049  0.0007 -0.0148  0.1199
 1237ERGO    C216290   3.429   7.848   8.855 -0.3421 -0.0276  0.2111
 1238ERGO   ROH16291   7.602  12.506   6.480  0.0189  0.0534  0.1802
 1238ERGO    R116292   7.775  12.311   6.590  0.1892  0.0806 -0.0346
 1238ERGO    R216293   8.047  12.354   6.620  0.1086  0.4093  0.2803
 1238ERGO    R316294   7.996  12.287   6.878 -0.0351 -0.1513  0.1227
 1238ERGO    R416295   8.279  12.219   6.837  0.1619  0.5012  0.2818
 1238ERGO    R516296   8.123  12.087   6.914  0.3413  0.0350 -0.1067
 1238ERGO    C116297   8.367  12.079   7.207  0.0580  0.0284  0.1348
 1238ERGO    C216298   8.595  12.001   7.445  0.1378  0.0748  0.1541
 1239ERGO   ROH16299  14.322   4.751   6.295  0.2603  0.0968  0.0390
 1239ERGO    R116300  14.308   4.855   6.558  0.3049  0.1456  0.0218
 1239ERGO    R216301  14.161   4.735   6.758  0.2840  0.2200  0.0509
 1239ERGO    R316302  14.398   4.743   6.892  0.2948  0.1784  0.0355
 1239ERGO    R416303  14.231   4.557   7.046  0.4052 -0.0904 -0.1646
 1239ERGO    R516304  14.335   4.733   7.123  0.3252 -0.1279  0.0332
 1239ERGO    C116305  14.494   4.461   7.340  0.4858 -0.3102 -0.3044
 1239ERGO    C216306  14.587   4.296   7.595  0.2002  0.0129 -0.2174
 1240ERGO   ROH16307  16.153   3.416  10.074  0.0981  0.1289  0.1121
 1240ERGO    R116308  16.068   3.298   9.832  0.2370 -0.0364  0.1416
 1240ERGO    R216309  15.956   3.443   9.626 -0.2504 -0.2564  0.2297
 1240ERGO    R316310  16.153   3.326   9.479 -0.0375  0.2454  0.0957
 1240ERGO    R416311  15.954   3.417   9.282 -0.4883 -0.3883  0.2398
 1240ERGO    R516312  16.035   3.215   9.302  0.1128 -0.1614  0.2460
 1240ERGO    C116313  16.137   3.292   8.943 -0.4269  0.0060  0.1200
 1240ERGO    C216314  16.054   3.477   8.500  0.1821  0.1582 -0.0850
 1241ERGO   ROH16315  13.537  12.047   9.313  0.0888 -0.2284 -0.1031
 1241ERGO    R116316  13.443  12.178   9.081  0.1338 -0.1597 -0.0827
 1241ERGO    R216317  13.605  12.339   8.926  0.1875 -0.1856 -0.0544
 1241ERGO    R316318  13.520  12.175   8.726  0.1374 -0.1258 -0.0824
 1241ERGO    R416319  13.618  12.416   8.589  0.2007 -0.1269 -0.0404
 1241ERGO    R516320  13.422  12.323   8.565  0.1744 -0.0686 -0.0527
 1241ERGO    C116321  13.546  12.307   8.205  0.1614 -0.0366 -0.0586
 1241ERGO    C216322  13.685  12.365   7.894  0.1626 -0.1031  0.0259
 1242ERGO   ROH16323   7.338   0.043   6.205  0.1283  0.2866  0.0677
 1242ERGO    R116324   7.168   0.044   6.432  0.0638  0.0561  0.0208
 1242ERGO    R216325   6.937  -0.108   6.447  0.2211 -0.1848 -0.0819
 1242ERGO    R316326   7.051  -0.201   6.675  0.2455 -0.1245 -0.0668
 1242ERGO    R416327   6.765  -0.191   6.735  0.2325 -0.1625 -0.0666
 1242ERGO    R516328   6.924  -0.100   6.851  0.2247 -0.1092 -0.0824
 1242ERGO    C116329   6.772  -0.326   7.117  0.2620 -0.0928 -0.0434
 1242ERGO    C216330   6.641  -0.268   7.380 -0.0739  0.2759  0.1380
 1243ERGO   ROH16331   5.826   6.392   6.549  0.1373  0.0507 -0.1498
 1243ERGO    R116332   5.772   6.358   6.825  0.1339 -0.0138 -0.1583
 1243ERGO    R216333   5.815   6.119   6.957  0.1602 -0.0357 -0.2076
 1243ERGO    R316334   5.963   6.276   7.123  0.1359 -0.0520 -0.1699
 1243ERGO    R416335   5.876   6.053   7.291  0.0978 -0.0612 -0.2010
 1243ERGO    R516336   5.850   6.264   7.333  0.0972 -0.0628 -0.1909
 1243ERGO    C116337   6.050   6.161   7.641  0.0385 -0.0914 -0.1619
 1243ERGO    C216338   6.054   6.067   7.989  0.2864 -0.1792 -0.0214
 1244ERGO   ROH16339  14.807   2.612   6.635 -0.2439 -0.0112  0.0689
 1244ERGO    R116340  14.673   2.514   6.865 -0.0695  0.0908  0.2186
 1244ERGO    R216341  14.751   2.578   7.122  0.0174  0.3564  0.1346
 1244ERGO    R316342  14.492   2.656   7.146 -0.0209  0.2119  0.1873
 1244ERGO    R416343  14.573   2.580   7.418  0.0361  0.1639  0.1475
 1244ERGO    R516344  14.399   2.506   7.308  0.0690  0.1129  0.1415
 1244ERGO    C116345  14.225   2.654   7.613  0.0110 -0.0838  0.2045
 1244ERGO    C216346  13.974   2.645   7.919 -0.0358  0.1983  0.2150
 1245ERGO   ROH16347  15.375   3.334   6.928 -0.0064  0.0967  0.0965
 1245ERGO    R116348  15.502   3.476   7.137 -0.0772  0.0817  0.1504
 1245ERGO    R216349  15.362   3.614   7.330 -0.1470 -0.0570  0.2016
 1245ERGO    R316350  15.510   3.462   7.500 -0.0749 -0.0505  0.1450
 1245ERGO    R416351  15.412   3.684   7.665  0.0221 -0.0329  0.1721
 1245ERGO    R516352  15.619   3.621   7.642  0.0049 -0.0479  0.0782
 1245ERGO    C116353  15.580   3.582   8.019  0.1882 -0.0128  0.1018
 1245ERGO    C216354  15.438   3.482   8.351  0.1792 -0.1035 -0.0149
 1246ERGO   ROH16355   0.655  10.008   6.371 -0.1207  0.0731 -0.0263
 1246ERGO    R116356   0.671  10.016   6.653 -0.1896 -0.0894 -0.0159
 1246ERGO    R216357   0.696  10.252   6.794  0.1860 -0.1904  0.1055
 1246ERGO    R316358   0.476  10.161   6.925 -0.0227  0.1288 -0.0110
 1246ERGO    R416359   0.595  10.358   7.107  0.4535 -0.3871  0.2623
 1246ERGO    R516360   0.544  10.152   7.155 -0.0203 -0.3478 -0.0236
 1246ERGO    C116361   0.329  10.334   7.412  0.4134 -0.2021  0.2442
 1246ERGO    C216362   0.147  10.430   7.716  0.0352  0.2724 -0.0704
 1247ERGO   ROH16363  16.717  11.567  10.175  0.1704 -0.3175  0.0851
 1247ERGO    R116364  16.626  11.465   9.927  0.1232 -0.2859  0.0882
 1247ERGO    R216365  16.695  11.580   9.685 -0.0717 -0.1410  0.0934
 1247ERGO    R316366  16.778  11.329   9.625  0.0814 -0.0605 -0.0352
 1247ERGO    R416367  16.658  11.428   9.377 -0.3129 -0.1499  0.1254
 1247ERGO    R516368  16.608  11.242   9.480 -0.0178 -0.2017  0.1682
 1247ERGO    C116369  16.715  11.102   9.142 -0.3097 -0.0796  0.0232
 1247ERGO    C216370  16.647  11.028   8.860 -0.2663  0.2094  0.0127
 1248ERGO   ROH16371   5.244   9.729  10.291  0.0049  0.0708 -0.1281
 1248ERGO    R116372   5.333   9.770  10.025 -0.0971  0.0253 -0.1712
 1248ERGO    R216373   5.417   9.563   9.863  0.0388  0.0161 -0.0999
 1248ERGO    R316374   5.232   9.664   9.692 -0.0966 -0.2181 -0.0942
 1248ERGO    R416375   5.433   9.538   9.519  0.0887  0.1036 -0.1037
 1248ERGO    R516376   5.361   9.744   9.506 -0.2038  0.0001 -0.0724
 1248ERGO    C116377   5.269   9.618   9.158 -0.0093 -0.0652 -0.1004
 1248ERGO    C216378   5.259   9.503   8.763  0.1078  0.1184 -0.2168
 1249ERGO   ROH16379   2.348   0.649  10.001 -0.1924  0.0962 -0.1692
 1249ERGO    R116380   2.378   0.702   9.725 -0.1258 -0.0109 -0.1826
 1249ERGO    R216381   2.547   0.554   9.563 -0.0230 -0.0188 -0.0661
 1249ERGO    R316382   2.322   0.522   9.414  0.0360 -0.1637 -0.1259
 1249ERGO    R416383   2.503   0.676   9.242 -0.0705  0.0935 -0.0182
 1249ERGO    R516384   2.299   0.729   9.295 -0.1356 -0.1257 -0.0322
 1249ERGO    C116385   2.267   0.716   8.915 -0.0428  0.0229 -0.0462
 1249ERGO    C216386   2.225   0.827   8.572 -0.2071 -0.0661 -0.3855
 1250ERGO   ROH16387  15.755  11.901   9.903  0.1160  0.0674 -0.0299
 1250ERGO    R116388  15.698  11.904   9.626 -0.0690 -0.0732  0.0043
 1250ERGO    R216389  15.850  12.045   9.444 -0.4085  0.1502 -0.1225
 1250ERGO    R316390  15.866  11.804   9.320 -0.0956  0.1472 -0.0826
 1250ERGO    R416391  15.835  11.997   9.102 -0.3903  0.0601 -0.1105
 1250ERGO    R516392  15.713  11.820   9.137 -0.1427 -0.1004 -0.0637
 1250ERGO    C116393  15.841  11.742   8.786 -0.0859  0.0048 -0.0661
 1250ERGO    C216394  15.676  11.694   8.373 -0.1340 -0.2960 -0.0642
 1251ERGO   ROH16395  14.323  13.851   9.981  0.1668  0.1854  0.0971
 1251ERGO    R116396  14.388  13.754   9.723  0.2561  0.0556  0.1686
 1251ERGO    R216397  14.252  13.832   9.496  0.2816 -0.1246  0.0969
 1251ERGO    R316398  14.501  13.896   9.407  0.2788 -0.0946  0.1062
 1251ERGO    R416399  14.344  13.855   9.163  0.2746 -0.0878  0.0963
 1251ERGO    R516400  14.533  13.759   9.214  0.2876 -0.0794  0.0910
 1251ERGO    C116401  14.631  13.928   8.887  0.2677 -0.0381  0.1047
 1251ERGO    C216402  14.474  13.947   8.586 -0.0542 -0.1961  0.1766
 1252ERGO   ROH16403  16.082   2.748   6.882  0.0099 -0.0843  0.0018
 1252ERGO    R116404  16.186   2.644   7.124 -0.1230 -0.2086  0.0078
 1252ERGO    R216405  16.157   2.774   7.366 -0.0444 -0.2090  0.0215
 1252ERGO    R316406  16.052   2.536   7.444 -0.2766 -0.1238 -0.0281
 1252ERGO    R416407  16.146   2.661   7.692  0.0676 -0.3739 -0.0310
 1252ERGO    R516408  16.197   2.462   7.620 -0.2321 -0.3986 -0.1786
 1252ERGO    C116409  16.040   2.373   7.956 -0.0849 -0.3899 -0.1081
 1252ERGO    C216410  15.929   2.228   8.358  0.2543 -0.3399  0.0183
 1253ERGO   ROH16411  14.777   8.245   9.798  0.2725 -0.0344  0.1986
 1253ERGO    R116412  14.822   8.311   9.527  0.2352 -0.0179  0.1960
 1253ERGO    R216413  14.970   8.150   9.358  0.1946 -0.0200  0.1586
 1253ERGO    R316414  14.747   8.163   9.203  0.1691  0.0126  0.1985
 1253ERGO    R416415  14.964   8.102   9.015  0.1280  0.0387  0.1514
 1253ERGO    R516416  14.821   8.266   9.000  0.1326  0.0428  0.2034
 1253ERGO    C116417  14.751   8.087   8.671  0.0654  0.1035  0.1847
 1253ERGO    C216418  14.867   7.862   8.399  0.1903  0.1726 -0.1567
 1254ERGO   ROH16419   2.758   1.766   6.253 -0.1493  0.1736  0.0612
 1254ERGO    R116420   2.845   1.872   6.501 -0.1008  0.1709  0.0460
 1254ERGO    R216421   2.683   2.030   6.660 -0.0787  0.1496  0.0918
 1254ERGO    R316422   2.744   1.845   6.850 -0.0170  0.1461  0.0684
 1254ERGO    R416423   2.557   2.028   6.982  0.0511  0.1626  0.1429
 1254ERGO    R516424   2.754   1.970   7.054  0.0757  0.1468  0.0634
 1254ERGO    C116425   2.541   1.853   7.347  0.1847  0.1669  0.1507
 1254ERGO    C216426   2.546   1.792   7.603 -0.2300 -0.3412 -0.0368
 1255ERGO   ROH16427   0.856   9.477   6.499 -0.1917 -0.0813  0.1480
 1255ERGO    R116428   0.693   9.518   6.727 -0.0634 -0.1297  0.2488
 1255ERGO    R216429   0.778   9.460   6.983  0.1604  0.0176  0.2076
 1255ERGO    R316430   0.708   9.718   7.031 -0.0014 -0.0183  0.1737
 1255ERGO    R416431   0.668   9.581   7.287 -0.0863 -0.0498  0.1484
 1255ERGO    R516432   0.522   9.702   7.180 -0.0863 -0.1206  0.0620
 1255ERGO    C116433   0.539   9.894   7.510 -0.3819 -0.1228  0.0821
 1255ERGO    C216434   0.624   9.947   7.870  0.0483  0.0235  0.3505
 1256ERGO   ROH16435  10.430  17.410  10.032  0.3104 -0.1195  0.1688
 1256ERGO    R116436  10.568  17.280   9.822  0.3294  0.0111  0.0998
 1256ERGO    R216437  10.464  17.256   9.568  0.2860  0.0356  0.1172
 1256ERGO    R316438  10.699  17.371   9.495  0.2144  0.1722  0.0969
 1256ERGO    R416439  10.630  17.194   9.271  0.2893  0.1388  0.0966
 1256ERGO    R516440  10.818  17.196   9.382  0.3016  0.2411  0.0782
 1256ERGO    C116441  10.948  17.266   9.030  0.2240  0.3269  0.0655
 1256ERGO    C216442  10.891  17.106   8.733 -0.2214 -0.2636 -0.0683
 1257ERGO   ROH16443   0.297   8.761   6.449 -0.0727 -0.1969  0.0034
 1257ERGO    R116444   0.271   8.822   6.724 -0.0546 -0.0782 -0.0196
 1257ERGO    R216445   0.083   8.702   6.886 -0.1048  0.0502  0.0310
 1257ERGO    R316446   0.300   8.643   7.039 -0.1233  0.0319  0.0478
 1257ERGO    R416447   0.076   8.650   7.228 -0.0987  0.1931  0.0523
 1257ERGO    R516448   0.262   8.761   7.244 -0.0627  0.1249 -0.0014
 1257ERGO    C116449   0.275   8.565   7.571 -0.1125  0.2592  0.0805
 1257ERGO    C216450   0.207   8.445   7.934  0.3318 -0.1654  0.1195
 1258ERGO   ROH16451  12.593  12.041   6.031  0.2227 -0.1685  0.1097
 1258ERGO    R116452  12.768  11.977   6.244  0.3327 -0.0100  0.0685
 1258ERGO    R216453  12.919  12.168   6.375  0.0706  0.1543  0.1371
 1258ERGO    R316454  12.799  12.065   6.596  0.2324 -0.1144  0.1040
 1258ERGO    R416455  12.958  12.291   6.695 -0.2710  0.2366  0.1511
 1258ERGO    R516456  12.965  12.085   6.768  0.1549  0.2395  0.1455
 1258ERGO    C116457  12.868  12.266   7.090 -0.3179  0.0323  0.1283
 1258ERGO    C216458  12.795  12.291   7.417  0.2397  0.0964  0.0077
 1259ERGO   ROH16459   4.658   8.810   9.972 -0.2135  0.0761  0.0055
 1259ERGO    R116460   4.797   8.860   9.731 -0.2002  0.2109  0.0412
 1259ERGO    R216461   4.863   8.660   9.552  0.0516  0.2718  0.0668
 1259ERGO    R316462   4.733   8.820   9.375 -0.0643  0.1338  0.0233
 1259ERGO    R416463   4.826   8.592   9.215 -0.1200  0.0267  0.1311
 1259ERGO    R516464   4.862   8.803   9.174 -0.1661  0.0075 -0.0368
 1259ERGO    C116465   4.683   8.703   8.852 -0.3286 -0.2455  0.1278
 1259ERGO    C216466   4.737   8.759   8.491 -0.0776 -0.0175  0.1666
 1260ERGO   ROH16467   6.934  18.129   9.573  0.0919 -0.2112  0.0156
 1260ERGO    R116468   7.033  18.193   9.316 -0.0179 -0.0675  0.0076
 1260ERGO    R216469   7.115  18.001   9.136  0.1670  0.0429 -0.0320
 1260ERGO    R316470   6.938  18.125   8.971  0.0006 -0.1276  0.0151
 1260ERGO    R416471   7.176  18.078   8.805  0.1096  0.3577  0.0270
 1260ERGO    R516472   7.074  18.269   8.836 -0.2002  0.1797  0.1321
 1260ERGO    C116473   7.046  18.239   8.457 -0.0800  0.3807  0.1056
 1260ERGO    C216474   7.069  18.273   8.119 -0.0527  0.0193 -0.3106
 1261ERGO   ROH16475  12.109  17.281   6.727  0.0804 -0.1931  0.0038
 1261ERGO    R116476  12.075  17.410   6.977  0.2813 -0.2019  0.0371
 1261ERGO    R216477  11.827  17.475   7.079  0.3772  0.1890  0.0388
 1261ERGO    R316478  11.914  17.334   7.294  0.1306 -0.0208  0.0058
 1261ERGO    R416479  11.753  17.550   7.408  0.2189  0.0273  0.0417
 1261ERGO    R516480  11.958  17.500   7.460  0.1489 -0.1624  0.1449
 1261ERGO    C116481  11.792  17.461   7.802 -0.1047 -0.2638  0.0124
 1261ERGO    C216482  11.526  17.332   8.004  0.0820 -0.0164 -0.2737
 1262ERGO   ROH16483  18.014   9.359   6.214  0.0795  0.1379  0.0719
 1262ERGO    R116484  18.051   9.493   6.461  0.0452  0.2227  0.0324
 1262ERGO    R216485  17.861   9.665   6.567 -0.0273  0.1648  0.0105
 1262ERGO    R316486  17.884   9.503   6.783  0.0764  0.2287  0.0469
 1262ERGO    R416487  17.779   9.754   6.890 -0.0386  0.1937 -0.0013
 1262ERGO    R516488  17.956   9.648   6.960  0.0187  0.3019  0.0059
 1262ERGO    C116489  17.752   9.654   7.282  0.0518  0.2706  0.0260
 1262ERGO    C216490  17.763   9.809   7.544 -0.0976  0.0555  0.1205
 1263ERGO   ROH16491   6.993  11.262   6.320 -0.3292  0.2301  0.0860
 1263ERGO    R116492   6.908  11.280   6.589 -0.1236  0.1289  0.1586
 1263ERGO    R216493   6.910  11.063   6.760  0.0389  0.0746  0.0840
 1263ERGO    R316494   7.057  11.229   6.917  0.1364  0.0407  0.0305
 1263ERGO    R416495   6.888  11.079   7.105  0.1515  0.0884  0.0915
 1263ERGO    R516496   6.906  11.296   7.091  0.2062  0.0869  0.0778
 1263ERGO    C116497   7.014  11.244   7.453  0.3084  0.0648  0.0455
 1263ERGO    C216498   6.995  11.004   7.729  0.1699  0.0391  0.1936
 1264ERGO   ROH16499  13.123  17.344  10.369  0.0793 -0.0928 -0.0883
 1264ERGO    R116500  13.089  17.294  10.093 -0.0181 -0.0683 -0.0811
 1264ERGO    R216501  12.890  17.414   9.943 -0.0244  0.0024 -0.0162
 1264ERGO    R316502  13.098  17.489   9.786 -0.0469 -0.0557 -0.0740
 1264ERGO    R416503  12.924  17.331   9.610  0.0366 -0.3059  0.0636
 1264ERGO    R516504  13.137  17.299   9.645  0.0492 -0.1763  0.1113
 1264ERGO    C116505  13.140  17.353   9.267  0.0512 -0.5397  0.0556
 1264ERGO    C216506  13.167  17.376   8.895  0.1427 -0.0231 -0.2051
 1265ERGO   ROH16507  17.319   1.803  10.279  0.0124 -0.2229 -0.0011
 1265ERGO    R116508  17.248   1.843  10.008  0.0193 -0.3417 -0.0214
 1265ERGO    R216509  17.361   2.041   9.851 -0.2961 -0.1149  0.0234
 1265ERGO    R316510  17.417   1.833   9.685  0.1448 -0.0121  0.0314
 1265ERGO    R416511  17.338   2.052   9.507 -0.1593 -0.1385  0.0134
 1265ERGO    R516512  17.254   1.851   9.511  0.1902 -0.2899 -0.0403
 1265ERGO    C116513  17.377   1.863   9.150  0.3342 -0.0557  0.0150
 1265ERGO    C216514  17.362   1.807   8.796  0.1538  0.1062 -0.0564
 1266ERGO   ROH16515   3.658   4.768   6.418 -0.0732  0.2902  0.0922
 1266ERGO    R116516   3.604   4.639   6.664 -0.0669  0.1228  0.0065
 1266ERGO    R216517   3.766   4.440   6.765 -0.0428  0.0856 -0.1124
 1266ERGO    R316518   3.772   4.600   6.985 -0.0821 -0.0585 -0.0047
 1266ERGO    R416519   3.775   4.326   7.092 -0.1168 -0.1444 -0.1887
 1266ERGO    R516520   3.635   4.485   7.145 -0.1252 -0.1682 -0.1115
 1266ERGO    C116521   3.785   4.411   7.488 -0.1968 -0.4136 -0.1321
 1266ERGO    C216522   3.617   4.300   7.833  0.0597 -0.2007  0.2219
 1267ERGO   ROH16523   6.813   4.869   6.169 -0.1998  0.1085 -0.0959
 1267ERGO    R116524   6.914   4.806   6.426 -0.1684  0.2357 -0.0760
 1267ERGO    R216525   6.828   4.934   6.654 -0.3997  0.1077 -0.0898
 1267ERGO    R316526   6.778   4.680   6.739 -0.0669  0.0310 -0.1114
 1267ERGO    R416527   6.788   4.841   6.985 -0.3294  0.0451 -0.0991
 1267ERGO    R516528   6.903   4.661   6.943 -0.0698  0.1989 -0.0888
 1267ERGO    C116529   6.718   4.549   7.257  0.0239 -0.0635 -0.1248
 1267ERGO    C216530   6.739   4.356   7.493 -0.3199 -0.1341 -0.0433
 1268ERGO   ROH16531  14.027  13.950   6.148  0.2109 -0.0782  0.0781
 1268ERGO    R116532  13.996  14.133   6.362  0.1910  0.1034 -0.0761
 1268ERGO    R216533  13.965  14.051   6.624 -0.0638  0.3162 -0.0329
 1268ERGO    R316534  14.176  14.216   6.667  0.0323  0.1859 -0.0042
 1268ERGO    R416535  14.027  14.218   6.920 -0.0861  0.4034 -0.0777
 1268ERGO    R516536  14.088  14.392   6.803  0.0930  0.3088 -0.1251
 1268ERGO    C116537  14.263  14.471   7.132 -0.0088  0.3318 -0.0769
 1268ERGO    C216538  14.429  14.443   7.454  0.0221 -0.0661 -0.4225
 1269ERGO   ROH16539   3.593   0.143   6.428  0.1710 -0.1508 -0.1401
 1269ERGO    R116540   3.552  -0.127   6.502 -0.0952 -0.0888 -0.0528
 1269ERGO    R216541   3.757  -0.288   6.595 -0.2038 -0.3235 -0.2268
 1269ERGO    R316542   3.587  -0.326   6.804 -0.0491 -0.0800 -0.0496
 1269ERGO    R416543   3.831  -0.468   6.881 -0.1686 -0.4830 -0.3343
 1269ERGO    R516544   3.630  -0.550   6.876 -0.3187 -0.1684 -0.1335
 1269ERGO    C116545   3.716  -0.608   7.243 -0.0029 -0.3475 -0.2306
 1269ERGO    C216546   3.846  -0.445   7.577  0.1268  0.1677  0.0560
 1270ERGO   ROH16547  14.431  15.425  10.070 -0.0504 -0.1384  0.1206
 1270ERGO    R116548  14.498  15.346   9.807  0.1141 -0.0032  0.1199
 1270ERGO    R216549  14.307  15.287   9.617  0.2325 -0.1409  0.0399
 1270ERGO    R316550  14.440  15.473   9.471  0.0991  0.0315  0.1359
 1270ERGO    R416551  14.335  15.284   9.272  0.3547 -0.0216  0.0488
 1270ERGO    R516552  14.543  15.348   9.294  0.2852  0.1794  0.1368
 1270ERGO    C116553  14.477  15.458   8.934  0.3006  0.2098  0.1440
 1270ERGO    C216554  14.505  15.471   8.455 -0.2321  0.1219  0.1081
 1271ERGO   ROH16555  10.443   1.002   9.923 -0.0428  0.0874 -0.0660
 1271ERGO    R116556  10.277   0.894   9.721  0.0215  0.0745 -0.1124
 1271ERGO    R216557  10.340   0.910   9.453  0.1380  0.0037 -0.0917
 1271ERGO    R316558  10.308   0.640   9.461  0.0842  0.0118 -0.0438
 1271ERGO    R416559  10.162   0.726   9.221  0.0220  0.0062 -0.0054
 1271ERGO    R516560  10.083   0.605   9.385  0.0524  0.0463  0.0368
 1271ERGO    C116561  10.028   0.365   9.094 -0.0958  0.0153  0.0900
 1271ERGO    C216562   9.867   0.182   8.715  0.3394 -0.0129  0.0132
 1272ERGO   ROH16563  16.148   3.886   6.540 -0.1163  0.0227 -0.1716
 1272ERGO    R116564  16.307   3.944   6.767 -0.0463 -0.1503 -0.1743
 1272ERGO    R216565  16.257   4.160   6.932  0.2003 -0.0834 -0.1787
 1272ERGO    R316566  16.255   3.970   7.126 -0.0173 -0.0797 -0.1761
 1272ERGO    R416567  16.404   4.193   7.244  0.3535 -0.3021 -0.2259
 1272ERGO    R516568  16.471   3.986   7.229  0.0420 -0.4014 -0.2460
 1272ERGO    C116569  16.487   4.033   7.607  0.2386 -0.4259 -0.2510
 1272ERGO    C216570  16.419   4.050   8.011 -0.1426  0.0697  0.7008
 1273ERGO   ROH16571  11.868  17.231  10.174 -0.1992 -0.1895  0.1909
 1273ERGO    R116572  11.938  17.169   9.907 -0.0583  0.0403  0.1724
 1273ERGO    R216573  11.781  17.009   9.745  0.2469 -0.1934  0.0996
 1273ERGO    R316574  11.794  17.223   9.577 -0.1317 -0.0973  0.1812
 1273ERGO    R416575  11.771  16.991   9.400 -0.0276 -0.0444  0.0963
 1273ERGO    R516576  11.924  17.145   9.392 -0.2012  0.1302  0.0323
 1273ERGO    C116577  11.778  17.181   9.042 -0.5430  0.1327  0.1710
 1273ERGO    C216578  11.810  17.170   8.780 -0.4644  0.4129  0.0581
 1274ERGO   ROH16579   3.424   2.936  10.199  0.0452 -0.0260  0.2349
 1274ERGO    R116580   3.380   3.098   9.972  0.1656  0.0718  0.2815
 1274ERGO    R216581   3.578   3.152   9.787  0.1468 -0.2100  0.1834
 1274ERGO    R316582   3.394   3.057   9.610 -0.1011  0.0947  0.2647
 1274ERGO    R416583   3.549   3.255   9.458  0.3466 -0.3277  0.1262
 1274ERGO    R516584   3.332   3.248   9.481  0.3175  0.1776  0.1618
 1274ERGO    C116585   3.360   3.225   9.101  0.2302 -0.1102  0.1691
 1274ERGO    C216586   3.241   3.228   8.652  0.0660  0.0683  0.1927
 1275ERGO   ROH16587  14.742   6.938   6.389  0.3542  0.1329 -0.0120
 1275ERGO    R116588  14.950   6.796   6.518  0.1498 -0.0896  0.0760
 1275ERGO    R216589  15.139   6.920   6.676  0.3170 -0.2664  0.0092
 1275ERGO    R316590  15.057   6.738   6.861  0.0566 -0.0508  0.1137
 1275ERGO    R416591  15.271   6.888   6.994  0.2985 -0.2814  0.0161
 1275ERGO    R516592  15.258   6.671   6.973 -0.0231 -0.2862  0.1325
 1275ERGO    C116593  15.270   6.699   7.353  0.0434 -0.0876  0.1183
 1275ERGO    C216594  15.499   6.840   7.498 -0.0508  0.0487  0.0791
 1276ERGO   ROH16595   7.717  15.131   6.780 -0.1284 -0.1008 -0.0565
 1276ERGO    R116596   7.507  14.997   6.915  0.0346 -0.2836  0.0225
 1276ERGO    R216597   7.551  14.838   7.136  0.2234 -0.0329  0.1795
 1276ERGO    R316598   7.363  14.999   7.249 -0.0254 -0.1883 -0.0058
 1276ERGO    R416599   7.398  14.780   7.441  0.2817  0.0685  0.2274
 1276ERGO    R516600   7.210  14.847   7.353  0.1889 -0.3011  0.1403
 1276ERGO    C116601   7.133  14.897   7.724  0.0820 -0.0184  0.0813
 1276ERGO    C216602   6.874  14.825   7.959  0.2134  0.2616  0.1856
 1277ERGO   ROH16603   5.783   8.676   6.693  0.1768 -0.2132 -0.0214
 1277ERGO    R116604   5.621   8.688   6.925  0.1314 -0.0228 -0.0619
 1277ERGO    R216605   5.622   8.489   7.116  0.0059  0.0786  0.0408
 1277ERGO    R316606   5.675   8.696   7.285  0.0546  0.1430 -0.0522
 1277ERGO    R416607   5.536   8.498   7.451 -0.0550  0.2744  0.0220
 1277ERGO    R516608   5.483   8.708   7.427  0.0295  0.2864 -0.0935
 1277ERGO    C116609   5.537   8.697   7.804 -0.0447  0.4490 -0.0764
 1277ERGO    C216610   5.474   8.768   8.052 -0.3394 -0.0928 -0.0809
 1278ERGO   ROH16611  16.272  14.138  10.057  0.1343 -0.0364  0.0839
 1278ERGO    R116612  16.342  14.024   9.807  0.0653  0.0143  0.0406
 1278ERGO    R216613  16.190  13.827   9.685  0.0977 -0.0535  0.1022
 1278ERGO    R316614  16.192  14.001   9.476 -0.0911 -0.0342  0.1149
 1278ERGO    R416615  16.178  13.736   9.352  0.0195 -0.0249  0.0970
 1278ERGO    R516616  16.324  13.892   9.309 -0.0939  0.0646  0.0514
 1278ERGO    C116617  16.174  13.846   8.962 -0.2033  0.0098  0.1061
 1278ERGO    C216618  16.317  13.842   8.639  0.0304 -0.1681 -0.1539
 1279ERGO   ROH16619  17.532  14.430   9.886  0.2507  0.1257  0.1243
 1279ERGO    R116620  17.502  14.508   9.616  0.0647  0.1101  0.1398
 1279ERGO    R216621  17.667  14.693   9.494 -0.0176  0.1029  0.0148
 1279ERGO    R316622  17.702  14.494   9.312 -0.1435  0.0922  0.0016
 1279ERGO    R416623  17.692  14.739   9.153  0.0870  0.1173  0.0241
 1279ERGO    R516624  17.570  14.561   9.124 -0.0526  0.2186 -0.0177
 1279ERGO    C116625  17.739  14.580   8.783  0.0301  0.1156  0.0171
 1279ERGO    C216626  17.694  14.521   8.389 -0.0868 -0.3678  0.1080
 1280ERGO   ROH16627   3.501   9.750   8.078 -0.0909  0.1529 -0.0335
 1280ERGO    R116628   3.326   9.543   7.997 -0.0681  0.1619 -0.1079
 1280ERGO    R216629   3.322   9.295   8.118  0.0456  0.0731 -0.2759
 1280ERGO    R316630   3.057   9.349   8.148  0.0435 -0.0129 -0.1333
 1280ERGO    R416631   3.079   9.060   8.192  0.1384 -0.0247 -0.2807
 1280ERGO    R516632   2.946   9.160   8.051  0.0506  0.0060 -0.1730
 1280ERGO    C116633   2.689   8.974   8.263  0.1904 -0.1622 -0.1494
 1280ERGO    C216634   2.556   8.732   8.303 -0.0007  0.1509  0.1355
 1281ERGO   ROH16635   0.288   1.395  10.452  0.0247  0.3410 -0.1667
 1281ERGO    R116636   0.176   1.291  10.214  0.2189  0.1520 -0.1781
 1281ERGO    R216637   0.016   1.442  10.046 -0.0424 -0.1190 -0.1773
 1281ERGO    R316638   0.196   1.365   9.858  0.1080  0.2073 -0.1742
 1281ERGO    R416639  -0.036   1.455   9.705 -0.1274 -0.3441 -0.1748
 1281ERGO    R516640   0.064   1.263   9.687  0.2954 -0.1437 -0.1219
 1281ERGO    C116641   0.103   1.390   9.330 -0.0358 -0.1689 -0.1704
 1281ERGO    C216642   0.047   1.245   9.084  0.0219  0.2410 -0.0038
 1282ERGO   ROH16643  11.348  12.744   9.817 -0.1232 -0.0165 -0.0370
 1282ERGO    R116644  11.354  12.964   9.639  0.0040 -0.0056 -0.0204
 1282ERGO    R216645  11.536  12.982   9.431  0.0173 -0.0933 -0.0184
 1282ERGO    R316646  11.312  13.015   9.281  0.0364  0.0455 -0.0168
 1282ERGO    R416647  11.534  13.044   9.092  0.0540 -0.0342 -0.0075
 1282ERGO    R516648  11.371  13.186   9.124  0.1248  0.0425  0.0134
 1282ERGO    C116649  11.322  13.112   8.752  0.0934  0.1304  0.0004
 1282ERGO    C216650  11.311  13.243   8.358 -0.0527 -0.3873  0.2055
 1283ERGO   ROH16651   5.434  11.068   9.858 -0.2438  0.0480  0.0127
 1283ERGO    R116652   5.309  11.122   9.610 -0.2233 -0.0208 -0.0124
 1283ERGO    R216653   5.391  11.328   9.444 -0.2965  0.0190  0.0012
 1283ERGO    R316654   5.409  11.129   9.260 -0.1574  0.0241  0.0073
 1283ERGO    R416655   5.338  11.367   9.105 -0.2342 -0.0162 -0.0134
 1283ERGO    R516656   5.233  11.176   9.104 -0.1420 -0.0650 -0.0359
 1283ERGO    C116657   5.324  11.203   8.734 -0.0673 -0.0318 -0.0163
 1283ERGO    C216658   5.298  11.101   8.421  0.0641 -0.1265 -0.0197
 1284ERGO   ROH16659  10.781   2.425   9.767 -0.2300 -0.0054  0.0712
 1284ERGO    R116660  10.858   2.399   9.496 -0.1698  0.0189  0.0847
 1284ERGO    R216661  10.963   2.164   9.393  0.1020  0.1040  0.1452
 1284ERGO    R316662  10.762   2.191   9.213  0.0858 -0.1537  0.1228
 1284ERGO    R416663  10.994   2.114   9.053  0.1237 -0.1211  0.1797
 1284ERGO    R516664  10.866   2.287   9.020  0.0179 -0.2289  0.0535
 1284ERGO    C116665  10.823   2.110   8.685  0.1214 -0.4941  0.1788
 1284ERGO    C216666  10.684   2.012   8.395  0.0189  0.1857  0.1725
 1285ERGO   ROH16667   3.818   0.623   9.875 -0.0624  0.1115  0.0081
 1285ERGO    R116668   3.926   0.677   9.618 -0.0529  0.0380 -0.0030
 1285ERGO    R216669   3.843   0.543   9.391 -0.2175  0.1433 -0.0025
 1285ERGO    R316670   3.801   0.795   9.298  0.0080  0.1958  0.0296
 1285ERGO    R416671   3.813   0.628   9.057 -0.4356  0.1552  0.0183
 1285ERGO    R516672   3.931   0.807   9.098 -0.1658  0.0157 -0.1016
 1285ERGO    C116673   3.756   0.914   8.776 -0.3509  0.2114  0.0605
 1285ERGO    C216674   3.664   0.888   8.370  0.1601  0.1927  0.2299
 1286ERGO   ROH16675   8.726  11.070   6.118  0.1414  0.1161  0.0544
 1286ERGO    R116676   8.859  11.087   6.367  0.1081  0.0257  0.0794
 1286ERGO    R216677   8.755  11.224   6.583  0.1050 -0.0037  0.1000
 1286ERGO    R316678   8.792  10.987   6.710  0.0332 -0.0446  0.0439
 1286ERGO    R416679   8.799  11.188   6.924  0.0903 -0.1016  0.0914
 1286ERGO    R516680   8.951  11.036   6.883  0.0444 -0.1352  0.0577
 1286ERGO    C116681   8.860  10.944   7.242  0.0143 -0.1972  0.0336
 1286ERGO    C216682   8.750  10.874   7.452 -0.0329 -0.0871 -0.1516
 1287ERGO   ROH16683  11.561   8.491   5.754  0.0127  0.1348  0.1399
 1287ERGO    R116684  11.568   8.348   5.998 -0.1678  0.2340  0.2050
 1287ERGO    R216685  11.803   8.255   6.110 -0.2951 -0.1773  0.1480
 1287ERGO    R316686  11.717   8.393   6.327  0.0630  0.1032  0.1208
 1287ERGO    R416687  11.890   8.184   6.437 -0.1462 -0.0649  0.1341
 1287ERGO    R516688  11.684   8.226   6.495 -0.0467  0.2662  0.2647
 1287ERGO    C116689  11.859   8.272   6.831  0.2769  0.2638  0.1005
 1287ERGO    C216690  11.865   8.267   7.084  0.0197 -0.2030  0.0108
 1288ERGO   ROH16691  16.954  13.273  10.157  0.0023 -0.1687 -0.0416
 1288ERGO    R116692  16.902  13.106   9.934 -0.2050 -0.0586 -0.0806
 1288ERGO    R216693  16.674  13.130   9.779 -0.1401  0.3232 -0.1400
 1288ERGO    R316694  16.853  13.151   9.576 -0.0471  0.0797 -0.0846
 1288ERGO    R416695  16.602  13.073   9.446 -0.0650  0.2727 -0.1466
 1288ERGO    R516696  16.795  12.973   9.427 -0.1565  0.0851 -0.0417
 1288ERGO    C116697  16.729  13.060   9.061  0.0661  0.0146 -0.0983
 1288ERGO    C216698  16.716  13.065   8.688  0.2806 -0.4748  0.0370
 1289ERGO   ROH16699  10.172  14.575   6.605  0.0550  0.0677  0.2197
 1289ERGO    R116700  10.397  14.523   6.769  0.0944  0.0102  0.1472
 1289ERGO    R216701  10.375  14.471   7.040  0.1756  0.1033  0.1712
 1289ERGO    R316702  10.515  14.247   6.976  0.0440  0.0161  0.1846
 1289ERGO    R416703  10.513  14.252   7.269  0.1834  0.1230  0.1857
 1289ERGO    R516704  10.688  14.236   7.140  0.1171 -0.0026  0.1078
 1289ERGO    C116705  10.724  13.914   7.342  0.0644  0.0527  0.2067
 1289ERGO    C216706  10.873  13.673   7.562  0.0404 -0.1931  0.0376
 1290ERGO   ROH16707  12.331  13.545   9.860  0.0878 -0.1925 -0.0369
 1290ERGO    R116708  12.227  13.521   9.598 -0.0413  0.0271 -0.0070
 1290ERGO    R216709  12.113  13.733   9.463  0.1708  0.2128  0.1154
 1290ERGO    R316710  12.296  13.668   9.272  0.0153  0.0562  0.0153
 1290ERGO    R416711  12.067  13.773   9.123  0.1349  0.5932  0.1592
 1290ERGO    R516712  12.165  13.581   9.092 -0.1989  0.4338 -0.0309
 1290ERGO    C116713  12.211  13.734   8.746 -0.0321  0.6676  0.0907
 1290ERGO    C216714  12.174  13.782   8.420  0.2344 -0.0815 -0.0150
 1291ERGO   ROH16715   3.406   8.213   6.752 -0.0246 -0.3270  0.1334
 1291ERGO    R116716   3.359   8.368   6.984 -0.0437 -0.2368  0.0710
 1291ERGO    R216717   3.126   8.350   7.130 -0.0799 -0.1461  0.0363
 1291ERGO    R316718   3.297   8.304   7.337 -0.1229 -0.1064  0.0794
 1291ERGO    R416719   3.033   8.325   7.462 -0.1723 -0.3381 -0.0032
 1291ERGO    R516720   3.211   8.439   7.516 -0.2733 -0.2379  0.1021
 1291ERGO    C116721   3.139   8.268   7.849 -0.2665 -0.4126  0.0142
 1291ERGO    C216722   2.974   8.222   8.249  0.0348 -0.2237  0.4370
 1292ERGO   ROH16723  14.159  11.624   9.463 -0.0826 -0.0029  0.1002
 1292ERGO    R116724  14.324  11.648   9.234 -0.1136  0.2224  0.1002
 1292ERGO    R216725  14.287  11.496   9.007  0.1709  0.0739  0.1507
 1292ERGO    R316726  14.280  11.739   8.885 -0.2658  0.0281  0.0669
 1292ERGO    R416727  14.359  11.550   8.673  0.4043  0.1244  0.2072
 1292ERGO    R516728  14.464  11.733   8.731 -0.0757  0.4011  0.2659
 1292ERGO    C116729  14.395  11.810   8.364  0.1300  0.1107  0.1615
 1292ERGO    C216730  14.433  11.700   7.955  0.1147 -0.3592 -0.1340
 1293ERGO   ROH16731  12.663   5.949   6.318  0.2566  0.0003  0.0396
 1293ERGO    R116732  12.546   6.054   6.553  0.0949  0.0829 -0.0760
 1293ERGO    R216733  12.643   5.996   6.805 -0.1379  0.0920  0.0142
 1293ERGO    R316734  12.652   6.266   6.829 -0.0624  0.0936 -0.0216
 1293ERGO    R416735  12.613   6.168   7.103 -0.0156  0.1338  0.0036
 1293ERGO    R516736  12.491   6.316   6.999 -0.0071  0.1538  0.0165
 1293ERGO    C116737  12.605   6.523   7.300  0.1264  0.1598 -0.0362
 1293ERGO    C216738  12.594   6.872   7.492  0.2564 -0.0412 -0.2381
 1294ERGO   ROH16739   3.001  16.793   6.111  0.1026  0.2308 -0.0265
 1294ERGO    R116740   3.053  16.795   6.389  0.1796  0.2759 -0.0410
 1294ERGO    R216741   3.008  16.575   6.550 -0.0892  0.4051  0.0629
 1294ERGO    R316742   3.269  16.612   6.619 -0.0134  0.0667 -0.0217
 1294ERGO    R416743   3.133  16.552   6.872 -0.0984  0.6247  0.0832
 1294ERGO    R516744   3.259  16.725   6.830  0.1900  0.3699 -0.1651
 1294ERGO    C116745   3.449  16.574   7.124 -0.0327  0.4349  0.0155
 1294ERGO    C216746   3.597  16.559   7.421  0.1873  0.1067 -0.0621
 1295ERGO   ROH16747   0.245  17.848   6.318 -0.2590 -0.3103 -0.0754
 1295ERGO    R116748   0.287  17.838   6.598 -0.2639 -0.2703 -0.0728
 1295ERGO    R216749   0.291  17.600   6.740 -0.0057 -0.2742 -0.0770
 1295ERGO    R316750   0.533  17.692   6.823 -0.1105 -0.0024 -0.0638
 1295ERGO    R416751   0.430  17.538   7.050 -0.0154  0.0221 -0.0102
 1295ERGO    R516752   0.500  17.744   7.055 -0.2108  0.0899 -0.1000
 1295ERGO    C116753   0.738  17.588   7.309 -0.1193  0.4499  0.0411
 1295ERGO    C216754   0.849  17.549   7.616  0.0366 -0.0236  0.1589
 1296ERGO   ROH16755   0.298  14.228   9.966 -0.2843 -0.1001 -0.0142
 1296ERGO    R116756   0.361  14.098   9.722 -0.0718 -0.0879  0.0315
 1296ERGO    R216757   0.169  14.039   9.532  0.0751 -0.1811 -0.0896
 1296ERGO    R316758   0.336  14.177   9.368  0.1224 -0.1194  0.0097
 1296ERGO    R416759   0.205  13.981   9.193  0.2969 -0.1745 -0.0684
 1296ERGO    R516760   0.420  14.011   9.215  0.2750 -0.0927  0.0606
 1296ERGO    C116761   0.382  14.077   8.841  0.4705 -0.1128  0.0373
 1296ERGO    C216762   0.328  14.102   8.449  0.0230  0.0597 -0.0886
 1297ERGO   ROH16763   9.980  10.139   9.229 -0.2071 -0.2170  0.0674
 1297ERGO    R116764   9.919  10.203   8.960  0.0143  0.0830  0.0833
 1297ERGO    R216765  10.110  10.292   8.782  0.2414 -0.0749  0.2403
 1297ERGO    R316766  10.021  10.084   8.631 -0.0153  0.1715  0.0425
 1297ERGO    R416767  10.213  10.224   8.459  0.2957 -0.0039  0.2424
 1297ERGO    R516768  10.006  10.174   8.409  0.2366  0.3578  0.0983
 1297ERGO    C116769  10.189   9.990   8.129  0.0862  0.2687  0.0577
 1297ERGO    C216770  10.233   9.727   7.871  0.5216 -0.1009 -0.0069
 1298ERGO   ROH16771   9.600   9.864   6.088 -0.3481  0.3180  0.2158
 1298ERGO    R116772   9.796   9.773   6.271 -0.2162  0.3274  0.0812
 1298ERGO    R216773   9.801   9.852   6.535 -0.0814  0.2692  0.0997
 1298ERGO    R316774   9.801   9.585   6.582  0.0138  0.2584  0.0370
 1298ERGO    R416775   9.944   9.699   6.811  0.1780  0.2289 -0.0541
 1298ERGO    R516776  10.015   9.540   6.679  0.1028  0.2772 -0.1501
 1298ERGO    C116777  10.026   9.358   7.014  0.4184  0.1953 -0.2025
 1298ERGO    C216778  10.161   9.118   7.225  0.0437  0.1446  0.2299
 1299ERGO   ROH16779   6.409  17.359   9.688 -0.1524 -0.0438 -0.0916
 1299ERGO    R116780   6.477  17.480   9.442 -0.1737 -0.0489 -0.0995
 1299ERGO    R216781   6.681  17.386   9.281 -0.0459  0.0775 -0.0113
 1299ERGO    R316782   6.486  17.380   9.092  0.0172 -0.1282 -0.0733
 1299ERGO    R416783   6.736  17.396   8.940  0.0538  0.0740  0.0039
 1299ERGO    R516784   6.564  17.528   8.921 -0.0618 -0.0827 -0.0709
 1299ERGO    C116785   6.584  17.396   8.564  0.1711 -0.1210 -0.0455
 1299ERGO    C216786   6.707  17.186   8.399 -0.2590 -0.1483 -0.0256
 1300ERGO   ROH16787   5.007   4.533  10.268  0.0011 -0.0472 -0.0444
 1300ERGO    R116788   4.995   4.396  10.020  0.0730 -0.0509 -0.0458
 1300ERGO    R216789   4.766   4.387   9.865  0.0895 -0.1386 -0.0634
 1300ERGO    R316790   4.932   4.483   9.673  0.0665 -0.0752 -0.0514
 1300ERGO    R416791   4.693   4.396   9.528  0.1191 -0.2028 -0.0716
 1300ERGO    R516792   4.898   4.337   9.486  0.1548 -0.1093 -0.0432
 1300ERGO    C116793   4.806   4.492   9.151  0.1147 -0.1806 -0.0650
 1300ERGO    C216794   4.813   4.511   8.868 -0.0765 -0.0843  0.0392
 1301ERGO   ROH16795  14.602  16.470  10.200 -0.3367  0.0677  0.0069
 1301ERGO    R116796  14.487  16.425   9.945 -0.1703  0.0946 -0.0742
 1301ERGO    R216797  14.393  16.630   9.786 -0.1496  0.1038 -0.0750
 1301ERGO    R316798  14.560  16.521   9.602 -0.0007  0.2129 -0.0068
 1301ERGO    R416799  14.323  16.599   9.449 -0.0746 -0.1205 -0.0715
 1301ERGO    R516800  14.415  16.402   9.452  0.1502 -0.0171  0.0247
 1301ERGO    C116801  14.439  16.478   9.080  0.1088 -0.1486 -0.0054
 1301ERGO    C216802  14.514  16.541   8.726  0.0651 -0.1742  0.0265
 1302ERGO   ROH16803  11.316  17.866  10.163 -0.1500 -0.0800  0.1216
 1302ERGO    R116804  11.352  18.020   9.928 -0.0007  0.0372  0.2198
 1302ERGO    R216805  11.540  17.958   9.736 -0.0240  0.0088  0.2078
 1302ERGO    R316806  11.326  17.966   9.569  0.0030  0.2771  0.1814
 1302ERGO    R416807  11.560  17.960   9.391  0.0234 -0.1718  0.2086
 1302ERGO    R516808  11.398  18.106   9.388  0.2507  0.0896  0.1277
 1302ERGO    C116809  11.370  17.968   9.034  0.0764 -0.0250  0.1843
 1302ERGO    C216810  11.433  17.896   8.647 -0.1313 -0.0954  0.0244
 1303ERGO   ROH16811   0.373   0.621   6.825  0.0884  0.1086  0.1478
 1303ERGO    R116812   0.210   0.593   7.054  0.1299  0.2166  0.1905
 1303ERGO    R216813   0.159   0.349   7.172 -0.2295  0.2114  0.0319
 1303ERGO    R316814   0.250   0.474   7.395  0.0671 -0.0983  0.0917
 1303ERGO    R416815   0.152   0.214   7.490 -0.4493  0.0300 -0.0464
 1303ERGO    R516816   0.096   0.410   7.567 -0.0410  0.1120  0.0781
 1303ERGO    C116817   0.235   0.253   7.885 -0.2988 -0.3663 -0.0357
 1303ERGO    C216818   0.495   0.076   8.075  0.0263  0.1098  0.0841
 1304ERGO   ROH16819   7.914  10.720  10.179  0.1627  0.1231 -0.0006
 1304ERGO    R116820   8.072  10.739   9.945  0.1038 -0.0240 -0.0524
 1304ERGO    R216821   8.118  10.524   9.778 -0.1962 -0.0532 -0.0935
 1304ERGO    R316822   8.023  10.692   9.587 -0.0714  0.0777 -0.0444
 1304ERGO    R416823   8.165  10.484   9.438 -0.4600 -0.1543 -0.1218
 1304ERGO    R516824   8.196  10.699   9.422 -0.1530 -0.1902 -0.1528
 1304ERGO    C116825   8.103  10.619   9.061 -0.4963 -0.0903 -0.0921
 1304ERGO    C216826   8.092  10.603   8.660 -0.0162  0.2178 -0.0407
 1305ERGO   ROH16827   6.241   1.871   6.002  0.0458 -0.0051 -0.0043
 1305ERGO    R116828   6.169   1.885   6.275  0.1108 -0.0374  0.0137
 1305ERGO    R216829   6.111   1.660   6.425  0.1706 -0.0514  0.0030
 1305ERGO    R316830   6.302   1.761   6.591  0.1964 -0.0512 -0.0250
 1305ERGO    R416831   6.140   1.584   6.761  0.0324  0.1569  0.0645
 1305ERGO    R516832   6.187   1.794   6.799  0.1555  0.1648 -0.0719
 1305ERGO    C116833   6.336   1.635   7.112 -0.0238  0.2784  0.0742
 1305ERGO    C216834   6.349   1.692   7.408 -0.0394  0.0284  0.1487
 1306ERGO   ROH16835  15.622   2.917  10.154  0.2438  0.0101  0.0335
 1306ERGO    R116836  15.513   2.951   9.895  0.1733  0.0566  0.0687
 1306ERGO    R216837  15.573   3.170   9.736  0.1419  0.0787  0.0849
 1306ERGO    R316838  15.642   2.979   9.556  0.0813  0.1017  0.0373
 1306ERGO    R416839  15.570   3.212   9.393  0.0069  0.1125  0.0896
 1306ERGO    R516840  15.490   3.011   9.374  0.0102  0.1120  0.0998
 1306ERGO    C116841  15.634   3.057   9.024 -0.1286  0.1538  0.0478
 1306ERGO    C216842  15.692   3.083   8.614  0.0103 -0.1946 -0.2091
 1307ERGO   ROH16843  14.299   0.854   6.489 -0.1200  0.0999  0.0690
 1307ERGO    R116844  14.086   0.890   6.672 -0.0667 -0.0393  0.1616
 1307ERGO    R216845  14.059   0.736   6.900  0.1504 -0.0373  0.1959
 1307ERGO    R316846  14.052   0.979   7.023  0.0280 -0.0262  0.1668
 1307ERGO    R416847  13.985   0.785   7.234  0.0158 -0.0201  0.1636
 1307ERGO    R516848  13.870   0.962   7.178 -0.0196 -0.0657  0.1034
 1307ERGO    C116849  13.937   1.041   7.545 -0.1775  0.0004  0.1174
 1307ERGO    C216850  13.931   0.990   7.967 -0.0773  0.0037 -0.1712
 1308ERGO   ROH16851   4.579  14.459   9.913 -0.0883  0.0820  0.0643
 1308ERGO    R116852   4.475  14.343   9.676  0.0329 -0.1348  0.1130
 1308ERGO    R216853   4.331  14.488   9.489 -0.2245 -0.3862  0.0949
 1308ERGO    R316854   4.518  14.390   9.318 -0.1012 -0.1576  0.0966
 1308ERGO    R416855   4.290  14.454   9.148  0.0175 -0.0132  0.0233
 1308ERGO    R516856   4.393  14.263   9.159  0.0373  0.0017 -0.1310
 1308ERGO    C116857   4.441  14.342   8.789  0.2741  0.4186 -0.0170
 1308ERGO    C216858   4.434  14.211   8.533  0.3228 -0.1115  0.0012
 1309ERGO   ROH16859  12.414   8.357   9.522 -0.1204 -0.2458  0.1561
 1309ERGO    R116860  12.505   8.236   9.283 -0.1328 -0.2416  0.1485
 1309ERGO    R216861  12.364   8.036   9.154 -0.2810 -0.0471 -0.0009
 1309ERGO    R316862  12.386   8.204   8.941 -0.0102  0.0233  0.0791
 1309ERGO    R416863  12.372   7.936   8.823 -0.1374  0.0836 -0.0376
 1309ERGO    R516864  12.525   8.086   8.786  0.0023 -0.0191  0.1251
 1309ERGO    C116865  12.397   8.035   8.431  0.2005  0.2257  0.0163
 1309ERGO    C216866  12.272   8.023   8.090 -0.3193  0.1343  0.2281
 1310ERGO   ROH16867   9.727  10.818   9.698  0.1503 -0.2203  0.1231
 1310ERGO    R116868   9.547  10.921   9.505  0.1868 -0.0698  0.1682
 1310ERGO    R216869   9.630  11.085   9.298  0.2573 -0.0627  0.2028
 1310ERGO    R316870   9.507  10.898   9.144  0.1352  0.0458  0.1662
 1310ERGO    R416871   9.601  11.102   8.954  0.1216  0.1039  0.2205
 1310ERGO    R516872   9.397  11.025   8.973  0.1042  0.1593  0.2683
 1310ERGO    C116873   9.469  10.936   8.609 -0.0721  0.3027  0.1964
 1310ERGO    C216874   9.500  10.845   8.277  0.1810  0.0601 -0.0428
 1311ERGO   ROH16875   8.261   1.405   9.290  0.4738 -0.0408 -0.0061
 1311ERGO    R116876   8.218   1.581   9.073  0.0853 -0.0773  0.0333
 1311ERGO    R216877   8.425   1.681   8.919 -0.1380  0.3108 -0.0298
 1311ERGO    R316878   8.280   1.578   8.714 -0.0375  0.0831  0.0098
 1311ERGO    R416879   8.469   1.762   8.586 -0.1843  0.1780 -0.0687
 1311ERGO    R516880   8.252   1.762   8.563 -0.1827 -0.0165 -0.0858
 1311ERGO    C116881   8.357   1.713   8.199 -0.1170 -0.1130 -0.0541
 1311ERGO    C216882   8.450   1.854   7.895  0.0841  0.1875  0.0342
 1312ERGO   ROH16883   4.465  11.754  10.003 -0.1360  0.0355 -0.0934
 1312ERGO    R116884   4.403  11.855   9.746 -0.0769  0.0394 -0.1064
 1312ERGO    R216885   4.590  11.871   9.544 -0.0479 -0.0249 -0.0859
 1312ERGO    R316886   4.405  11.728   9.405 -0.0724  0.0198 -0.0990
 1312ERGO    R416887   4.574  11.853   9.199  0.0727 -0.1512 -0.0858
 1312ERGO    R516888   4.356  11.865   9.214  0.0729 -0.0282 -0.1719
 1312ERGO    C116889   4.390  11.708   8.868  0.1200 -0.1826 -0.0981
 1312ERGO    C216890   4.286  11.563   8.657 -0.0153 -0.2465 -0.0289
 1313ERGO   ROH16891  11.660   9.838   9.442  0.1515 -0.2687 -0.1225
 1313ERGO    R116892  11.620   9.773   9.169 -0.1271 -0.1208 -0.1181
 1313ERGO    R216893  11.381   9.822   9.038 -0.1037  0.3907  0.0262
 1313ERGO    R316894  11.542   9.954   8.863  0.0663  0.1158 -0.0332
 1313ERGO    R416895  11.337   9.830   8.695 -0.1643  0.3746  0.0317
 1313ERGO    R516896  11.552   9.811   8.672 -0.1852  0.0465 -0.0056
 1313ERGO    C116897  11.463   9.958   8.332 -0.0398  0.1070 -0.0208
 1313ERGO    C216898  11.597  10.121   8.144 -0.2443  0.0121  0.2115
 1314ERGO   ROH16899  13.632  10.328   9.246 -0.1638  0.3669  0.0200
 1314ERGO    R116900  13.590  10.217   8.989  0.0525  0.1660  0.0669
 1314ERGO    R216901  13.383  10.298   8.824 -0.0848 -0.2720  0.0046
 1314ERGO    R316902  13.584  10.338   8.646 -0.1315  0.0002  0.0103
 1314ERGO    R416903  13.341  10.335   8.483 -0.1297 -0.1858  0.0198
 1314ERGO    R516904  13.519  10.213   8.453 -0.0081  0.0076 -0.0335
 1314ERGO    C116905  13.506  10.394   8.117 -0.1997  0.1200  0.0340
 1314ERGO    C216906  13.467  10.350   7.908  0.3508 -0.1632 -0.2364
 1315ERGO   ROH16907   1.951  12.624   9.915 -0.0962 -0.1615  0.0110
 1315ERGO    R116908   2.136  12.647   9.703  0.0172 -0.0718  0.1178
 1315ERGO    R216909   2.162  12.454   9.506  0.1176  0.0115  0.0462
 1315ERGO    R316910   2.121  12.665   9.339  0.2083  0.0857  0.1165
 1315ERGO    R416911   2.150  12.433   9.162 -0.1375  0.0942  0.0476
 1315ERGO    R516912   2.263  12.619   9.151  0.0372 -0.0134  0.0107
 1315ERGO    C116913   2.105  12.618   8.804 -0.2008  0.2119  0.1145
 1315ERGO    C216914   2.143  12.458   8.478  0.0567 -0.0719 -0.3672
 1316ERGO   ROH16915  10.829   6.467   9.739  0.0568 -0.0483 -0.0515
 1316ERGO    R116916  10.749   6.501   9.470  0.1592  0.0830 -0.0661
 1316ERGO    R216917  10.923   6.584   9.272  0.3022 -0.0843 -0.0117
 1316ERGO    R316918  10.838   6.358   9.147  0.0750  0.0287 -0.0654
 1316ERGO    R416919  10.985   6.507   8.941  0.1025 -0.0038 -0.0688
 1316ERGO    R516920  10.780   6.431   8.926  0.0366  0.1589 -0.0132
 1316ERGO    C116921  10.940   6.250   8.630 -0.2272  0.1491 -0.1526
 1316ERGO    C216922  11.094   5.971   8.378  0.1206  0.0319  0.1776
 1317ERGO   ROH16923  13.100   5.020   6.456 -0.0414  0.0376 -0.0300
 1317ERGO    R116924  13.087   4.915   6.719  0.0515 -0.1267 -0.0938
 1317ERGO    R216925  13.265   4.727   6.813  0.4171  0.2257 -0.1121
 1317ERGO    R316926  13.302   4.908   7.012 -0.0829  0.2006  0.0254
 1317ERGO    R416927  13.353   4.647   7.138  0.6986  0.1875 -0.1917
 1317ERGO    R516928  13.214   4.800   7.207  0.2348 -0.2439 -0.0411
 1317ERGO    C116929  13.440   4.771   7.514  0.3931  0.1416 -0.1090
 1317ERGO    C216930  13.477   4.567   7.757 -0.0668 -0.1652  0.0697
 1318ERGO   ROH16931   8.491  13.650  10.061  0.2106  0.3667  0.0341
 1318ERGO    R116932   8.270  13.677   9.885  0.1561  0.1665  0.0690
 1318ERGO    R216933   8.243  13.891   9.713 -0.0755  0.1523  0.0866
 1318ERGO    R316934   8.220  13.695   9.526  0.0830  0.1409  0.0775
 1318ERGO    R416935   8.150  13.942   9.384  0.0216  0.1129  0.0526
 1318ERGO    R516936   8.030  13.760   9.395  0.0996  0.0561  0.0084
 1318ERGO    C116937   8.074  13.787   9.017  0.2269  0.0791  0.0241
 1318ERGO    C216938   8.032  13.885   8.663  0.0348 -0.3980 -0.3323
 1319ERGO   ROH16939  13.287   8.695   8.968  0.0881 -0.1617  0.0816
 1319ERGO    R116940  13.304   8.545   8.729  0.2000 -0.1776  0.0987
 1319ERGO    R216941  13.187   8.629   8.493 -0.0026 -0.3669  0.1277
 1319ERGO    R316942  13.438   8.595   8.394  0.0111 -0.0447  0.0413
 1319ERGO    R416943  13.261   8.500   8.180  0.0609 -0.3261  0.1256
 1319ERGO    R516944  13.427   8.390   8.271  0.2452 -0.0858  0.0855
 1319ERGO    C116945  13.540   8.394   7.906  0.1107  0.0001  0.0433
 1319ERGO    C216946  13.510   8.399   7.585  0.1633  0.0547 -0.1500
 1320ERGO   ROH16947   9.409   1.697   6.248  0.1681 -0.0160  0.1365
 1320ERGO    R116948   9.239   1.672   6.473  0.0611  0.1588  0.0770
 1320ERGO    R216949   9.288   1.494   6.678 -0.2737 -0.0030  0.0241
 1320ERGO    R316950   9.268   1.716   6.833  0.0272 -0.0276  0.1027
 1320ERGO    R416951   9.215   1.492   7.015 -0.3019 -0.0211  0.0178
 1320ERGO    R516952   9.089   1.667   6.984 -0.0550  0.1710  0.0704
 1320ERGO    C116953   9.155   1.700   7.358 -0.0360 -0.0548  0.0879
 1320ERGO    C216954   9.081   1.691   7.698 -0.0641  0.0133 -0.1767
 1321ERGO   ROH16955  13.066  15.192  10.029 -0.0495  0.3542  0.0806
 1321ERGO    R116956  13.217  15.186   9.790 -0.1181  0.1348  0.0394
 1321ERGO    R216957  13.143  15.035   9.571 -0.2620  0.0457  0.1424
 1321ERGO    R316958  13.163  15.272   9.441 -0.1710 -0.0365  0.0054
 1321ERGO    R416959  13.113  15.076   9.229 -0.2210 -0.1343  0.1168
 1321ERGO    R516960  13.277  15.219   9.237 -0.1759 -0.1884  0.0452
 1321ERGO    C116961  13.114  15.323   8.908 -0.1117 -0.3163 -0.0267
 1321ERGO    C216962  13.117  15.178   8.620  0.1310 -0.1447  0.0089
 1322ERGO   ROH16963  16.615   1.345   6.471  0.0589 -0.2598 -0.0151
 1322ERGO    R116964  16.625   1.391   6.750  0.1129 -0.2005 -0.0236
 1322ERGO    R216965  16.497   1.604   6.870  0.2474 -0.0846 -0.0524
 1322ERGO    R316966  16.385   1.409   7.023  0.1441  0.0083 -0.0140
 1322ERGO    R416967  16.457   1.621   7.213  0.4987 -0.1269 -0.0213
 1322ERGO    R516968  16.514   1.411   7.225  0.2762 -0.1807 -0.1056
 1322ERGO    C116969  16.329   1.448   7.556  0.5478 -0.0643  0.0328
 1322ERGO    C216970  16.139   1.544   7.793  0.0808 -0.0857  0.1462
 1323ERGO   ROH16971  18.076  12.638   6.422 -0.1217 -0.0852 -0.0306
 1323ERGO    R116972  18.099  12.707   6.696  0.0834 -0.2355 -0.0068
 1323ERGO    R216973  17.920  12.875   6.823  0.3635 -0.0315  0.1388
 1323ERGO    R316974  17.898  12.667   6.996  0.1390 -0.0844  0.0496
 1323ERGO    R416975  17.749  12.885   7.123 -0.0208 -0.1333 -0.0700
 1323ERGO    R516976  17.910  12.769   7.213 -0.1381 -0.1585  0.0989
 1323ERGO    C116977  17.630  12.696   7.461 -0.4553 -0.2423 -0.2753
 1323ERGO    C216978  17.480  12.674   7.759  0.0479  0.1726  0.2917
 1324ERGO   ROH16979   5.761  11.931   9.728  0.1595 -0.1501 -0.0425
 1324ERGO    R116980   5.812  11.834   9.466  0.1070 -0.0659 -0.0840
 1324ERGO    R216981   5.610  11.779   9.286  0.0701 -0.0262 -0.0537
 1324ERGO    R316982   5.751  11.948   9.126  0.0200  0.0336 -0.0360
 1324ERGO    R416983   5.574  11.802   8.943  0.0965 -0.0355 -0.0573
 1324ERGO    R516984   5.790  11.821   8.927  0.0918  0.0517 -0.0341
 1324ERGO    C116985   5.685  11.974   8.593  0.0647  0.0151 -0.0427
 1324ERGO    C216986   5.734  11.907   8.263 -0.3993  0.1104 -0.0965
 1325ERGO   ROH16987  15.014  13.946   6.322  0.0991 -0.0704  0.0383
 1325ERGO    R116988  15.145  13.889   6.567  0.0760 -0.0399  0.0578
 1325ERGO    R216989  15.078  14.015   6.804  0.0308 -0.0345  0.0424
 1325ERGO    R316990  15.049  13.760   6.893  0.0517 -0.0329  0.0535
 1325ERGO    R416991  15.070  13.923   7.136  0.0528 -0.0220  0.0463
 1325ERGO    R516992  15.191  13.748   7.086  0.0618 -0.0162  0.0471
 1325ERGO    C116993  15.039  13.629   7.415  0.0852 -0.0133  0.0590
 1325ERGO    C216994  14.952  13.642   7.776 -0.0617  0.2202 -0.0894
 1326ERGO   ROH16995  14.650  16.293   6.452  0.0720 -0.1902 -0.0613
 1326ERGO    R116996  14.621  16.237   6.728  0.0380 -0.0023 -0.0262
 1326ERGO    R216997  14.761  16.036   6.855 -0.0541  0.0198  0.1055
 1326ERGO    R316998  14.835  16.237   7.022  0.0258  0.0927 -0.0161
 1326ERGO    R416999  14.810  16.004   7.196  0.4233  0.0874  0.0517
 1326ERGO    R517000  14.713  16.197   7.223  0.3181  0.0242  0.1562
 1326ERGO    C117001  14.907  16.175   7.551  0.7761  0.1951 -0.0938
 1326ERGO    C217002  14.920  16.100   7.948  0.2880  0.2068  0.1101
 1327ERGO   ROH17003   2.472   7.513   6.748  0.0345 -0.2327  0.1993
 1327ERGO    R117004   2.364   7.716   6.913  0.0917 -0.2261  0.2274
 1327ERGO    R217005   2.128   7.846   6.855  0.2326 -0.0119  0.1381
 1327ERGO    R317006   2.060   7.767   7.106  0.0090 -0.0754  0.0607
 1327ERGO    R417007   1.864   7.974   7.037  0.3391  0.2700  0.1015
 1327ERGO    R517008   1.990   7.969   7.214  0.2628 -0.0324  0.1568
 1327ERGO    C117009   1.646   7.974   7.379  0.1911  0.3746  0.0074
 1327ERGO    C217010   1.462   7.893   7.669 -0.0729  0.0647  0.2628
 1328ERGO   ROH17011   4.814   4.970  10.201 -0.0313 -0.1395  0.0640
 1328ERGO    R117012   4.859   4.876   9.938 -0.0992 -0.1318  0.0489
 1328ERGO    R217013   4.666   4.886   9.741 -0.1308 -0.0667  0.0798
 1328ERGO    R317014   4.859   5.018   9.602 -0.1186 -0.1054  0.0606
 1328ERGO    R417015   4.695   4.887   9.396 -0.2420  0.0392  0.0704
 1328ERGO    R517016   4.912   4.871   9.420 -0.2428 -0.0646 -0.0069
 1328ERGO    C117017   4.894   5.012   9.066 -0.2954  0.0646  0.0470
 1328ERGO    C217018   4.924   5.019   8.757 -0.0149  0.0125 -0.3207
 1329ERGO   ROH17019  11.055  15.238   6.638 -0.0423 -0.1165  0.1604
 1329ERGO    R117020  11.113  15.333   6.898 -0.2572 -0.0208  0.1759
 1329ERGO    R217021  10.957  15.271   7.118 -0.1626 -0.3577  0.1562
 1329ERGO    R317022  11.193  15.187   7.221  0.0066  0.1023  0.1688
 1329ERGO    R417023  10.996  15.123   7.427  0.1019 -0.3429  0.1319
 1329ERGO    R517024  11.178  15.238   7.454 -0.1289  0.0297  0.1764
 1329ERGO    C117025  11.240  14.957   7.705  0.4149  0.0977  0.1296
 1329ERGO    C217026  11.339  14.646   7.841 -0.1521 -0.0644  0.2250
 1330ERGO   ROH17027  10.883   3.470   9.554  0.1867  0.2332  0.0931
 1330ERGO    R117028  11.011   3.390   9.315  0.2191  0.3847  0.0593
 1330ERGO    R217029  10.895   3.215   9.135  0.4742  0.0452  0.2185
 1330ERGO    R317030  10.945   3.415   8.958 -0.0497  0.0724  0.0810
 1330ERGO    R417031  10.899   3.178   8.791  0.4042 -0.1400  0.2354
 1330ERGO    R517032  11.073   3.310   8.785  0.1168  0.2542  0.0871
 1330ERGO    C117033  10.950   3.344   8.425 -0.1284 -0.2224  0.1161
 1330ERGO    C217034  10.902   3.289   8.139 -0.1560 -0.0958 -0.0600
 1331ERGO   ROH17035  10.903  17.275   6.500 -0.2092 -0.2507  0.0491
 1331ERGO    R117036  10.776  17.289   6.753  0.0205 -0.0978  0.1607
 1331ERGO    R217037  10.906  17.227   6.989  0.2458  0.0762  0.0858
 1331ERGO    R317038  10.821  17.474   7.062  0.2849  0.1160 -0.0017
 1331ERGO    R417039  10.848  17.327   7.314 -0.1570  0.0628  0.0237
 1331ERGO    R517040  10.672  17.434   7.245 -0.0006  0.1762 -0.2147
 1331ERGO    C117041  10.735  17.618   7.573 -0.3550  0.0925 -0.0948
 1331ERGO    C217042  10.790  17.781   7.907  0.1040 -0.4342  0.0160
 1332ERGO   ROH17043  16.574   9.676   9.723 -0.4413  0.1451 -0.0159
 1332ERGO    R117044  16.650   9.574   9.470 -0.2289  0.0391  0.0877
 1332ERGO    R217045  16.485   9.408   9.322 -0.1396  0.0441 -0.0181
 1332ERGO    R317046  16.526   9.595   9.129  0.1066 -0.0305 -0.0425
 1332ERGO    R417047  16.497   9.343   8.983 -0.1269 -0.0278 -0.0041
 1332ERGO    R517048  16.662   9.485   8.966  0.0295 -0.2049  0.0095
 1332ERGO    C117049  16.543   9.480   8.604  0.1115 -0.1397 -0.0187
 1332ERGO    C217050  16.553   9.520   8.277 -0.2438 -0.1084 -0.1767
 1333ERGO   ROH17051  10.816   7.125   6.134 -0.1475 -0.0192  0.0067
 1333ERGO    R117052  10.646   7.184   6.352 -0.0875  0.0188  0.0436
 1333ERGO    R217053  10.447   7.013   6.436 -0.1037  0.0600  0.0906
 1333ERGO    R317054  10.571   7.038   6.677 -0.0450  0.0392  0.0625
 1333ERGO    R417055  10.338   6.868   6.731 -0.0764  0.1005  0.1207
 1333ERGO    R517056  10.391   7.052   6.835 -0.0071  0.0915  0.1010
 1333ERGO    C117057  10.391   6.808   7.128 -0.0053  0.1045  0.1117
 1333ERGO    C217058  10.467   6.621   7.450 -0.2817 -0.2270  0.2676
 1334ERGO   ROH17059  15.030   4.259   6.397 -0.2097 -0.0738  0.3952
 1334ERGO    R117060  15.076   4.260   6.676  0.0214  0.0046  0.3592
 1334ERGO    R217061  15.313   4.349   6.787  0.0339  0.2446  0.1540
 1334ERGO    R317062  15.147   4.509   6.932 -0.0024  0.1060  0.2667
 1334ERGO    R417063  15.360   4.434   7.119  0.2654  0.3993  0.0836
 1334ERGO    R517064  15.145   4.411   7.150  0.3198  0.1712  0.3013
 1334ERGO    C117065  15.231   4.633   7.448  0.3661  0.3593  0.1486
 1334ERGO    C217066  15.106   4.737   7.884  0.0917  0.3180  0.1092
 1335ERGO   ROH17067   7.739  10.769   6.286  0.0117  0.0401 -0.0059
 1335ERGO    R117068   7.899  10.764   6.519  0.0411  0.1529 -0.0219
 1335ERGO    R217069   7.877  10.953   6.719 -0.0664  0.1447 -0.0191
 1335ERGO    R317070   7.844  10.735   6.878  0.0955  0.1218 -0.0173
 1335ERGO    R417071   7.901  10.955   7.064 -0.0431  0.1518 -0.0215
 1335ERGO    R517072   8.006  10.764   7.053  0.0851  0.2274 -0.0296
 1335ERGO    C117073   7.884  10.750   7.414  0.1223  0.1344 -0.0212
 1335ERGO    C217074   7.779  10.521   7.654 -0.4630 -0.0397  0.0811
 1336ERGO   ROH17075   6.009   3.116   5.820 -0.1572  0.1281 -0.0459
 1336ERGO    R117076   5.997   3.196   6.091 -0.0985  0.1175 -0.0401
 1336ERGO    R217077   5.828   3.395   6.180 -0.1376  0.0588  0.0172
 1336ERGO    R317078   5.745   3.203   6.353 -0.0189  0.0267  0.0401
 1336ERGO    R417079   5.901   3.389   6.518 -0.1097  0.1293  0.0129
 1336ERGO    R517080   5.930   3.173   6.502  0.0093  0.1427  0.0299
 1336ERGO    C117081   5.865   3.205   6.877  0.0179  0.1402  0.0318
 1336ERGO    C217082   5.872   3.003   7.125 -0.0280 -0.0806  0.0749
 1337ERGO   ROH17083   3.871   5.549  10.049  0.0312  0.1749  0.0257
 1337ERGO    R117084   3.832   5.482   9.777 -0.0989  0.1977  0.0377
 1337ERGO    R217085   3.712   5.655   9.597  0.1162  0.3481  0.0321
 1337ERGO    R317086   3.940   5.612   9.455  0.0423  0.0127  0.0100
 1337ERGO    R417087   3.726   5.605   9.255  0.0102  0.2907  0.0363
 1337ERGO    R517088   3.877   5.452   9.288 -0.1998  0.0816  0.0342
 1337ERGO    C117089   3.948   5.536   8.923 -0.1209 -0.0577  0.0181
 1337ERGO    C217090   4.084   5.553   8.688  0.0617 -0.0817 -0.0156
 1338ERGO   ROH17091   8.050   6.429   6.331 -0.0371  0.1393 -0.0744
 1338ERGO    R117092   7.892   6.378   6.560  0.0899  0.2011  0.0279
 1338ERGO    R217093   7.930   6.158   6.722  0.0663  0.1527 -0.0361
 1338ERGO    R317094   7.947   6.345   6.919  0.3170  0.1096 -0.0136
 1338ERGO    R417095   7.974   6.087   7.057 -0.3909  0.0200  0.0043
 1338ERGO    R517096   7.832   6.246   7.105 -0.0819  0.3503 -0.1179
 1338ERGO    C117097   8.017   6.222   7.437 -0.4218 -0.0978  0.0488
 1338ERGO    C217098   7.936   6.058   7.802 -0.0757 -0.2247  0.1872
 1339ERGO   ROH17099   7.130  16.615  10.013 -0.0219  0.0225  0.0152
 1339ERGO    R117100   7.108  16.472   9.770 -0.0828  0.0089  0.0299
 1339ERGO    R217101   6.921  16.535   9.577  0.0089  0.1303 -0.0114
 1339ERGO    R317102   7.139  16.548   9.415  0.0497 -0.0631  0.0237
 1339ERGO    R417103   6.911  16.529   9.231  0.0329  0.2954 -0.0171
 1339ERGO    R517104   7.087  16.400   9.234 -0.1161  0.0731 -0.0498
 1339ERGO    C117105   7.110  16.537   8.879  0.0852  0.2100  0.0127
 1339ERGO    C217106   7.277  16.547   8.540 -0.3033 -0.1654 -0.3663
 1340ERGO   ROH17107   8.034   5.632   9.838 -0.1721  0.0869  0.1196
 1340ERGO    R117108   7.908   5.731   9.604 -0.0515  0.1126  0.0640
 1340ERGO    R217109   8.024   5.924   9.443  0.1367 -0.0317  0.0160
 1340ERGO    R317110   7.982   5.740   9.248  0.0208 -0.0679  0.0749
 1340ERGO    R417111   8.025   5.990   9.103  0.0351 -0.1225 -0.0020
 1340ERGO    R517112   7.856   5.855   9.081 -0.0048 -0.0813  0.0896
 1340ERGO    C117113   7.988   5.854   8.723 -0.1328 -0.2094  0.0427
 1340ERGO    C217114   7.916   5.926   8.402  0.0785  0.0122 -0.4895
 1341ERGO   ROH17115   8.573   7.301   9.786  0.0061 -0.1097  0.0623
 1341ERGO    R117116   8.617   7.201   9.524 -0.1798 -0.2136  0.0692
 1341ERGO    R217117   8.412   7.169   9.341 -0.2440  0.1751  0.0631
 1341ERGO    R317118   8.573   7.322   9.184  0.0672 -0.1423  0.0617
 1341ERGO    R417119   8.392   7.187   8.997 -0.1678  0.1729  0.0587
 1341ERGO    R517120   8.610   7.188   8.989 -0.1598 -0.2383  0.0830
 1341ERGO    C117121   8.532   7.341   8.649  0.1688 -0.1264  0.0547
 1341ERGO    C217122   8.545   7.313   8.273  0.0336 -0.2407  0.0442
 1342ERGO   ROH17123  11.588  11.393   9.391  0.2522  0.0343 -0.0512
 1342ERGO    R117124  11.495  11.554   9.177  0.0896 -0.0313 -0.0304
 1342ERGO    R217125  11.667  11.687   9.007 -0.0430  0.0535 -0.0952
 1342ERGO    R317126  11.527  11.555   8.815 -0.0342 -0.0363 -0.0417
 1342ERGO    R417127  11.649  11.782   8.675 -0.1184 -0.0412 -0.1199
 1342ERGO    R517128  11.438  11.729   8.676 -0.1033 -0.0989 -0.0762
 1342ERGO    C117129  11.508  11.713   8.301 -0.1542 -0.1807 -0.0841
 1342ERGO    C217130  11.702  11.817   7.933 -0.1149  0.2407 -0.2297
 1343ERGO   ROH17131  10.317   9.349   9.560 -0.1795 -0.3726  0.0899
 1343ERGO    R117132  10.459   9.402   9.321 -0.0243 -0.1656  0.2244
 1343ERGO    R217133  10.554   9.201   9.156  0.0974 -0.0278  0.1168
 1343ERGO    R317134  10.414   9.336   8.966  0.2098  0.1223  0.1387
 1343ERGO    R417135  10.577   9.144   8.816 -0.1226 -0.1340  0.1180
 1343ERGO    R517136  10.568   9.359   8.784  0.1656 -0.1323  0.0718
 1343ERGO    C117137  10.459   9.237   8.440 -0.1450 -0.0551  0.1395
 1343ERGO    C217138  10.320   9.068   8.192  0.2497  0.0009 -0.1622
 1344ERGO   ROH17139   4.083   2.149  10.081 -0.2281  0.0231 -0.0118
 1344ERGO    R117140   4.145   2.239   9.819 -0.0600 -0.1500 -0.0321
 1344ERGO    R217141   4.124   2.076   9.598 -0.4417 -0.1432 -0.0017
 1344ERGO    R317142   3.968   2.278   9.504 -0.0163  0.1913 -0.0192
 1344ERGO    R417143   4.059   2.136   9.263 -0.5817 -0.2593  0.0030
 1344ERGO    R517144   4.078   2.350   9.303  0.0047 -0.2558 -0.1825
 1344ERGO    C117145   3.875   2.361   8.981 -0.2639 -0.0128 -0.0105
 1344ERGO    C217146   3.750   2.490   8.717 -0.2612 -0.1119 -0.0186
 1345ERGO   ROH17147  12.639  12.589   9.737 -0.1841 -0.0203  0.1198
 1345ERGO    R117148  12.730  12.631   9.472 -0.1761 -0.2131  0.0919
 1345ERGO    R217149  12.609  12.513   9.253 -0.4449 -0.0283  0.1411
 1345ERGO    R317150  12.593  12.769   9.164 -0.0119 -0.0034  0.1095
 1345ERGO    R417151  12.656  12.612   8.925 -0.4817 -0.1839  0.0873
 1345ERGO    R517152  12.765  12.786   8.999 -0.0865 -0.3706 -0.0174
 1345ERGO    C117153  12.668  12.910   8.651 -0.0967 -0.2510  0.0262
 1345ERGO    C217154  12.664  13.103   8.312  0.4590  0.1519 -0.1899
 1346W        W17155  10.589   9.460   5.770  0.0861 -0.0175  0.3479
 1347W        W17156  11.452   5.184  14.081 -0.2542  0.0913 -0.0481
 1348W        W17157  11.189   5.384   0.531  0.2010 -0.0642  0.0967
 1349W        W17158   3.096  14.096  12.017  0.2846  0.1492 -0.2012
 1350W        W17159   2.546  11.805  12.105 -0.0214 -0.0751  0.0883
 1351W        W17160   0.549   4.996  11.906  0.2123 -0.0941 -0.0790
 1352W        W17161  10.911   7.083   4.582  0.2371  0.1986  0.0050
 1353W        W17162  16.466   1.864   5.138 -0.2125  0.0222  0.0605
 1354W        W17163   0.895  12.528   0.659 -0.1734  0.0281 -0.1499
 1355W        W17164   9.964  12.832   1.102  0.0954 -0.0208  0.2185
 1356W        W17165  14.804   3.801   1.116  0.2398 -0.2528  0.2260
 1357W        W17166   9.289   5.647   1.614 -0.1029  0.0328  0.0356
 1358W        W17167  13.009  13.650   3.161  0.1746  0.1789  0.1032
 1359W        W17168  11.118   0.004  13.727  0.0319 -0.0864  0.3499
 1360W        W17169  17.238  11.465   4.652  0.2401 -0.2065 -0.0542
 1361W        W17170   5.492  13.413   3.286 -0.1882  0.3473  0.1020
 1362W        W17171   1.785   8.623  16.240  0.4979  0.0017 -0.0702
 1363W        W17172   6.901   0.129   3.690 -0.2390 -0.0726 -0.0792
 1364W        W17173  12.928  13.133   0.295 -0.0672 -0.0925  0.0809
 1365W        W17174  13.895   2.635  10.601  0.0495 -0.2500  0.0252
 1366W        W17175   6.232   4.956   1.584 -0.2416  0.1950  0.0917
 1367W        W17176  16.097  17.261  13.280  0.4220 -0.1400 -0.0484
 1368W        W17177   9.143   3.976   2.729 -0.1848  0.2554 -0.0073
 1369W        W17178  13.050  13.929   0.499  0.4333 -0.4458  0.3376
 1370W        W17179   5.008  16.953  12.543  0.0710 -0.1340 -0.0396
 1371W        W17180   8.133  12.601   3.045  0.1845  0.3027 -0.0610
 1372W        W17181   7.272  16.569  12.861 -0.5486 -0.0428  0.1445
 1373W        W17182  13.747   0.534  13.633 -0.0867 -0.0830  0.1632
 1374W        W17183  16.114  17.626  14.128  0.2151  0.0074  0.0276
 1375W        W17184   0.495  18.177  15.429 -0.0110 -0.0378 -0.0770
 1376W        W17185   3.259   7.968   3.309 -0.0334  0.0852  0.1670
 1377W        W17186   8.805   5.260   1.656 -0.1303 -0.2675 -0.0870
 1378W        W17187   6.622   9.239  13.991  0.2059 -0.1293 -0.0590
 1379W        W17188  13.702  14.246  12.200  0.2422  0.0473  0.0005
 1380W        W17189   6.158  15.808   0.001 -0.1556 -0.1966 -0.2113
 1381W        W17190  13.695  11.912  12.168  0.0166 -0.2286  0.0579
 1382W        W17191   3.532   6.290   3.454 -0.3353 -0.0873  0.0895
 1383W        W17192  16.400   0.511  14.160  0.0721  0.1440  0.2603
 1384W        W17193  14.021   5.769  13.932 -0.0945 -0.1582  0.0520
 1385W        W17194   3.788   3.540  14.673 -0.0029 -0.0189  0.2131
 1386W        W17195  10.195  16.632  12.218 -0.2247  0.0114  0.0351
 1387W        W17196   4.267  13.595  12.444 -0.0699 -0.1084  0.2505
 1388W        W17197   2.370  15.841   5.358 -0.0332 -0.0448  0.0849
 1389W        W17198   3.135   9.653  13.465  0.3224  0.0968 -0.3436
 1390W        W17199   3.921  11.126   0.848  0.1131 -0.0868 -0.5157
 1391W        W17200  15.324  11.912  13.393  0.3090 -0.3379 -0.1872
 1392W        W17201   5.106   5.177   5.227  0.0452 -0.1282 -0.2181
 1393W        W17202   3.026   2.020   2.712  0.0350 -0.1475  0.4408
 1394W        W17203  14.403   2.433   5.698 -0.1197  0.2445 -0.1007
 1395W        W17204  14.152  13.951  13.734  0.1342 -0.0238  0.3507
 1396W        W17205  12.606   8.751   5.533  0.1378 -0.3275 -0.0860
 1397W        W17206   3.718   5.609  13.647 -0.2392  0.1105  0.0607
 1398W        W17207  10.158  13.208   3.149 -0.0535 -0.0164 -0.1952
 1399W        W17208  10.704   4.667  16.153  0.3288 -0.1771  0.0640
 1400W        W17209   3.440  16.904   1.859 -0.1730 -0.1758 -0.0527
 1401W        W17210  13.530  12.058  13.141 -0.2922 -0.4032  0.4185
 1402W        W17211   1.063   5.200  12.917  0.1177 -0.1079 -0.1807
 1403W        W17212   1.119   5.894   3.027 -0.0325 -0.0560 -0.0569
 1404W        W17213   1.446  10.880   4.157  0.1570 -0.1644 -0.2201
 1405W        W17214   7.644   0.838  11.181  0.0422  0.1402  0.1559
 1406W        W17215   3.265   3.575   4.174 -0.1436 -0.1983 -0.3931
 1407W        W17216   1.367  13.740  12.013 -0.4356 -0.3137  0.1613
 1408W        W17217  16.388   1.045   2.361 -0.0254 -0.2025 -0.1517
 1409W        W17218   8.423   7.768  16.109  0.4391 -0.1584 -0.0427
 1410W        W17219   6.001   9.603   0.338  0.2288 -0.0117  0.0581
 1411W        W17220  12.021   5.093   1.818 -0.0369  0.0573  0.3547
 1412W        W17221  15.169   7.563   1.386 -0.0280 -0.0137 -0.0523
 1413W        W17222   5.163  17.217   0.326  0.1263  0.1252  0.2152
 1414W        W17223  12.328   2.874  11.282 -0.0274  0.0955 -0.0563
 1415W        W17224  14.602   3.419  12.212 -0.4072 -0.0123  0.4395
 1416W        W17225  15.160   7.394   0.208  0.1234 -0.0461  0.4244
 1417W        W17226   6.871  12.446  12.740 -0.0692 -0.2541 -0.0193
 1418W        W17227  11.629   0.584   6.014  0.1849 -0.1740 -0.1194
 1419W        W17228  17.245   4.963   3.135  0.1858 -0.1185 -0.1165
 1420W        W17229   5.402  16.603  13.936  0.0967 -0.0870 -0.0643
 1421W        W17230   4.317   8.350  15.069  0.0820  0.1590  0.2409
 1422W        W17231   4.491  14.015  13.829  0.2564 -0.3608 -0.3054
 1423W        W17232   3.107  17.035   4.206  0.2846 -0.1111 -0.0523
 1424W        W17233  16.751   5.824  16.155  0.0597 -0.0755  0.3087
 1425W        W17234  11.674  18.030   4.932  0.1149 -0.0835  0.0494
 1426W        W17235   5.765   5.454   3.823  0.0198 -0.0063 -0.1143
 1427W        W17236  17.462  15.745   0.147 -0.0214 -0.1625  0.3305
 1428W        W17237  15.299   7.545   5.035 -0.2505  0.0580  0.2239
 1429W        W17238   7.323  18.193  11.532  0.2154  0.1786  0.2532
 1430W        W17239   0.384   9.237   5.515 -0.0293 -0.2941  0.1691
 1431W        W17240  17.740   9.544  13.358  0.0619 -0.0123 -0.1914
 1432W        W17241  11.579  14.083   5.857 -0.1104  0.0821  0.0682
 1433W        W17242   8.665  11.611   2.128  0.2175  0.0622 -0.0065
 1434W        W17243  17.940  17.159  11.845 -0.0509 -0.1227  0.1477
 1435W        W17244  17.901  12.371  16.147  0.2447  0.3556 -0.3404
 1436W        W17245   7.716   8.684   3.756 -0.1639 -0.2479  0.2666
 1437W        W17246  14.285  10.255  15.492  0.0751 -0.0313  0.2282
 1438W        W17247   8.660   0.414  13.690 -0.3382 -0.0566 -0.2004
 1439W        W17248   4.731  15.087   2.672  0.0136 -0.0387 -0.1092
 1440W        W17249   5.955  13.811   2.132  0.1377  0.1064  0.1171
 1441W        W17250   2.032   6.434  12.813 -0.1691  0.1703 -0.0038
 1442W        W17251  15.117   9.689  15.073 -0.0577  0.0025 -0.1888
 1443W        W17252  16.110  13.858   1.859 -0.3378  0.0191 -0.0560
 1444W        W17253  11.826  10.658   2.494  0.2447 -0.0153  0.1145
 1445W        W17254   3.837   2.822  15.545  0.0441  0.0681  0.1266
 1446W        W17255  16.203   4.335   0.607  0.2262 -0.0800 -0.0056
 1447W        W17256  11.848   5.257   3.832 -0.1970 -0.2281 -0.0909
 1448W        W17257  14.375  12.460  11.027 -0.1316 -0.0129 -0.0752
 1449W        W17258  15.625  12.763   3.904  0.0167  0.2866  0.2811
 1450W        W17259   4.466   4.526   1.379 -0.2096 -0.1196 -0.0922
 1451W        W17260  10.580   8.715  13.836 -0.4432  0.3678  0.2508
 1452W        W17261   6.749   1.427   1.665  0.3376  0.1058 -0.3117
 1453W        W17262  12.848   5.882   5.659  0.1276  0.2220 -0.1984
 1454W        W17263   8.006  10.368  11.850  0.1530 -0.1301  0.0329
 1455W        W17264   7.100   6.796   5.387 -0.0883 -0.1817  0.0494
 1456W        W17265   0.186  13.526  11.797 -0.0842 -0.2473  0.0710
 1457W        W17266  13.901  15.776   2.985  0.1476  0.0163  0.1490
 1458W        W17267   7.687   5.623  12.690  0.2809 -0.0530 -0.2303
 1459W        W17268  15.859   1.684   6.151  0.0736  0.0044  0.1684
 1460W        W17269   6.069  15.668  12.681 -0.3050 -0.0846 -0.1447
 1461W        W17270  13.566  13.916   1.188  0.0590 -0.1519  0.1086
 1462W        W17271  14.395   0.329   2.624  0.1986  0.0918 -0.1692
 1463W        W17272  12.611   2.215   0.628 -0.0421  0.0777  0.1986
 1464W        W17273   6.405   3.777  15.352  0.1185 -0.0261  0.4273
 1465W        W17274  11.292  17.114  15.045  0.3658  0.1479 -0.2461
 1466W        W17275  10.980  13.165   0.562  0.1823  0.0901 -0.0091
 1467W        W17276  12.725   2.039   3.044  0.5802  0.3369 -0.2161
 1468W        W17277   6.429   4.727  16.009 -0.0325  0.0949 -0.3536
 1469W        W17278  16.779   4.876   2.271 -0.0631  0.1955 -0.2324
 1470W        W17279  10.348   2.261  15.200  0.3540  0.2383  0.3331
 1471W        W17280   9.097  12.440  11.615 -0.1349  0.1389 -0.1269
 1472W        W17281  12.850   6.510   2.339 -0.3179 -0.2796  0.2085
 1473W        W17282  11.986  16.222  15.770  0.2428 -0.2496  0.0491
 1474W        W17283  15.036  16.936  15.356  0.0150 -0.3611  0.1066
 1475W        W17284   3.170  13.040  13.337  0.0305  0.1723  0.1499
 1476W        W17285  13.114   9.183  15.841  0.0666  0.2264  0.1712
 1477W        W17286  11.692   7.670  14.941  0.1022 -0.0449 -0.2136
 1478W        W17287  12.520  13.776   1.914 -0.1413  0.2351  0.0097
 1479W        W17288   7.324   7.335   2.342  0.1812  0.0604  0.4537
 1480W        W17289   0.492   9.044  14.946  0.0209 -0.3123 -0.1081
 1481W        W17290  14.396   1.182  14.184 -0.0068  0.2399 -0.0090
 1482W        W17291   4.242  17.303  14.029 -0.4871 -0.1456  0.1040
 1483W        W17292   4.814   3.904   5.263  0.0542 -0.1133  0.3872
 1484W        W17293  13.888  15.647   0.811  0.2630 -0.1005  0.0899
 1485W        W17294   0.335  17.895  13.679 -0.1909 -0.3289 -0.0329
 1486W        W17295   1.225   7.438   1.699  0.0586 -0.0192 -0.3570
 1487W        W17296  11.940   5.056  11.364 -0.2265  0.2050 -0.0463
 1488W        W17297   2.247  11.698   2.818 -0.1434 -0.0570 -0.0496
 1489W        W17298  15.761   7.603   1.128 -0.1019 -0.1952 -0.0872
 1490W        W17299  14.482   6.075  13.259  0.0599 -0.4901 -0.0966
 1491W        W17300   2.819   6.171  15.031  0.1227 -0.0981  0.0506
 1492W        W17301  13.019   1.394   1.472 -0.1763 -0.0929 -0.3552
 1493W        W17302   2.094  16.813   4.678 -0.0997 -0.2279 -0.0544
 1494W        W17303   1.301   0.602  12.456 -0.3682  0.0982 -0.0101
 1495W        W17304  17.997   6.435  12.921  0.0459 -0.1726 -0.2160
 1496W        W17305  12.708   9.563   2.424  0.0000 -0.2278 -0.0602
 1497W        W17306   4.202  12.353   2.048 -0.0402 -0.0674 -0.2918
 1498W        W17307  14.370   1.601  15.359 -0.2770 -0.1772  0.2402
 1499W        W17308   0.206   2.463  11.346 -0.1625  0.4170 -0.0406
 1500W        W17309   6.560  12.437   5.209  0.0666 -0.0428 -0.3506
 1501W        W17310   2.053  15.936   0.219 -0.1633 -0.0664  0.0860
 1502W        W17311   9.671   9.566   2.321  0.1595  0.3583 -0.2172
 1503W        W17312  16.614   2.501   0.893  0.0751  0.1619  0.2116
 1504W        W17313   3.801  16.088  16.000  0.0500 -0.0934 -0.0037
 1505W        W17314  14.851  12.171  11.698 -0.0687 -0.1299 -0.2660
 1506W        W17315  11.416   6.952   4.275 -0.1781  0.0718 -0.0436
 1507W        W17316  14.833  15.894   1.871 -0.0928  0.2401  0.1651
 1508W        W17317   5.265   4.680   1.456 -0.4070  0.0389  0.0676
 1509W        W17318  12.276  17.085   0.640  0.0139 -0.0079  0.4218
 1510W        W17319  10.330  13.363  16.283 -0.3209  0.1352 -0.2337
 1511W        W17320   3.755   7.608   1.232  0.0864  0.1873  0.1025
 1512W        W17321   8.341   1.592  14.947  0.3629  0.1970 -0.4974
 1513W        W17322  13.651   8.725  14.072 -0.1626  0.1332  0.2448
 1514W        W17323   9.146  11.274  11.411 -0.1764  0.2404  0.3106
 1515W        W17324  15.627   0.312  13.614 -0.1391 -0.1443  0.0150
 1516W        W17325  14.971   3.655  11.456 -0.0975  0.0217 -0.0033
 1517W        W17326  15.330  13.016   2.418 -0.1820 -0.0719 -0.1505
 1518W        W17327  18.048  17.232   0.096  0.2964  0.0966 -0.2021
 1519W        W17328   6.102   1.348  14.915 -0.1596 -0.2511 -0.2958
 1520W        W17329  13.045  16.241   3.616  0.0744 -0.2087 -0.0603
 1521W        W17330   2.856  12.830  11.512  0.0821 -0.0792  0.0906
 1522W        W17331   3.987   6.174   3.325  0.1469 -0.1332 -0.0969
 1523W        W17332   7.413   2.200  11.216 -0.0858  0.1582 -0.0581
 1524W        W17333  16.947  13.014   3.954 -0.1181 -0.0888 -0.1816
 1525W        W17334   7.037  10.527  13.468  0.0817  0.2693 -0.1635
 1526W        W17335  15.502   7.859   5.405 -0.0901 -0.3996  0.1276
 1527W        W17336  14.126   6.200   1.009 -0.2146  0.2525  0.1089
 1528W        W17337  14.430   8.962  15.444 -0.2022  0.0184 -0.0010
 1529W        W17338  16.123   3.688   2.734 -0.0373  0.0452  0.0492
 1530W        W17339   6.138  10.481  14.873 -0.1438 -0.1664 -0.1172
 1531W        W17340   3.382  14.539   1.523 -0.0027 -0.3750 -0.1380
 1532W        W17341   3.555   4.541   0.887  0.0537 -0.0815 -0.0148
 1533W        W17342  15.801   2.841   3.303 -0.0224  0.0156  0.0241
 1534W        W17343  16.546   8.920  14.029 -0.3548 -0.0431  0.0262
 1535W        W17344   3.934   1.468  13.732  0.0356  0.1149  0.0247
 1536W        W17345   1.495   3.192  15.681 -0.0003  0.0320 -0.1372
 1537W        W17346   9.902   8.694  15.898 -0.1082  0.0534 -0.1194
 1538W        W17347   2.240  10.863   2.094 -0.0157 -0.1863 -0.0264
 1539W        W17348  12.520   2.714  13.772 -0.0366 -0.0161  0.0342
 1540W        W17349   4.524  16.651  11.367  0.0578  0.0824  0.1518
 1541W        W17350  16.396   2.704  16.190 -0.2644  0.1518  0.0326
 1542W        W17351   8.502   5.258  13.966  0.0272  0.5144 -0.1334
 1543W        W17352   9.021   1.208   3.542 -0.1717  0.0703 -0.4343
 1544W        W17353   8.470  16.609  10.188 -0.2236 -0.1871  0.0163
 1545W        W17354  13.152   4.465   3.164  0.2748 -0.0340  0.2646
 1546W        W17355   8.728   3.571  12.473  0.0458  0.3216  0.2024
 1547W        W17356  17.918  16.312   4.971  0.1352 -0.0714 -0.0919
 1548W        W17357   2.854  18.153  13.811  0.2284  0.4389  0.0597
 1549W        W17358   7.410   7.956  15.682 -0.1807 -0.1299  0.0782
 1550W        W17359   4.169   5.693  13.470 -0.1309 -0.1849  0.2648
 1551W        W17360  10.004   1.360   1.159 -0.1488 -0.1564 -0.0729
 1552W        W17361   7.878  14.259   1.933  0.0965  0.0332  0.2228
 1553W        W17362  12.237  13.535  12.745  0.1007 -0.0027  0.0177
 1554W        W17363  12.309   4.060   3.776 -0.0416 -0.1879  0.3813
 1555W        W17364   4.315   4.514   1.937 -0.1003  0.1560  0.0975
 1556W        W17365  12.330   3.313   3.029 -0.0520  0.1754  0.0221
 1557W        W17366  16.512   8.527   4.291 -0.3518 -0.4727  0.1844
 1558W        W17367   1.118  17.416   2.803  0.1254 -0.0272  0.1620
 1559W        W17368  10.638   2.471   1.234 -0.0160  0.1269 -0.0156
 1560W        W17369   8.290   2.835   2.893 -0.1565  0.1411 -0.0499
 1561W        W17370  10.528   2.822   4.708 -0.2372 -0.3133 -0.1595
 1562W        W17371   7.725  16.092   3.801  0.0591  0.0274 -0.2919
 1563W        W17372   3.996  10.928  15.516 -0.0356  0.1299 -0.1405
 1564W        W17373   4.551   9.596   3.323 -0.3208  0.1128 -0.0567
 1565W        W17374   2.956   3.845   3.841  0.0839  0.2806  0.0691
 1566W        W17375   6.674  10.387  15.643 -0.1150  0.2737  0.0807
 1567W        W17376   3.595  17.562   3.310 -0.0374 -0.1157  0.1101
 1568W        W17377   3.375   0.564  11.124  0.0335 -0.0341  0.2412
 1569W        W17378   6.853   6.586   0.679  0.1731  0.2203  0.0258
 1570W        W17379   7.794   4.959  11.455 -0.0582  0.0086  0.4445
 1571W        W17380  15.692   4.474  13.296 -0.0285 -0.2332  0.0481
 1572W        W17381  12.607  15.582   5.102  0.2869 -0.0280 -0.0461
 1573W        W17382   8.909  12.970   5.121  0.0804  0.0958 -0.0933
 1574W        W17383   6.330  15.628  14.988  0.2883 -0.0835  0.0763
 1575W        W17384  13.087  17.742  13.653 -0.0079  0.0320  0.1421
 1576W        W17385   7.475   7.416   5.790  0.0279  0.0154  0.0988
 1577W        W17386   8.680  10.216   2.924  0.3426 -0.0335  0.2446
 1578W        W17387  17.686  13.948  14.635  0.0251 -0.1248 -0.1520
 1579W        W17388  18.168   4.134   3.672  0.1138 -0.1849 -0.5168
 1580W        W17389  11.203  15.469   0.595  0.1557  0.2127 -0.0963
 1581W        W17390  18.086   8.878  11.649 -0.0642 -0.2468  0.1642
 1582W        W17391   0.671   9.486  15.796 -0.0369  0.3230 -0.3276
 1583W        W17392  17.906   0.928   2.321  0.1130  0.0020  0.2353
 1584W        W17393   6.400  12.973   5.850 -0.0832 -0.1230 -0.0050
 1585W        W17394  16.024  16.870  11.403  0.0684 -0.0902 -0.1123
 1586W        W17395   1.133  16.542  13.187 -0.1570 -0.1393 -0.2699
 1587W        W17396  13.443   5.971   1.530  0.3502  0.1926 -0.0757
 1588W        W17397  10.210   7.365   0.988 -0.2994  0.0147 -0.0339
 1589W        W17398  10.411  14.313  14.826  0.0077  0.3043  0.0620
 1590W        W17399  14.185  16.003  15.894 -0.2139 -0.6398  0.1336
 1591W        W17400  13.582   4.105  16.109 -0.0818 -0.0692 -0.0480
 1592W        W17401  16.505  14.740   0.663  0.3394 -0.0639  0.1522
 1593W        W17402  16.703  16.237   3.667 -0.4011  0.0428 -0.2953
 1594W        W17403   6.118  11.843  11.173  0.0321 -0.4455 -0.1280
 1595W        W17404   4.403  11.514   2.348  0.0453  0.0233  0.1933
 1596W        W17405  10.832   1.967  13.845  0.0733 -0.1924  0.0932
 1597W        W17406   6.165  13.032   2.683  0.0248 -0.3027  0.1308
 1598W        W17407   7.860   5.921  11.300 -0.0576  0.0773 -0.2176
 1599W        W17408  14.192  13.587  10.558 -0.1170  0.1056 -0.2532
 1600W        W17409   5.678   4.117  15.054  0.2025 -0.0931 -0.0994
 1601W        W17410  13.508   5.793  12.488  0.1470 -0.1819  0.2882
 1602W        W17411   1.942   8.493  15.327 -0.1523 -0.0915  0.1234
 1603W        W17412   7.805  17.196   2.182  0.0019 -0.0965 -0.2351
 1604W        W17413  10.247  14.764  14.757  0.2042  0.0622  0.0133
 1605W        W17414   8.621   1.616  12.438 -0.1429  0.0857 -0.2161
 1606W        W17415   2.664  15.770   1.513  0.0208 -0.0411  0.0476
 1607W        W17416   9.363   8.694   2.902  0.2315  0.0133  0.1291
 1608W        W17417  11.981   3.196  11.476  0.1086 -0.0855 -0.0548
 1609W        W17418   7.682  17.335  14.295 -0.3662  0.2861  0.1112
 1610W        W17419  12.566   3.976   0.063  0.1109 -0.1611  0.0354
 1611W        W17420   5.615   6.385  15.755 -0.0733  0.0373  0.0113
 1612W        W17421  17.228  14.031  11.245  0.0967  0.3472 -0.2587
 1613W        W17422   3.994   9.588  14.190 -0.3944  0.2843  0.3256
 1614W        W17423  18.091  10.987   1.517  0.4446 -0.1554  0.1762
 1615W        W17424   6.061  13.399  15.005 -0.0594 -0.0918 -0.3401
 1616W        W17425  13.952  17.239   5.374  0.2222  0.2981 -0.0895
 1617W        W17426   3.539  14.751   3.571 -0.0311 -0.2007  0.1746
 1618W        W17427   1.417   1.637   1.459  0.1114 -0.0453 -0.0913
 1619W        W17428   4.847   5.075   3.684 -0.2183 -0.1110  0.0307
 1620W        W17429   8.519  11.274   4.737 -0.0381 -0.0766  0.1784
 1621W        W17430  14.184   0.116   1.520 -0.1565 -0.2454 -0.0163
 1622W        W17431   8.768  16.850   4.311  0.0501  0.0195 -0.1733
 1623W        W17432  15.783   3.622  15.350 -0.1123 -0.1316 -0.1340
 1624W        W17433   4.018  11.388   5.166  0.0756  0.0153 -0.0219
 1625W        W17434   8.612   7.574  11.714 -0.0957 -0.0963 -0.2274
 1626W        W17435   5.098  16.395   9.958 -0.0928 -0.0579 -0.0658
 1627W        W17436   3.557   2.458  15.857 -0.0876 -0.0766 -0.0279
 1628W        W17437  11.258   3.974   4.132 -0.1033  0.3170 -0.0345
 1629W        W17438   5.817   8.534   4.662  0.0484 -0.1514  0.2841
 1630W        W17439   2.297  12.203  14.111  0.2484  0.0435 -0.0934
 1631W        W17440  11.990  11.845  13.626  0.0230 -0.0368 -0.0297
 1632W        W17441   9.340   7.536   0.870  0.2031  0.1864  0.4181
 1633W        W17442  18.021  10.501  13.859  0.1309  0.0360 -0.0512
 1634W        W17443  16.910  10.464  11.691 -0.0832 -0.0242  0.3156
 1635W        W17444  13.019  15.410  12.226  0.1206 -0.2045  0.0778
 1636W        W17445   8.188   4.753   0.578  0.2498  0.3015 -0.1471
 1637W        W17446   8.031  16.281  15.529 -0.1418  0.0670 -0.2196
 1638W        W17447  15.921  10.471  15.219 -0.1391 -0.2055  0.1138
 1639W        W17448  12.662  10.157   0.390  0.0358 -0.4412 -0.2111
 1640W        W17449   5.499   1.323   4.067  0.2199 -0.2884  0.1151
 1641W        W17450   3.945  11.854  16.194  0.0542 -0.0659  0.0822
 1642W        W17451   5.260   7.437  10.885 -0.1395  0.2868 -0.0838
 1643W        W17452   9.303   4.818   0.979  0.1896  0.1552  0.1507
 1644W        W17453   6.153   6.482   2.897 -0.0106 -0.3521  0.0344
 1645W        W17454  16.471  15.817   4.546 -0.3957 -0.1989  0.0972
 1646W        W17455  12.220  14.364   3.036  0.1039  0.3352  0.1238
 1647W        W17456   2.715   4.820  15.615  0.0696 -0.2525  0.1474
 1648W        W17457   5.834   9.800  14.595  0.1818  0.0412 -0.3174
 1649W        W17458   1.169   4.739   3.818  0.1242  0.2297  0.1692
 1650W        W17459   6.187   0.540  11.449  0.3378  0.0445 -0.3423
 1651W        W17460  11.487   2.558   0.351 -0.1742  0.2373 -0.1560
 1652W        W17461   5.758  15.635  13.618  0.0267  0.3119 -0.0866
 1653W        W17462  14.215  11.481   1.539  0.0159 -0.0138 -0.0359
 1654W        W17463   5.686   9.370  11.844 -0.0243  0.0196  0.0345
 1655W        W17464  13.823   2.778  15.661  0.1007  0.0112 -0.0748
 1656W        W17465  10.221  16.326  10.847  0.2072 -0.2046 -0.0306
 1657W        W17466  14.365   3.950   3.144 -0.1101 -0.0782 -0.2999
 1658W        W17467   5.799  14.046   3.813 -0.1309 -0.0392 -0.1541
 1659W        W17468  16.315  12.482   4.526 -0.0120 -0.0831 -0.0647
 1660W        W17469  11.735  15.176   4.984 -0.0305 -0.2490  0.0062
 1661W        W17470   8.798  17.386  13.370  0.2063 -0.0093  0.2227
 1662W        W17471   1.516  15.808   1.660  0.2383  0.0519  0.3349
 1663W        W17472   2.842   5.295   3.184  0.0807  0.0269  0.0631
 1664W        W17473  14.264   7.429   1.236 -0.1589  0.0898  0.3433
 1665W        W17474   6.700  17.301   1.852  0.3845 -0.0087  0.1128
 1666W        W17475   5.843  10.253  11.804  0.0298 -0.1688 -0.1653
 1667W        W17476   1.964  13.369   0.879 -0.0702 -0.1681  0.0636
 1668W        W17477   1.729   0.356  15.834  0.1500 -0.0131  0.1809
 1669W        W17478   7.574  11.306  13.589  0.0651  0.3090  0.1331
 1670W        W17479  13.038   9.927   0.166  0.0647 -0.1541 -0.2575
 1671W        W17480  10.883   2.966  15.533 -0.0730 -0.0248  0.1384
 1672W        W17481  14.320  13.103   3.584 -0.0837  0.0808  0.2197
 1673W        W17482   6.265  13.574  12.405  0.0301  0.0703 -0.2880
 1674W        W17483  12.837   6.194  11.237  0.0945 -0.2363  0.0929
 1675W        W17484   4.956  12.204  14.888 -0.0961  0.2124 -0.4928
 1676W        W17485   6.602  15.617  14.429  0.0712 -0.2329 -0.0019
 1677W        W17486   0.982  16.409   1.918  0.1825 -0.1204 -0.1703
 1678W        W17487  11.940   5.949   2.529  0.2224  0.2977  0.3087
 1679W        W17488   2.445  16.375  12.411  0.1326  0.0431  0.2492
 1680W        W17489   2.036  13.491   2.137 -0.2220 -0.0851  0.0127
 1681W        W17490  17.696  11.885  16.087 -0.0074 -0.1250 -0.0378
 1682W        W17491   0.766  15.321   2.794 -0.0923 -0.2959  0.2386
 1683W        W17492  13.618   7.791   5.772  0.0748  0.3035  0.0307
 1684W        W17493   7.870   4.047   2.040 -0.1326 -0.1255 -0.0114
 1685W        W17494   6.242  17.092   3.636  0.2642 -0.3493 -0.3109
 1686W        W17495  15.009   3.632   4.344  0.0354 -0.1608 -0.2201
 1687W        W17496  14.645   8.492   0.945 -0.0214 -0.2331 -0.2471
 1688W        W17497  10.198   1.272  15.494 -0.1251 -0.1611  0.0772
 1689W        W17498   7.180   4.621   4.688  0.0001  0.2722 -0.0346
 1690W        W17499  17.992   9.642   3.230  0.1343 -0.2948  0.0145
 1691W        W17500  14.429  15.851   4.579  0.0880 -0.0705  0.0810
 1692W        W17501   7.745   9.862   4.101  0.1987 -0.0238  0.1552
 1693W        W17502  13.581  11.819   5.763  0.2300 -0.0057  0.3029
 1694W        W17503   9.969   5.924   3.312  0.1594 -0.0714  0.1607
 1695W        W17504  11.703   1.116   1.623 -0.2095  0.1530 -0.0235
 1696W        W17505   9.595  15.916  13.256 -0.0050 -0.0643  0.0573
 1697W        W17506   2.665  13.839  11.739  0.0800 -0.0872  0.1239
 1698W        W17507   7.258  17.392  11.181  0.0127  0.2158 -0.0964
 1699W        W17508   3.579   4.261   5.349  0.0993 -0.0495 -0.0204
 1700W        W17509   7.224  12.394   0.061  0.2464  0.0012  0.0359
 1701W        W17510   6.420  11.890   2.244  0.0541 -0.0873 -0.1137
 1702W        W17511  17.065   9.342  11.417 -0.2081  0.1107  0.0821
 1703W        W17512   7.160   1.228  12.018 -0.1107 -0.3141 -0.1398
 1704W        W17513  12.009   2.430   0.359  0.0511 -0.3813 -0.1803
 1705W        W17514  15.353  12.567   2.187  0.1597  0.1652 -0.1209
 1706W        W17515   2.817   7.433   1.494 -0.0928  0.1356 -0.1555
 1707W        W17516  14.413  11.705  12.351 -0.2114 -0.0927  0.0473
 1708W        W17517   0.672   9.998  13.015 -0.1333  0.0036 -0.2509
 1709W        W17518   8.437   0.779   4.528 -0.4329  0.1374 -0.2443
 1710W        W17519  15.962   4.329   1.106  0.0363 -0.1147  0.1374
 1711W        W17520  13.802  13.352   4.850 -0.0246 -0.0864 -0.2221
 1712W        W17521   0.506   9.360  13.183  0.3230 -0.2649  0.1448
 1713W        W17522  16.184   5.003  12.237  0.0133  0.1005  0.1421
 1714W        W17523  14.263  13.324  14.462 -0.1057 -0.3313  0.1767
 1715W        W17524   6.256  17.597  14.171 -0.1154  0.0846 -0.0563
 1716W        W17525  10.617   6.232   2.943  0.2260  0.0977 -0.0986
 1717W        W17526  11.647  16.795   2.111  0.2120  0.1226 -0.0114
 1718W        W17527  11.054  14.461  15.123 -0.2401 -0.0755  0.3807
 1719W        W17528   3.624  14.692   0.228  0.0536 -0.1947  0.3577
 1720W        W17529  12.005   7.407  11.850  0.1366 -0.0028  0.1252
 1721W        W17530  12.968  11.652   1.214  0.1261  0.0584 -0.1246
 1722W        W17531   8.430  15.582   1.550  0.2914  0.1102  0.6138
 1723W        W17532  12.323  15.624   2.788 -0.0667 -0.1264 -0.1472
 1724W        W17533  16.432   8.717   1.028  0.1097  0.5479  0.1410
 1725W        W17534  17.180   9.439   3.835  0.0981 -0.0895 -0.3008
 1726W        W17535   2.253   4.104   5.033  0.3639  0.0069  0.0729
 1727W        W17536  15.263  12.416  13.539 -0.0806 -0.3319 -0.0947
 1728W        W17537  10.826   8.738   1.169 -0.2288 -0.1204 -0.0114
 1729W        W17538  14.654   6.729  14.000  0.0340  0.2214 -0.1461
 1730W        W17539  14.780   7.583  13.621 -0.2471 -0.2358 -0.1706
 1731W        W17540   1.188   3.683   0.829 -0.0464 -0.1164  0.2061
 1732W        W17541   2.538   3.711   3.443  0.1425  0.0161  0.1338
 1733W        W17542   4.906   1.314   5.197 -0.1161  0.1520  0.0487
 1734W        W17543   8.955   9.512   1.885 -0.0102 -0.1885  0.3452
 1735W        W17544  15.189   8.393   1.081 -0.1516 -0.5794 -0.0967
 1736W        W17545   6.905   4.804   3.951 -0.1756  0.1674 -0.0521
 1737W        W17546   8.105  17.170  12.707  0.0790  0.2538 -0.0311
 1738W        W17547  10.440  13.819  13.811 -0.2028 -0.0334  0.1088
 1739W        W17548  11.316   1.175   4.502  0.2309  0.0954 -0.3293
 1740W        W17549   4.822   6.729  14.587 -0.0351 -0.0930  0.0815
 1741W        W17550   5.168   4.927   0.551 -0.1838 -0.0709  0.1242
 1742W        W17551   3.239  16.276   1.822  0.0305 -0.2315  0.1691
 1743W        W17552   9.956   2.524   1.783  0.0384  0.0514  0.1286
 1744W        W17553  14.427   9.852   4.293 -0.1632 -0.2151 -0.0312
 1745W        W17554  12.870  17.590   1.869 -0.2632  0.2053 -0.1168
 1746W        W17555   0.726  13.618   3.472 -0.1410  0.1192  0.0191
 1747W        W17556   0.042   9.590   4.204  0.3278  0.1900 -0.0280
 1748W        W17557   4.952   6.258  12.617  0.2412  0.0032 -0.0093
 1749W        W17558   2.807   8.800   3.423 -0.0051  0.0143 -0.1319
 1750W        W17559   9.707   8.925  12.176  0.1557 -0.1254 -0.0207
 1751W        W17560   3.359  15.222   0.056  0.2859 -0.0947 -0.0029
 1752W        W17561   6.498   4.520   5.853  0.1894  0.3335 -0.1408
 1753W        W17562   7.672   8.943  13.229  0.1251  0.3812  0.3420
 1754W        W17563  18.142  16.809   4.086  0.2504  0.0611  0.2069
 1755W        W17564  16.320  16.813   3.451  0.2643  0.2102  0.0570
 1756W        W17565  12.478  17.583  15.608  0.1717 -0.1938  0.0507
 1757W        W17566   5.249  13.586  12.628 -0.1119  0.0846  0.1772
 1758W        W17567  13.576  16.505   1.290  0.0956  0.1888 -0.0312
 1759W        W17568   0.978  16.670  14.837 -0.3093 -0.2002 -0.1531
 1760W        W17569  18.089   7.804   2.892  0.0843  0.1032 -0.0374
 1761W        W17570   2.855  12.826  12.079  0.2617  0.4929  0.0696
 1762W        W17571   1.342  14.570  15.278  0.1589  0.0230 -0.2184
 1763W        W17572  14.647   9.427   4.231  0.3832 -0.0817 -0.0282
 1764W        W17573   9.567   5.959  14.763  0.2341 -0.1622 -0.0395
 1765W        W17574  16.110  17.314  12.768 -0.0564 -0.4283  0.1191
 1766W        W17575   7.338   4.968  11.605  0.1660 -0.2428 -0.0238
 1767W        W17576   6.969   5.311   5.624  0.2203  0.0289  0.1775
 1768W        W17577  13.774  13.973  11.301  0.0069  0.0148 -0.0379
 1769W        W17578  10.355  12.752  12.188 -0.1720  0.1206 -0.0438
 1770W        W17579  12.611   6.430  13.144  0.1062  0.1103 -0.1390
 1771W        W17580  11.152  16.657  12.897 -0.1872 -0.4087  0.2433
 1772W        W17581  17.002  13.385   0.200 -0.3520 -0.0572 -0.1712
 1773W        W17582   4.476   6.427  12.012 -0.1685 -0.0059 -0.0592
 1774W        W17583  13.108  17.938   1.596  0.2299 -0.0050 -0.1536
 1775W        W17584   8.665   0.587   3.372  0.0112  0.0112  0.0867
 1776W        W17585   7.322   1.959  16.269 -0.1175  0.0375  0.0706
 1777W        W17586   7.242   1.730  11.209  0.1406 -0.1151 -0.1215
 1778W        W17587   3.175  15.367   2.114 -0.2499 -0.0989 -0.0231
 1779W        W17588   7.908   0.023   2.387  0.1972  0.2051  0.1501
 1780W        W17589  16.713   9.350   5.908  0.4006 -0.0504  0.1828
 1781W        W17590   7.046  16.154   0.904  0.0527 -0.0551 -0.1151
 1782W        W17591  13.528  12.549   0.301 -0.3091  0.1328 -0.1664
 1783W        W17592  16.158  10.116   3.056 -0.0864  0.2820 -0.3176
 1784W        W17593  15.204   6.662  12.900 -0.0505 -0.0127  0.1015
 1785W        W17594  17.386  11.450   1.153  0.0942  0.1315  0.1077
 1786W        W17595   7.929   2.434   5.192  0.2426  0.2884 -0.1013
 1787W        W17596  17.055  14.640   2.922  0.1837  0.1911  0.2505
 1788W        W17597   8.099  12.742  15.957  0.2238  0.1190  0.0173
 1789W        W17598  13.142  10.410   0.102  0.0697  0.0498  0.2479
 1790W        W17599   2.229   9.612   4.806  0.2314 -0.1106  0.1330
 1791W        W17600   8.290   1.944  11.778 -0.0091 -0.0569 -0.0951
 1792W        W17601  10.123   5.915  10.166  0.0358 -0.0502  0.0781
 1793W        W17602  18.200  16.379  15.420  0.1674 -0.0094 -0.0701
 1794W        W17603   4.082   4.323   4.700 -0.1360  0.0091 -0.4187
 1795W        W17604  16.418   8.901   5.291  0.0739 -0.0308  0.1072
 1796W        W17605   6.447   0.253  13.006  0.0860  0.1919 -0.1558
 1797W        W17606   6.310  14.980   4.311  0.1190 -0.2423 -0.0131
 1798W        W17607   7.600  10.171   4.560 -0.0981 -0.1128 -0.1020
 1799W        W17608  12.173   3.390  15.179  0.2769 -0.0811  0.0455
 1800W        W17609   0.826   3.776   2.764  0.1983  0.0051 -0.0787
 1801W        W17610   9.125  16.160  11.528  0.1042 -0.0029  0.2939
 1802W        W17611  13.411  12.676  15.261  0.0239 -0.3526 -0.2180
 1803W        W17612  17.300  10.302  14.882  0.2591  0.3813 -0.1002
 1804W        W17613  17.017   2.831  14.839  0.1290 -0.0523  0.0893
 1805W        W17614   2.227   8.972   3.331 -0.0784  0.0557 -0.1321
 1806W        W17615   3.172   6.512   2.694 -0.0208 -0.2802 -0.1693
 1807W        W17616   8.071   6.352   3.747  0.0083  0.0328 -0.2694
 1808W        W17617   3.066  10.138   1.496  0.3304  0.0543  0.0388
 1809W        W17618   1.582   7.014   2.362 -0.2118 -0.0518 -0.1127
 1810W        W17619   7.324   4.634  13.708 -0.1898  0.3357 -0.0848
 1811W        W17620   3.096   1.210   2.230  0.0298 -0.1691  0.1743
 1812W        W17621  16.634  11.863  14.799 -0.1605 -0.2361  0.1918
 1813W        W17622  16.952  11.840  11.881  0.0382 -0.1424  0.0194
 1814W        W17623   1.871   2.864   5.038  0.1540 -0.0494 -0.1989
 1815W        W17624  14.593  16.378   1.916 -0.1176 -0.0368  0.1930
 1816W        W17625  12.163   8.759   3.658 -0.1970 -0.4051  0.0426
 1817W        W17626  15.819   6.751   3.147  0.0296 -0.4425  0.1874
 1818W        W17627  15.851   8.254  11.307  0.0131  0.0133  0.4067
 1819W        W17628   2.438   5.078   4.796 -0.1123 -0.0935 -0.3252
 1820W        W17629   4.134   0.643   2.879  0.0434 -0.0460  0.3092
 1821W        W17630   5.234  10.408  15.482  0.1897  0.0322  0.0194
 1822W        W17631   8.339   9.205   4.004  0.2089 -0.3097  0.3163
 1823W        W17632  13.940   4.849  12.878 -0.2401 -0.1381  0.1717
 1824W        W17633  10.871  12.441  14.169 -0.0318 -0.2539 -0.3502
 1825W        W17634  16.780  11.989  10.647 -0.3855  0.0712 -0.2515
 1826W        W17635   6.487   1.473  12.792  0.3926 -0.1715 -0.3969
 1827W        W17636   6.943   7.319  15.395  0.0654 -0.1943  0.0396
 1828W        W17637   0.744   1.326  12.315  0.2968  0.2324  0.2883
 1829W        W17638   5.895  13.994   4.915 -0.1875  0.0297  0.0732
 1830W        W17639  16.091   6.354  13.668 -0.0401 -0.0358  0.1009
 1831W        W17640   8.881   3.959   5.311  0.0249  0.0982 -0.1294
 1832W        W17641  11.032   5.414  11.302  0.0104  0.0936 -0.0566
 1833W        W17642  16.569  11.541   2.926  0.1979  0.0036  0.0915
 1834W        W17643   8.470   7.625  14.973 -0.2551 -0.0288 -0.0438
 1835W        W17644   5.255   9.314   2.272  0.4557  0.1778 -0.0943
 1836W        W17645  13.088   4.086   4.540  0.1067  0.0401 -0.0902
 1837W        W17646  16.389  10.148   1.754  0.0235 -0.2096 -0.0680
 1838W        W17647   0.862   7.639  12.713  0.3341 -0.2254 -0.1970
 1839W        W17648   2.606  16.269   5.233  0.0661  0.1007  0.0504
 1840W        W17649  13.101   5.925  14.925  0.0013  0.2912  0.2656
 1841W        W17650  11.006  13.771  16.082 -0.0566  0.0108  0.1510
 1842W        W17651   8.567   5.833  11.237 -0.0689  0.0514 -0.0272
 1843W        W17652  12.963  12.463   3.694 -0.0538 -0.1257 -0.1781
 1844W        W17653   2.214   4.289  12.252 -0.1841  0.0722 -0.2094
 1845W        W17654  10.949   3.461  12.492  0.0595  0.0066  0.0382
 1846W        W17655   7.878  12.280  11.629 -0.1491  0.3253  0.0485
 1847W        W17656   9.721   2.007  12.053  0.0011  0.1619  0.1110
 1848W        W17657  14.331   9.488   0.760 -0.0084 -0.2779 -0.1325
 1849W        W17658   8.603  12.474  15.054  0.2122 -0.1519  0.3493
 1850W        W17659  17.503   9.998   1.243 -0.0830  0.0847  0.0181
 1851W        W17660  16.490  16.096   4.130 -0.0503  0.1436 -0.0918
 1852W        W17661   9.127   4.806   1.552  0.0931 -0.1885  0.2659
 1853W        W17662   6.341   4.691  13.234  0.3489 -0.0100 -0.2966
 1854W        W17663  14.267   9.077  12.364 -0.1410  0.1400 -0.0692
 1855W        W17664   9.416   7.951   4.465 -0.2044 -0.0177 -0.0678
 1856W        W17665   2.880  11.721  11.297 -0.0371 -0.0741  0.0869
 1857W        W17666   2.077   8.166  13.248 -0.1158 -0.2341 -0.1454
 1858W        W17667  16.834   2.818   3.549  0.2289 -0.0315  0.1327
 1859W        W17668   1.973   2.923  11.196  0.3074 -0.0761  0.0980
 1860W        W17669   8.029  13.325   1.003  0.0208 -0.0982 -0.0515
 1861W        W17670   4.619   2.256   1.726 -0.0787 -0.0228 -0.0721
 1862W        W17671   8.619   8.342  15.481 -0.0602 -0.0936 -0.0280
 1863W        W17672   4.413  13.553   3.889  0.1343 -0.1285 -0.0704
 1864W        W17673  12.682  16.426  11.193 -0.1154  0.1302  0.1999
 1865W        W17674   4.651  17.148   0.790  0.2050 -0.0780 -0.1950
 1866W        W17675  11.329   5.863  13.272  0.0346  0.1905  0.0085
 1867W        W17676   9.118   5.723   0.461  0.4646 -0.0398  0.2430
 1868W        W17677   4.526   4.608   4.615 -0.0325 -0.0645  0.3382
 1869W        W17678  11.687  13.841   2.489  0.2306 -0.1647 -0.1859
 1870W        W17679  11.620   3.988  11.393 -0.0230 -0.0565  0.0860
 1871W        W17680   9.354   1.846   2.226 -0.3124 -0.0525 -0.1568
 1872W        W17681   6.530   2.062  12.251 -0.0731 -0.0410 -0.0257
 1873W        W17682   3.788  11.939  12.415 -0.2051 -0.0052 -0.2471
 1874W        W17683   8.883   1.041  11.590 -0.1345  0.2365 -0.1404
 1875W        W17684  13.760   7.992   2.825 -0.0440 -0.2553 -0.0743
 1876W        W17685   1.513   2.813   2.236  0.1331 -0.0361  0.3485
 1877W        W17686  10.528   4.398   1.918 -0.1228 -0.1994  0.1308
 1878W        W17687   1.248  14.515   1.979  0.0173  0.0570 -0.1228
 1879W        W17688   5.518  13.380  15.746 -0.1696 -0.1959  0.0588
 1880W        W17689  14.389  15.488   5.339 -0.0241 -0.0393  0.0804
 1881W        W17690  12.303  12.872  15.458  0.0878  0.1214  0.2255
 1882W        W17691   0.384  12.785  11.643 -0.2078 -0.2459 -0.0897
 1883W        W17692  15.243  17.519  15.787  0.0865  0.3699 -0.0463
 1884W        W17693   5.250   9.108   4.679  0.0974 -0.0286  0.1027
 1885W        W17694   2.813   7.870   6.275  0.2078 -0.2000  0.0471
 1886W        W17695  15.374   5.476  11.772  0.0393 -0.1801 -0.2476
 1887W        W17696   0.878   7.651   2.619  0.0846  0.0258  0.1641
 1888W        W17697  11.835   4.408   3.402  0.0071  0.2717  0.0668
 1889W        W17698   6.908   6.340   4.417  0.0314 -0.1522  0.0009
 1890W        W17699   7.544  15.434  13.697  0.0497  0.0524  0.0480
 1891W        W17700   0.053  11.589   3.291  0.0563 -0.2113  0.0904
 1892W        W17701   4.370  15.246   3.623  0.0724 -0.3431 -0.0820
 1893W        W17702  14.165  16.276  14.240  0.1567 -0.1132  0.3440
 1894W        W17703   6.894  13.464  12.174 -0.0955 -0.0416  0.2127
 1895W        W17704   5.914   4.106   2.930 -0.2102 -0.0205  0.3846
 1896W        W17705   9.661   5.102  14.504 -0.0428 -0.1572  0.0900
 1897W        W17706   2.182  16.284   3.802 -0.0877 -0.6906  0.2441
 1898W        W17707  10.304   7.634  11.080  0.2576 -0.1857 -0.2365
 1899W        W17708  15.564  12.122   1.456 -0.2356 -0.0545  0.0452
 1900W        W17709  15.865   4.352  16.162  0.0344  0.0961  0.0034
 1901W        W17710  17.581   5.190  15.121 -0.1251  0.0126  0.1774
 1902W        W17711  17.951  17.714   0.082  0.0399  0.2382  0.3401
 1903W        W17712  17.312   1.787  16.267  0.2221  0.0500 -0.1096
 1904W        W17713   0.961  12.614   2.601 -0.0300  0.0424  0.0352
 1905W        W17714   3.128   4.399   1.284  0.3926 -0.0192 -0.0614
 1906W        W17715  15.175  10.932   2.276  0.1940 -0.0882 -0.0251
 1907W        W17716   6.049  13.625  12.875 -0.2067 -0.0302 -0.0202
 1908W        W17717   4.721   9.469   0.062  0.0689 -0.0800 -0.1582
 1909W        W17718   0.633  11.272   1.938 -0.1454 -0.0039  0.2037
 1910W        W17719   0.413   1.633  15.727 -0.2004 -0.2094  0.3125
 1911W        W17720  12.248  13.895  14.740  0.0193 -0.1841  0.1049
 1912W        W17721  17.756  16.532  15.762  0.2856 -0.1202  0.2837
 1913W        W17722  17.678   5.688  13.762  0.1395 -0.0560  0.1749
 1914W        W17723   0.581   3.917   1.949  0.0659 -0.0935 -0.3450
 1915W        W17724   5.732  10.328  14.611  0.1183 -0.0895 -0.0557
 1916W        W17725   0.775   3.473   1.598  0.0706  0.0655  0.1674
 1917W        W17726  15.052  15.020   3.887  0.1979 -0.1324 -0.3759
 1918W        W17727   8.948   0.307   2.131 -0.1932  0.2223  0.0903
 1919W        W17728   8.314   5.968   4.031 -0.0949 -0.1198  0.3528
 1920W        W17729  10.000   0.408  16.196  0.5213 -0.1453 -0.1639
 1921W        W17730  10.907  16.144   0.866 -0.0065 -0.2695  0.3321
 1922W        W17731  15.157   9.169   4.210 -0.1617  0.1425  0.0018
 1923W        W17732  17.760   9.284   0.955 -0.0785  0.0404 -0.1241
 1924W        W17733  16.546  12.611   3.977  0.2700 -0.0698  0.1218
 1925W        W17734   4.142  17.360  11.875 -0.3209  0.0281 -0.0684
 1926W        W17735   3.801   3.672   3.568 -0.1961  0.2267  0.2227
 1927W        W17736  13.748  17.788  13.540  0.0706  0.1448 -0.1040
 1928W        W17737  16.101  13.027  13.185 -0.3927 -0.4639  0.0278
 1929W        W17738  10.468  16.435  14.010 -0.2407  0.1806 -0.0615
 1930W        W17739   3.735  16.598  15.911  0.1057  0.2516 -0.2175
 1931W        W17740   0.774  13.579   0.206 -0.0988  0.1967 -0.1034
 1932W        W17741   5.891  12.452  11.877 -0.1576 -0.1189  0.2151
 1933W        W17742  16.986  15.204   2.526  0.0695 -0.0575  0.1546
 1934W        W17743  16.957   9.784   2.146  0.0429 -0.0727  0.0740
 1935W        W17744   8.964   7.189  11.861 -0.1359 -0.0143  0.1328
 1936W        W17745  15.346  11.007  12.171  0.0582  0.1555 -0.0879
 1937W        W17746  14.542   7.762  14.938 -0.2169  0.1159 -0.0904
 1938W        W17747   6.879  12.084   4.404 -0.0689 -0.0564  0.0070
 1939W        W17748   1.112   0.396   1.244 -0.2381 -0.3096  0.2116
 1940W        W17749  11.449  11.924  12.481  0.0456  0.1983 -0.7367
 1941W        W17750   7.402   8.502   0.452  0.1078 -0.0619 -0.0726
 1942W        W17751  11.360   5.024  11.555  0.1415  0.2063  0.1217
 1943W        W17752   4.319  15.976   3.160 -0.2866 -0.0560 -0.0403
 1944W        W17753   5.668   3.471  14.232  0.1660 -0.3205  0.1446
 1945W        W17754   9.070   5.174  13.831 -0.2460  0.1846  0.1328
 1946W        W17755  12.800  11.079   4.045 -0.1036  0.3632  0.2882
 1947W        W17756   6.672  11.099   5.006  0.2555  0.1423 -0.0148
 1948W        W17757  12.441   5.136  12.323 -0.2139 -0.0420  0.2436
 1949W        W17758   5.825   8.616   1.480  0.3014  0.1804 -0.0264
 1950W        W17759   1.865   1.262   0.219  0.1261  0.1174  0.0155
 1951W        W17760  15.987  15.297   1.565 -0.1620  0.0381  0.2855
 1952W        W17761   2.285  16.521   0.931 -0.4079  0.0807  0.1284
 1953W        W17762  15.214  17.119   5.258 -0.0538 -0.0661 -0.1034
 1954W        W17763  13.940   5.626   1.747  0.0628  0.0041  0.2968
 1955W        W17764   4.335   5.785   2.604  0.2710 -0.1767  0.3316
 1956W        W17765  12.755   2.829  12.861 -0.3613 -0.1591 -0.1930
 1957W        W17766  10.223   6.724  14.849  0.2852 -0.0009  0.0975
 1958W        W17767  10.468   6.459   2.543  0.2357 -0.0676 -0.0115
 1959W        W17768   4.561  10.170   3.520  0.0286 -0.3181 -0.0157
 1960W        W17769  17.079  12.311  11.614  0.1617  0.0554 -0.3410
 1961W        W17770  16.749   5.378  15.800 -0.1619 -0.2825 -0.2250
 1962W        W17771   5.367   1.069   2.376  0.2228  0.2162  0.3246
 1963W        W17772  13.999  13.697  14.144  0.1358  0.0493  0.0538
 1964W        W17773   0.930  17.701   5.429 -0.0316 -0.0696 -0.1228
 1965W        W17774   7.706   3.313  15.548 -0.0838 -0.0553  0.2635
 1966W        W17775  11.141   6.399  12.136 -0.0480 -0.1189 -0.3341
 1967W        W17776   6.003   1.209   2.952 -0.2628 -0.1182 -0.2341
 1968W        W17777   2.116  11.705  14.782  0.0734 -0.1198  0.0478
 1969W        W17778   3.267   5.816   4.481 -0.0399 -0.0184  0.0014
 1970W        W17779   0.303  15.524  16.211 -0.3312  0.1342 -0.0290
 1971W        W17780   3.580   3.529  12.739  0.1154  0.0656  0.1720
 1972W        W17781   9.886   8.006  11.653 -0.0530 -0.0372  0.1652
 1973W        W17782   5.465   2.754  12.596 -0.1099  0.0589  0.0193
 1974W        W17783   3.284   7.653   1.455 -0.1830  0.0359 -0.1209
 1975W        W17784  17.456   1.378  11.796 -0.1560 -0.1497  0.3421
 1976W        W17785   6.401   1.884   3.713 -0.0352 -0.1554 -0.3125
 1977W        W17786   9.331   5.118   5.033  0.0230 -0.1075  0.2132
 1978W        W17787  10.098   9.877   2.107 -0.0623 -0.1810 -0.1079
 1979W        W17788  15.656  14.128  16.084 -0.1371  0.1830 -0.2840
 1980W        W17789  17.525   5.524   2.497  0.4541  0.0596  0.3697
 1981W        W17790  14.087  11.622   2.893  0.0183  0.1240 -0.3325
 1982W        W17791  12.625  10.936  13.951 -0.0019  0.1910 -0.2957
 1983W        W17792   7.415   9.330   2.982 -0.0241 -0.0908  0.1843
 1984W        W17793  11.370   4.801   0.386 -0.0814  0.0866  0.0870
 1985W        W17794  12.801  17.719  15.244 -0.1488  0.0148 -0.0147
 1986W        W17795   9.701   8.244   3.921 -0.3539  0.0122  0.1260
 1987W        W17796   6.630   0.008  12.558  0.3705 -0.1004 -0.2333
 1988W        W17797   5.414   7.323   4.798 -0.0230  0.3305 -0.1671
 1989W        W17798   8.195   7.263   3.278 -0.0479  0.0575  0.0496
 1990W        W17799   3.885  16.966  11.811 -0.1347  0.2304 -0.2073
 1991W        W17800  17.315  10.246  12.748 -0.0955  0.3251 -0.0852
 1992W        W17801   1.675   9.046   2.555 -0.2471  0.0053  0.0412
 1993W        W17802  11.309  13.863   4.556  0.0640 -0.4336 -0.1020
 1994W        W17803   8.929   2.274   5.236 -0.2438  0.0219  0.4625
 1995W        W17804  10.873   3.350   2.733  0.0221  0.1114 -0.1145
 1996W        W17805   3.441  15.966  11.394 -0.1763 -0.1929 -0.2104
 1997W        W17806  13.052   1.542   0.288  0.2230  0.1384 -0.3221
 1998W        W17807  15.904  16.170  12.121  0.0730 -0.1284 -0.1846
 1999W        W17808   5.125   0.129  15.253 -0.4750  0.0212 -0.3570
 2000W        W17809   9.223  15.372   1.174  0.1368  0.2489 -0.0370
 2001W        W17810   0.135   1.856   4.135  0.0773  0.0187  0.0755
 2002W        W17811   4.915  17.686   3.173 -0.1396 -0.0627  0.1649
 2003W        W17812   5.567   6.182  13.154 -0.1571 -0.0200 -0.1028
 2004W        W17813   5.840   9.036  15.301  0.0927 -0.0833 -0.2313
 2005W        W17814   8.426  18.005  12.846  0.0259  0.4227  0.0775
 2006W        W17815   8.164  13.210  14.711  0.0111 -0.0701  0.0324
 2007W        W17816  14.935   4.903   5.712  0.2811  0.1783 -0.0334
 2008W        W17817  14.020   7.599  14.877 -0.0869  0.1012 -0.3215
 2009W        W17818   4.559   7.519  13.373  0.0963 -0.2251  0.3044
 2010W        W17819  11.151  13.914   6.586 -0.0291 -0.2919 -0.0670
 2011W        W17820  13.710   9.760   5.098  0.2935 -0.0102 -0.1235
 2012W        W17821   5.576  10.635   0.107  0.2938 -0.0503  0.1793
 2013W        W17822   1.325  17.543   2.136  0.0567  0.1746  0.0014
 2014W        W17823  17.667   0.697   4.763 -0.2855  0.1119  0.1467
 2015W        W17824   8.126   8.461  14.094  0.0309  0.0068  0.1844
 2016W        W17825   5.284   7.003   0.677  0.1501 -0.2864 -0.0757
 2017W        W17826  10.712  10.893  12.282  0.0206 -0.1945 -0.2616
 2018W        W17827   3.488   1.089   1.962  0.2223  0.1127 -0.1942
 2019W        W17828   8.533   2.858  11.571 -0.2063 -0.0481 -0.1528
 2020W        W17829   4.531   3.571   5.042  0.1279  0.0978 -0.2319
 2021W        W17830   1.896   8.686   3.923  0.0771 -0.0528  0.2095
 2022W        W17831  12.585  10.387  15.288 -0.1895 -0.0174  0.4435
 2023W        W17832   0.993  15.617  14.528 -0.2365  0.0420  0.3822
 2024W        W17833  15.436   4.107   0.946 -0.0362  0.2428 -0.1797
 2025W        W17834  14.751   0.928   3.377 -0.0572 -0.4321 -0.0075
 2026W        W17835  13.453   2.707  14.601  0.1809  0.0259 -0.0391
 2027W        W17836   6.196  17.620   6.042 -0.2452  0.0609 -0.2870
 2028W        W17837  12.149   6.397  13.342  0.2098  0.0203  0.1115
 2029W        W17838  14.188   1.871  10.812  0.0659  0.3582 -0.2964
 2030W        W17839   0.422   1.001  12.986 -0.2672 -0.1836 -0.0494
 2031W        W17840   2.082  13.811  14.943 -0.1707  0.2802  0.3471
 2032W        W17841   5.581   0.151   2.137  0.0729 -0.2918 -0.1403
 2033W        W17842   1.131   6.985   1.941  0.1179  0.0226 -0.0446
 2034W        W17843  10.683   2.425  14.152  0.1652 -0.2301 -0.2111
 2035W        W17844   1.394   6.315   3.033  0.0772 -0.0734  0.1145
 2036W        W17845  16.171   2.692   3.018  0.2214  0.0997 -0.2159
 2037W        W17846  11.313   6.684  13.864 -0.3725  0.0568  0.0336
 2038W        W17847   9.067   1.510  11.539  0.0746 -0.2502 -0.3081
 2039W        W17848  10.179  14.921   2.852 -0.3094  0.0647 -0.0628
 2040W        W17849   4.013   6.238   4.061  0.1881 -0.1815 -0.2393
 2041W        W17850  12.046  13.239  15.196 -0.1424  0.0483 -0.0099
 2042W        W17851   6.014   4.941   2.551  0.0861 -0.0292 -0.0163
 2043W        W17852   3.531   3.199   0.895 -0.0133 -0.0731  0.0131
 2044W        W17853   8.420  14.943   5.086 -0.1450  0.0923  0.0293
 2045W        W17854  16.261   1.878   1.250  0.2446  0.3228 -0.2307
 2046W        W17855   5.060  10.804  11.623  0.3872 -0.1564 -0.0070
 2047W        W17856   2.191   7.250  13.576  0.0876 -0.5051  0.1427
 2048W        W17857  13.447   5.850   3.929 -0.2724  0.1026  0.1340
 2049W        W17858   4.012   7.310  15.644  0.1700 -0.1688 -0.0644
 2050W        W17859   6.531  17.325   4.065 -0.1437 -0.0020 -0.1580
 2051W        W17860  16.119  11.075  12.619 -0.0818  0.0669  0.2487
 2052W        W17861   1.811  15.406   1.272 -0.0451 -0.1158  0.0849
 2053W        W17862  15.285  12.500   0.135 -0.0579  0.3527  0.0141
 2054W        W17863   3.849   6.079   0.199 -0.0461 -0.2536 -0.1903
 2055W        W17864  18.152  12.063   5.467 -0.1787 -0.3889  0.0210
 2056W        W17865  13.166   9.583   1.510  0.1142 -0.0381 -0.0955
 2057W        W17866   6.685   0.771   4.275  0.0067 -0.4130  0.1158
 2058W        W17867  15.955   5.564  15.329 -0.0786  0.1733  0.2757
 2059W        W17868  12.410   4.632   0.569  0.1522  0.0301  0.2669
 2060W        W17869  12.813  17.920   2.645  0.2139 -0.1687  0.3274
 2061W        W17870   9.203   6.379  12.987  0.1281  0.1399  0.2443
 2062W        W17871   3.219  10.629   0.901 -0.0383 -0.0360 -0.1388
 2063W        W17872  15.803  12.484  11.780 -0.0840 -0.1186 -0.1584
 2064W        W17873   2.814   7.916  13.042 -0.0526  0.1434  0.0463
 2065W        W17874  10.762  12.967  11.207  0.1344 -0.0482 -0.1173
 2066W        W17875   5.987  12.167   4.203  0.2058  0.3124  0.1119
 2067W        W17876   8.436  13.926   4.100 -0.0313 -0.0176 -0.0983
 2068W        W17877  15.127  11.097  15.752 -0.0006  0.0313 -0.2045
 2069W        W17878  14.424  10.987  12.358  0.3845  0.4738 -0.1753
 2070W        W17879   1.410  15.990   0.354  0.2088 -0.0480  0.0204
 2071W        W17880   8.057   6.845   5.351  0.0641 -0.1045 -0.0255
 2072W        W17881  12.027  11.822  16.000  0.2854 -0.1911 -0.2285
 2073W        W17882  13.058   7.687  14.622 -0.0295 -0.0416 -0.0735
 2074W        W17883   0.488   8.731  11.584  0.1211  0.1916 -0.1737
 2075W        W17884   1.160   9.086  14.748 -0.0120  0.1093 -0.1773
 2076W        W17885  14.496  10.628   4.386 -0.4277 -0.0416  0.1021
 2077W        W17886   3.770   9.645   5.162 -0.3505  0.0442  0.0534
 2078W        W17887  14.873  13.529   2.914 -0.1088  0.3310 -0.0947
 2079W        W17888   9.270   1.082  12.054  0.0342  0.1594 -0.1956
 2080W        W17889   4.392   4.133   0.107  0.0226 -0.0130  0.1754
 2081W        W17890   1.864   1.184  11.398  0.0937  0.1917 -0.0883
 2082W        W17891  16.536   9.043   4.371 -0.0911  0.2288  0.1657
 2083W        W17892   4.658  11.811   3.061 -0.0876 -0.1077 -0.3409
 2084W        W17893  14.473  17.996   3.412  0.0262 -0.2198 -0.0916
 2085W        W17894  16.507  16.922  13.578  0.0483  0.1449 -0.3289
 2086W        W17895   9.056   7.769  16.292 -0.3704  0.1110  0.0620
 2087W        W17896   3.881  10.534  11.175  0.0015 -0.0734  0.0984
 2088W        W17897   1.845  15.402   5.800  0.0782 -0.1287 -0.0772
 2089W        W17898   4.401   1.435  10.989  0.1304  0.0936  0.1487
 2090W        W17899   2.097   3.955   4.259  0.3018  0.1900 -0.1521
 2091W        W17900   5.526  13.826   5.754  0.4314 -0.1545 -0.0257
 2092W        W17901   7.208  16.183  12.052 -0.1824 -0.1690 -0.1409
 2093W        W17902  15.051   0.829  12.436 -0.1981 -0.0551  0.0644
 2094W        W17903   5.184   3.959  16.313 -0.0957  0.5843 -0.0757
 2095W        W17904   3.574  15.524   2.383 -0.1638  0.0849  0.2113
 2096W        W17905  12.016   8.178   1.328 -0.0069 -0.0368  0.2674
 2097W        W17906   4.431   9.359  15.444  0.1929 -0.3134  0.0919
 2098W        W17907  12.581  11.572   5.167  0.1418  0.2628  0.1194
 2099W        W17908   1.061  16.135   4.574 -0.2834  0.0727  0.0761
 2100W        W17909   5.955  12.428   2.802  0.1396 -0.0267  0.2500
 2101W        W17910  11.970   9.276   3.583 -0.2662  0.2992  0.0051
 2102W        W17911  15.571  13.240   3.933 -0.1699  0.1619  0.4148
 2103W        W17912   0.620  13.412   2.467 -0.1563  0.1409  0.2610
 2104W        W17913   7.317   1.653   2.713 -0.2682  0.0155  0.0490
 2105W        W17914   3.224  12.251  14.872  0.1778 -0.0209 -0.0189
 2106W        W17915  16.162  16.448  13.689 -0.0760 -0.1192 -0.0578
 2107W        W17916  16.632   2.949   4.012  0.5428  0.0516  0.0427
 2108W        W17917  17.898   3.814  14.399  0.1081  0.2411 -0.0148
 2109W        W17918  11.375  15.316   3.777 -0.3159 -0.0422  0.1650
 2110W        W17919   3.980  11.788  10.743  0.2609 -0.1332  0.0771
 2111W        W17920   9.903  12.802  15.825 -0.0695 -0.0196 -0.1571
 2112W        W17921  10.111   5.105  10.917 -0.2939 -0.1418 -0.1449
 2113W        W17922   0.351   8.873   0.048 -0.4401 -0.0031  0.3441
 2114W        W17923   7.706   2.937   4.402 -0.1327  0.0181  0.0750
 2115W        W17924   8.089   2.595   4.204 -0.0885 -0.0505  0.0438
 2116W        W17925   4.115   8.736  16.242 -0.0457 -0.0897  0.2418
 2117W        W17926   8.351   4.757   5.999 -0.0123 -0.2008 -0.2422
 2118W        W17927   4.256  12.375   4.887 -0.0440 -0.0142 -0.4062
 2119W        W17928   8.291   9.006   4.487  0.0014  0.0635 -0.3515
 2120W        W17929   0.918   0.785  15.567  0.0246  0.2593 -0.2446
 2121W        W17930  14.546  16.427   0.899 -0.1269  0.0535 -0.2052
 2122W        W17931  11.446   2.520   2.369  0.2219  0.1738  0.0951
 2123W        W17932  17.993   9.678  16.053 -0.2739 -0.1215 -0.2768
 2124W        W17933  15.845   9.758   0.643 -0.2125  0.2991  0.1648
 2125W        W17934   8.628  10.489   1.177 -0.1872  0.1699  0.3305
 2126W        W17935  16.095   7.320  15.849 -0.1360 -0.0509 -0.2385
 2127W        W17936   9.012   4.454  11.946  0.4773 -0.1813 -0.1692
 2128W        W17937  14.769   6.059   1.027 -0.2503 -0.2331  0.2491
 2129W        W17938   9.054   1.096  16.344  0.1714  0.0287 -0.2551
 2130W        W17939  11.537  14.117  16.075  0.0356 -0.2373 -0.0578
 2131W        W17940   9.958   9.907  12.891 -0.1095 -0.2076  0.1380
 2132W        W17941   3.139  12.500  13.587 -0.2742  0.0416  0.1968
 2133W        W17942   2.275  11.325   0.797  0.4798  0.1473 -0.2022
 2134W        W17943   0.946   7.161  12.635 -0.2263 -0.0720  0.2681
 2135W        W17944  16.178   3.389  14.518 -0.0885 -0.0385  0.1189
 2136W        W17945   4.223  16.398   0.553  0.2085 -0.4098  0.0525
 2137W        W17946  15.148  11.962   3.176  0.1063 -0.0918  0.1263
 2138W        W17947  16.920   7.941   3.663  0.0545  0.4535  0.0471
 2139W        W17948   1.264   1.438  12.228 -0.0952  0.1274 -0.2866
 2140W        W17949   5.349  14.241  15.526  0.1184 -0.0558  0.0143
 2141W        W17950  12.626  12.478  12.504  0.1356  0.1225  0.0761
 2142W        W17951  10.952  13.888  13.628  0.1492  0.4212 -0.1134
 2143W        W17952  10.771  10.462   2.022 -0.3062 -0.0644  0.1502
 2144W        W17953   5.887  14.621  12.797 -0.0179 -0.1012  0.2238
 2145W        W17954   5.826  13.184  13.334 -0.3968  0.0263 -0.0428
 2146W        W17955  15.482   0.852  13.568 -0.1336 -0.0971 -0.1146
 2147W        W17956   1.944  10.425   3.316  0.0316 -0.1569  0.0869
 2148W        W17957  16.137   4.182  13.232  0.0774 -0.1350  0.0902
 2149W        W17958   4.418  17.507  11.068 -0.2284  0.0780 -0.1030
 2150W        W17959  13.581  18.049   1.676 -0.0482 -0.1133  0.0033
 2151W        W17960  14.644   4.874   3.684 -0.1631 -0.0617  0.0945
 2152W        W17961  11.364  13.420   1.432  0.0824  0.0389  0.1208
 2153W        W17962  12.763   4.207  12.202  0.0729  0.2317 -0.0944
 2154W        W17963  12.835  13.108  16.209 -0.2074 -0.1016  0.0962
 2155W        W17964  13.269   1.173  15.882 -0.1122 -0.2383  0.1447
 2156W        W17965  15.300  12.674  12.623 -0.1335  0.3508 -0.3877
 2157W        W17966   7.578  17.700  13.980 -0.1243 -0.0885 -0.2990
 2158W        W17967  14.645   1.645   0.482  0.0044 -0.3167 -0.1483
 2159W        W17968  17.826  13.902  12.322 -0.0843 -0.0740  0.3162
 2160W        W17969  10.165  15.625  15.101  0.0298 -0.2480  0.1171
 2161W        W17970   3.357   2.251   1.935 -0.0309 -0.2306 -0.3645
 2162W        W17971   3.829  15.213   0.203  0.2624  0.2152 -0.1337
 2163W        W17972  13.758   9.131   1.137 -0.0856  0.2696 -0.0182
 2164W        W17973  12.463  16.896   0.065 -0.2099  0.1315  0.1516
 2165W        W17974   5.259   5.159  15.980  0.2600 -0.0117 -0.3169
 2166W        W17975   3.821   4.444  13.180 -0.0698  0.0693 -0.1283
 2167W        W17976   6.396  13.278  13.202 -0.1183  0.2364  0.3169
 2168W        W17977   9.191  10.332   2.315  0.1198  0.0158 -0.0305
 2169W        W17978   4.735  17.328   5.412  0.0322  0.0301 -0.1513
 2170W        W17979  11.310  13.497   0.911 -0.2071 -0.1132  0.1222
 2171W        W17980   9.828  12.113  14.062  0.0761 -0.2120  0.0777
 2172W        W17981   1.777  13.546  13.274 -0.1658 -0.5454 -0.0329
 2173W        W17982   7.616  11.981  16.362 -0.1122  0.1086  0.3634
 2174W        W17983   1.546  12.996  11.313  0.0421  0.1446  0.1433
 2175W        W17984  16.811   4.732  13.156 -0.2052  0.0373  0.0192
 2176W        W17985   0.780   2.740   3.361 -0.2712 -0.1016 -0.0749
 2177W        W17986   4.004  11.947  11.253  0.1153  0.3964 -0.0715
 2178W        W17987  15.756   5.600   3.977  0.1226  0.2949  0.0851
 2179W        W17988   2.549   0.264   1.101 -0.2562  0.2832 -0.0147
 2180W        W17989  16.160  14.691   1.056 -0.0544  0.3101 -0.2347
 2181W        W17990   4.094   7.581  16.083  0.0827  0.2768 -0.4158
 2182W        W17991   5.957  11.334   1.283 -0.0228  0.0802 -0.0287
 2183W        W17992  15.537  13.990   2.062 -0.0621  0.0288 -0.0525
 2184W        W17993  17.643   6.183   3.892  0.1676 -0.0469 -0.1968
 2185W        W17994  15.736   9.580  11.753 -0.4746 -0.0829  0.0123
 2186W        W17995   8.923  14.683  13.791 -0.2839 -0.1281  0.1429
 2187W        W17996   7.059   4.971   2.197  0.2353  0.0416 -0.3907
 2188W        W17997   1.156   3.098  16.048  0.1841 -0.0538  0.1048
 2189W        W17998   2.896  13.114   0.881  0.4826  0.5091  0.1789
 2190W        W17999   5.593   9.654   5.151 -0.1257 -0.2379  0.1574
 2191W        W18000   5.923   0.698   0.274  0.1090  0.0578  0.3284
 2192W        W18001  10.990   4.998   0.100 -0.0884 -0.2150 -0.3444
 2193W        W18002  17.634   7.534  14.297  0.1386  0.0623 -0.1876
 2194W        W18003   4.674  17.311   1.256  0.0805  0.0465  0.2461
 2195W        W18004  16.632   5.351  16.295  0.1816 -0.1831 -0.1151
 2196W        W18005   5.793  16.142  14.457 -0.0800 -0.1242  0.0438
 2197W        W18006  13.787  11.185  16.005  0.1064 -0.1295  0.3569
 2198W        W18007   0.533  10.645  11.700  0.1243 -0.0855  0.0011
 2199W        W18008   9.209   4.755  16.131 -0.0563 -0.1113 -0.1866
 2200W        W18009  13.130  12.791   0.595  0.1821 -0.0178  0.3066
 2201W        W18010  17.141   0.956  11.744  0.1293  0.1534 -0.1856
 2202W        W18011  14.078   6.292   4.547  0.2438  0.0154  0.2523
 2203W        W18012  13.137  17.570  14.904 -0.0265 -0.1542  0.1054
 2204W        W18013   7.692  14.254  10.948  0.0236 -0.0769  0.3317
 2205W        W18014   7.866   5.808   3.780 -0.1784  0.0439 -0.0684
 2206W        W18015  11.908  12.999   3.623  0.1533 -0.3212 -0.1020
 2207W        W18016   9.651  11.516  10.942 -0.0631  0.0273 -0.0760
 2208W        W18017  15.618   2.187  14.014  0.1643 -0.2167 -0.0861
 2209W        W18018   0.270  12.843  12.788  0.0592 -0.2108  0.0200
 2210W        W18019   5.433  10.121  11.489  0.4663 -0.1009 -0.0935
 2211W        W18020  14.200  18.025   4.395 -0.0319 -0.0593 -0.1200
 2212W        W18021  17.292  14.355   0.488  0.3170 -0.0361  0.3602
 2213W        W18022  18.038  17.628   2.726  0.1072 -0.2155  0.1301
 2214W        W18023   1.053   9.907  11.672 -0.3315  0.4677  0.1141
 2215W        W18024   3.694   1.119  14.635  0.2583 -0.0651 -0.3248
 2216W        W18025  11.867  17.355   0.873  0.2315 -0.2080 -0.1318
 2217W        W18026   2.533   5.450   0.839 -0.0924  0.1967 -0.0086
 2218W        W18027  14.973   5.465  15.715  0.1851 -0.2099  0.3472
 2219W        W18028   1.972   7.733   2.827 -0.1547 -0.0249  0.1972
 2220W        W18029   7.160  13.107   4.051 -0.0623  0.1683 -0.0373
 2221W        W18030  17.287  15.923   1.921 -0.3155 -0.0661  0.1362
 2222W        W18031   0.387  10.367   4.787 -0.5296  0.0919  0.0835
 2223W        W18032  14.793   3.415  11.012 -0.2379  0.0160  0.1345
 2224W        W18033   8.639   7.627   2.679  0.0795 -0.2709 -0.2769
 2225W        W18034  10.916  17.675   4.849 -0.5342 -0.2592 -0.2768
 2226W        W18035  15.407  15.998  12.397  0.0565 -0.3414  0.2431
 2227W        W18036   7.932  11.747   3.783  0.1430  0.0085  0.1252
 2228W        W18037   2.825  15.031   4.949  0.1640 -0.0323  0.0504
 2229W        W18038   6.080  16.924  14.789 -0.0137 -0.0204  0.1424
 2230W        W18039   4.136   2.459   4.271  0.1473 -0.1076 -0.2089
 2231W        W18040   4.244  17.977  15.695 -0.0381  0.1770 -0.0260
 2232W        W18041   0.486  13.784  11.324  0.0944 -0.2315 -0.0032
 2233W        W18042   9.144   5.995  14.454 -0.1820  0.1748 -0.2151
 2234W        W18043  10.262   3.703  13.050 -0.0663 -0.1593 -0.1204
 2235W        W18044  12.819   5.013   1.585 -0.1849 -0.0518  0.0178
 2236W        W18045  15.002   3.244   2.030  0.1898 -0.3329  0.0753
 2237W        W18046  16.904   5.705  11.748 -0.3485 -0.1684 -0.1217
 2238W        W18047  13.014   6.137   4.785 -0.0108 -0.0909 -0.2400
 2239W        W18048   1.576   5.895  12.189 -0.0652 -0.0816  0.0532
 2240W        W18049  15.766  10.742  11.303 -0.1727  0.1400  0.0530
 2241W        W18050   1.610  16.573  13.005  0.1096 -0.3371  0.1803
 2242W        W18051   7.327   1.905  10.767  0.1423 -0.3578  0.0090
 2243W        W18052   7.608  14.965  13.984 -0.1790 -0.2689 -0.1414
 2244W        W18053  15.955  16.131   3.007  0.0736  0.1611 -0.2280
 2245W        W18054   4.225   5.021   3.353 -0.3453  0.3942  0.2221
 2246W        W18055  16.370  11.013   0.482  0.2324  0.1047 -0.0318
 2247W        W18056   1.209  15.309  11.134  0.0889  0.0934 -0.0667
 2248W        W18057   4.086   5.289   0.669 -0.0917 -0.0094 -0.4040
 2249W        W18058   4.627   9.475  15.922  0.0630  0.0124  0.0273
 2250W        W18059   8.424  17.001  14.497  0.0734 -0.1167 -0.1705
 2251W        W18060   8.147   7.468   4.302  0.0106 -0.2236  0.2008
 2252W        W18061  12.177   0.343   5.693 -0.1203  0.2317  0.3398
 2253W        W18062   2.528  16.780  15.373  0.1727  0.1750  0.5379
 2254W        W18063   8.770  13.462  13.358  0.2151  0.0785 -0.1790
 2255W        W18064   6.074  12.347   5.248  0.1445  0.2716  0.1460
 2256W        W18065   1.745   8.906   3.395  0.0884 -0.5000 -0.0070
 2257W        W18066  17.296   4.903  12.716  0.0396 -0.1084 -0.1889
 2258W        W18067   0.418   9.089   2.937  0.0928 -0.0197 -0.0189
 2259W        W18068   1.382   5.070   1.537  0.1438  0.0753  0.0547
 2260W        W18069  15.091   5.195   0.892 -0.2539  0.0962  0.1207
 2261W        W18070  17.525   0.162   1.528 -0.1992 -0.1101 -0.0927
 2262W        W18071  16.865  11.468   1.123  0.1174 -0.1317 -0.1206
 2263W        W18072   5.716  14.907  15.993  0.2913  0.3119 -0.0980
 2264W        W18073   7.931  16.562   3.885  0.1001 -0.0283 -0.2058
 2265W        W18074  14.798   3.254   2.879  0.2874 -0.5213  0.0116
 2266W        W18075  11.755   7.497   3.061 -0.1115 -0.0358 -0.0058
 2267W        W18076   5.588   3.095  14.593 -0.0871 -0.5690  0.1116
 2268W        W18077  12.687  11.763  14.342  0.2267  0.2678 -0.1378
 2269W        W18078  16.789   9.989   4.334 -0.0543 -0.0887 -0.1364
 2270W        W18079  16.246   5.409  14.486  0.0655 -0.0096  0.0154
 2271W        W18080   6.435  17.814  15.735 -0.0143  0.1142  0.1320
 2272W        W18081   0.066  13.288  15.059  0.3397 -0.0944  0.0125
 2273W        W18082   5.657  16.299   2.340  0.2365  0.1450  0.2888
 2274W        W18083   5.548  16.480  11.722  0.1634 -0.2821 -0.1375
 2275W        W18084   3.502   2.601   4.966 -0.3454  0.0684 -0.0753
 2276W        W18085  16.623  17.905  12.039 -0.0014  0.0935 -0.1875
 2277W        W18086   0.868  11.411   6.204  0.0425  0.0764 -0.3824
 2278W        W18087   4.394  12.577  14.265  0.1358 -0.0344 -0.0100
 2279W        W18088  13.433   2.311   0.080  0.1293 -0.0295 -0.1463
 2280W        W18089   8.890   3.609   4.832 -0.1117  0.3013 -0.0973
 2281W        W18090  12.848   0.866   5.592  0.4062  0.0238 -0.0306
 2282W        W18091   3.222   7.902   0.063 -0.0093  0.0883  0.0114
 2283W        W18092   3.129  16.742   3.735  0.2479  0.3068 -0.1746
 2284W        W18093  12.057  13.968   4.303 -0.1136  0.0372  0.3083
 2285W        W18094   7.231  15.305   3.915 -0.0457  0.2769 -0.0368
 2286W        W18095   4.556  17.181   2.461 -0.1933 -0.1207  0.0584
 2287W        W18096  17.843   4.544  15.473  0.1222  0.0740 -0.3264
 2288W        W18097   1.939   3.742  12.809 -0.0913 -0.2300  0.1627
 2289W        W18098  15.452   1.732  10.769  0.0482 -0.0065  0.0398
 2290W        W18099  17.970  10.234   2.830  0.1092 -0.0607 -0.1317
 2291W        W18100   7.807   0.964   3.987 -0.0578 -0.2206  0.0763
 2292W        W18101  14.370   5.958   1.697 -0.0382 -0.0417  0.1020
 2293W        W18102  13.479   3.635  16.032 -0.2603 -0.1768 -0.0683
 2294W        W18103  11.516   9.318   4.452  0.0749 -0.3134 -0.1807
 2295W        W18104   0.416   4.752   0.118 -0.1342  0.0518 -0.3685
 2296W        W18105   6.299   6.106  14.180  0.1014 -0.2943 -0.1301
 2297W        W18106   3.360  16.631  13.121  0.0971  0.0798 -0.2378
 2298W        W18107   2.410  15.057   2.921  0.0146  0.2160  0.3200
 2299W        W18108  10.967   5.708   5.740 -0.0217  0.3600  0.0739
 2300W        W18109   9.603   9.738  15.635 -0.0726 -0.3271 -0.1043
 2301W        W18110  15.679   3.439   2.622  0.2259  0.1135 -0.1566
 2302W        W18111  11.628  14.750  13.828  0.0526  0.0332  0.3030
 2303W        W18112   7.259   3.290  13.812  0.0538 -0.4861 -0.2949
 2304W        W18113   8.684   7.440  11.187  0.0026 -0.2363 -0.2176
 2305W        W18114   0.547  16.892  14.526  0.2821 -0.0907  0.0224
 2306W        W18115  14.051   6.854   0.283  0.2867  0.2486 -0.0864
 2307W        W18116   3.269  13.575  11.899  0.3045 -0.0561 -0.0010
 2308W        W18117  12.991   5.458   0.336  0.0765 -0.0369 -0.2537
 2309W        W18118  14.177  16.337  13.216  0.0741  0.1388  0.0448
 2310W        W18119   6.285   8.631   1.633  0.0806 -0.0606 -0.3835
 2311W        W18120   5.177   5.323  12.000  0.0185  0.1476 -0.1023
 2312W        W18121   8.201   1.164   4.928  0.3671  0.1732  0.0621
 2313W        W18122  15.355  17.335  15.350  0.0598  0.0843  0.3571
 2314W        W18123   9.551  14.976  13.503 -0.1130  0.0488 -0.0622
 2315W        W18124  13.870  12.460   3.721  0.0398 -0.3114  0.2555
 2316W        W18125  18.082  14.760   5.327 -0.0060 -0.0592 -0.3331
 2317W        W18126   3.044   5.141  13.024 -0.3601  0.0866  0.3187
 2318W        W18127   9.115  14.954  13.400 -0.2517 -0.0924 -0.0223
 2319W        W18128   9.416  14.641  11.659  0.0592 -0.1662 -0.1701
 2320W        W18129   9.141   1.980  13.185 -0.1315  0.0958 -0.5939
 2321W        W18130  10.727   0.363   0.718  0.0294  0.4493  0.0959
 2322W        W18131  15.344   2.904  15.556 -0.1541 -0.0462 -0.0997
 2323W        W18132  12.235  10.242   2.629  0.3254  0.2148  0.1159
 2324W        W18133   9.747   8.016   5.634 -0.0796  0.0318 -0.0451
 2325W        W18134   9.868   3.202   5.217 -0.1881  0.0651  0.2377
 2326W        W18135   4.153  14.851   0.260 -0.1379 -0.0564  0.1649
 2327W        W18136  17.737  13.477  11.627  0.1850 -0.2073 -0.0265
 2328W        W18137   9.794   0.982  15.382 -0.3757  0.2577  0.0717
 2329W        W18138   8.073  15.709  15.492  0.1662  0.3967  0.0839
 2330W        W18139  12.303   4.315  12.048 -0.0913 -0.1600 -0.1585
 2331W        W18140  15.236  13.236  12.417  0.0973  0.1010 -0.0493
 2332W        W18141  14.631  17.891   5.246  0.0931  0.2611  0.0390
 2333W        W18142  16.667   7.665   4.158  0.1451 -0.0965 -0.2229
 2334W        W18143   8.325  15.448   4.524 -0.0762 -0.2548 -0.0558
 2335W        W18144   0.832  13.751   1.551  0.3746 -0.1543  0.1152
 2336W        W18145   2.286  17.372  12.763  0.4698 -0.0228  0.2100
 2337W        W18146  14.817  17.475   5.535 -0.1729 -0.1050 -0.1204
 2338W        W18147   7.457   0.756   3.149 -0.2614  0.2508  0.2967
 2339W        W18148  18.024  10.132   1.206  0.1788  0.3162 -0.1798
 2340W        W18149   8.649   1.809  11.360 -0.0088 -0.0568 -0.1761
 2341W        W18150  11.854   9.884  15.349 -0.1630  0.1019 -0.1666
 2342W        W18151   3.317   7.266  11.599  0.3117 -0.1426 -0.0480
 2343W        W18152  14.866   6.033   1.492 -0.1360 -0.0736 -0.0147
 2344W        W18153   1.173  16.755   1.449 -0.0080  0.1740 -0.0632
 2345W        W18154  12.590   0.624   3.763 -0.2604 -0.1072 -0.1458
 2346W        W18155   5.789   9.839   0.700 -0.1771  0.3230  0.1352
 2347W        W18156   6.614  14.892  13.287 -0.2929  0.2701 -0.3662
 2348W        W18157   4.189   9.716  16.245 -0.0323 -0.1861 -0.0488
 2349W        W18158   7.981   0.431   3.066 -0.1411  0.1265 -0.1542
 2350W        W18159  10.599  17.223  15.983  0.2798  0.1656 -0.0372
 2351W        W18160   2.287  10.235   1.287 -0.0973  0.1111  0.1837
 2352W        W18161   4.253   9.152   4.684 -0.1454 -0.1343  0.0708
 2353W        W18162   0.503   0.609  10.738 -0.1177  0.2758 -0.0225
 2354W        W18163  13.222   8.745  15.457  0.2353 -0.0204  0.2419
 2355W        W18164   2.833  15.904  13.524  0.2794  0.1106  0.1332
 2356W        W18165   8.075  12.165  12.762  0.1928  0.0674  0.2576
 2357W        W18166   4.074   5.830   3.712 -0.1932 -0.0687 -0.1098
 2358W        W18167  13.408   0.600  12.487 -0.2195 -0.1973 -0.3200
 2359W        W18168  10.449   7.757   5.062  0.0352 -0.1028  0.0937
 2360W        W18169   5.664   0.471  11.292  0.2807 -0.0891 -0.2117
 2361W        W18170  10.893   3.654  11.756 -0.3454  0.0600  0.0238
 2362W        W18171  14.731  10.893   3.184 -0.4055 -0.3069  0.3354
 2363W        W18172   9.254   4.338  13.976  0.0924 -0.4238  0.0941
 2364W        W18173  12.333  15.556  11.471  0.1962  0.3548 -0.0429
 2365W        W18174  11.138   3.327   5.277  0.1487 -0.0718 -0.1174
 2366W        W18175  14.028   5.841  13.439 -0.1568  0.2251 -0.1947
 2367W        W18176  10.837  12.992   5.577 -0.2839  0.0746 -0.1422
 2368W        W18177   9.053   7.387  15.449  0.0060 -0.2501 -0.1036
 2369W        W18178   9.630  11.428   1.668  0.0812  0.2498 -0.2058
 2370W        W18179   0.080   7.147   0.782  0.1026  0.0565 -0.2865
 2371W        W18180  11.001  14.013   4.922 -0.1836  0.2322  0.1067
 2372W        W18181   3.532  18.018  16.153 -0.1415  0.2335 -0.0856
 2373W        W18182   3.020  15.589  12.584 -0.5664  0.0486  0.2623
 2374W        W18183  11.699  14.622  12.212  0.1208 -0.3380  0.1401
 2375W        W18184   1.127   3.267   6.370 -0.3777  0.1159  0.2081
 2376W        W18185   0.931   1.749  14.740  0.1806 -0.3052 -0.3852
 2377W        W18186   6.518   2.227   4.136  0.1698 -0.0423  0.3334
 2378W        W18187  16.072  10.001   0.278 -0.2130  0.0808 -0.0526
 2379W        W18188   3.717   5.742  15.055  0.1479 -0.3043 -0.1763
 2380W        W18189  17.202  16.468   1.167 -0.2284  0.3475 -0.0886
 2381W        W18190   5.023   1.328   1.434 -0.3318  0.0813 -0.0658
 2382W        W18191   3.347  17.505   4.206 -0.0676 -0.0133 -0.0741
 2383W        W18192  13.927   7.281  13.783 -0.1849 -0.1438  0.1036
 2384W        W18193   7.236  16.377   1.860 -0.1332  0.0632  0.0937
 2385W        W18194  12.724   5.902  12.406  0.1153  0.0510  0.0695
 2386W        W18195  14.427   5.601   4.273  0.1535  0.0182 -0.0751
 2387W        W18196   9.314   4.222  10.987  0.2310 -0.0193  0.2130
 2388W        W18197   4.209   1.750  14.045 -0.0256 -0.3140 -0.0564
 2389W        W18198   1.200  12.179   3.689 -0.0066  0.0207 -0.1975
 2390W        W18199   0.939  11.592  15.961 -0.1836 -0.1297  0.0402
 2391W        W18200  13.303   8.474   1.579  0.0982  0.0013 -0.2024
 2392W        W18201   1.875   8.841  11.863 -0.2259  0.1024 -0.0733
 2393W        W18202   4.126  16.155  15.101  0.0835  0.1004 -0.1875
 2394W        W18203  11.918  16.070   1.078  0.0518  0.1049 -0.1538
 2395W        W18204   3.410   0.479  13.790  0.1962  0.0788 -0.0600
 2396W        W18205   5.042   6.637   5.940  0.1692  0.0021 -0.0809
 2397W        W18206   8.451  14.047   2.631 -0.2488  0.0597 -0.0347
 2398W        W18207   4.653   5.334  15.293  0.3421 -0.3581 -0.0590
 2399W        W18208  10.143  16.072   4.678  0.0945 -0.1137 -0.1227
 2400W        W18209   9.464   1.700  10.530 -0.2323  0.0622  0.1495
 2401W        W18210  12.368  11.468   3.237 -0.2333  0.0060 -0.1207
 2402W        W18211   3.168   2.721   2.805  0.0120 -0.2593 -0.0876
 2403W        W18212   9.367   3.666   2.172  0.0100  0.4044 -0.2053
 2404W        W18213  15.594   1.918  11.917  0.0197  0.4376  0.1227
 2405W        W18214   2.234   2.079   1.547 -0.0540 -0.0124  0.0799
 2406W        W18215   6.491  15.206   0.988  0.5135  0.0707  0.0766
 2407W        W18216   4.121  12.864   4.620 -0.0597  0.3676  0.1547
 2408W        W18217   7.155   3.306   3.555 -0.0358  0.0733 -0.0096
 2409W        W18218   6.061   8.630   0.432 -0.0967 -0.2000  0.1551
 2410W        W18219   0.805   0.782   0.770 -0.0479 -0.1689  0.0334
 2411W        W18220   6.721   5.918   2.337  0.0292 -0.0777 -0.1439
 2412W        W18221  12.498  17.694   0.298  0.2835  0.0615 -0.2327
 2413W        W18222   8.767   8.094   3.354  0.6105 -0.0894 -0.2216
 2414W        W18223  13.713   3.753  11.598 -0.0384  0.1710  0.0920
 2415W        W18224  15.997   4.868  11.761  0.0284  0.1315  0.4002
 2416W        W18225   0.711   1.560  16.110  0.1199 -0.0987 -0.2314
 2417W        W18226  17.598   8.764  13.960  0.3684 -0.0975 -0.1243
 2418W        W18227  18.090  13.608  13.736 -0.1012 -0.2613  0.1885
 2419W        W18228  11.149   6.327  14.809 -0.0186  0.1274  0.2519
 2420W        W18229  10.016  12.377  15.396 -0.0015  0.2947  0.3253
 2421W        W18230   6.241  16.542   2.833  0.1928 -0.0489 -0.1556
 2422W        W18231   8.498  15.121   1.421 -0.1012  0.0015  0.0639
 2423W        W18232  11.651  14.966  13.080  0.0492 -0.0418 -0.4004
 2424W        W18233   3.827   2.021  15.830  0.0634  0.3522 -0.1190
 2425W        W18234  14.613   1.240  15.659 -0.0744 -0.3861  0.2063
 2426W        W18235  12.057  17.045  16.139 -0.0813 -0.0301  0.0311
 2427W        W18236   0.817  14.545  13.652  0.1027 -0.3766 -0.2117
 2428W        W18237  13.477   4.535  13.017  0.0999 -0.1854  0.2163
 2429W        W18238   8.349   3.693   3.378  0.2194  0.0362 -0.1402
 2430W        W18239  12.054   2.324  11.743  0.0416 -0.2034 -0.3048
 2431W        W18240  11.336  13.988   2.827  0.0238  0.3709  0.0011
 2432W        W18241  17.190  10.718  13.683  0.1356  0.0010 -0.0840
 2433W        W18242  11.038   9.022  11.124 -0.1713 -0.1402  0.1147
 2434W        W18243   5.456  12.735  11.627  0.1562  0.1106 -0.2519
 2435W        W18244   9.315   6.030   2.009  0.0567 -0.0310 -0.3489
 2436W        W18245  15.877  12.711  13.483 -0.0925 -0.0514  0.0693
 2437W        W18246   4.966  12.560  11.772  0.1119 -0.1292 -0.0024
 2438W        W18247  16.432   6.985   5.599  0.2019  0.1670  0.0039
 2439W        W18248   8.740  16.630   2.051 -0.3201 -0.0152  0.3090
 2440W        W18249   2.495   6.188   5.628 -0.0752  0.2592  0.3080
 2441W        W18250  16.371  16.040   5.468  0.1327 -0.1106 -0.0135
 2442W        W18251   6.989  16.185   1.423  0.0572 -0.0717 -0.1006
 2443W        W18252   0.693   6.136  11.544  0.0727 -0.2244  0.1545
 2444W        W18253  11.021  17.007   3.000  0.2840  0.1297 -0.0039
 2445W        W18254   9.164  13.993   0.818 -0.1159  0.2080  0.3563
 2446W        W18255   6.556  13.492   1.262 -0.3045 -0.1076 -0.1671
 2447W        W18256  13.370   1.551   3.792  0.1719 -0.1090 -0.3379
 2448W        W18257   9.020   1.699   4.665  0.3387 -0.0468  0.0048
 2449W        W18258  13.092  11.792  13.111 -0.0442 -0.0445  0.1867
 2450W        W18259   0.098   6.247   1.731 -0.0157  0.3840  0.1025
 2451W        W18260   5.129  16.349   4.218  0.1154  0.0871  0.1307
 2452W        W18261  12.136   2.527   5.242  0.1271 -0.2504  0.1610
 2453W        W18262   4.217   8.855   2.361 -0.0370 -0.1777 -0.0323
 2454W        W18263  12.805   0.600  14.187 -0.0711  0.2400  0.0983
 2455W        W18264  14.156  11.314   2.508 -0.2864  0.2684  0.0166
 2456W        W18265   3.585  12.382   2.787 -0.1482 -0.4845  0.0661
 2457W        W18266   5.878   0.390  12.793  0.2683  0.0160 -0.2229
 2458W        W18267   7.992  17.969  13.745 -0.1634  0.1955  0.5130
 2459W        W18268   7.741  13.091  15.530 -0.1203  0.1212  0.2059
 2460W        W18269   5.968  14.284  13.525  0.2204 -0.0178  0.0333
 2461W        W18270   3.562  10.275   0.625 -0.5474  0.1288 -0.0971
 2462W        W18271   5.463  13.011   0.527  0.1254 -0.0221 -0.3892
 2463W        W18272  12.991  12.581   2.690 -0.2369  0.1024  0.1063
 2464W        W18273  14.307  11.021  12.961  0.1705  0.0861  0.2059
 2465W        W18274   5.729   5.291  14.419 -0.0548  0.0658 -0.0024
 2466W        W18275  15.390  14.307   0.518  0.0978 -0.1156  0.0726
 2467W        W18276  11.935   3.639  11.179  0.0864  0.0931 -0.0397
 2468W        W18277   6.861   8.231   5.997 -0.3969  0.2541  0.1888
 2469W        W18278  17.353   0.536   1.245 -0.1742  0.0246 -0.3642
 2470W        W18279  10.674  10.125   3.846  0.0590  0.0389 -0.1385
 2471W        W18280  13.215   7.319   0.175  0.0437 -0.0631 -0.2428
 2472W        W18281  17.546  16.770   1.399  0.0655  0.0275  0.2384
 2473W        W18282   1.914  13.134  13.580 -0.4355  0.1203  0.1178
 2474W        W18283  11.364  17.151   3.327  0.2359 -0.0851 -0.3143
 2475W        W18284  12.299  12.258  13.530  0.1325 -0.0555 -0.0022
 2476W        W18285  11.035  12.743   5.173 -0.4198  0.2052 -0.0346
 2477W        W18286  12.383   4.587   1.130  0.1323  0.1180 -0.2441
 2478W        W18287  13.240   1.010  12.740 -0.1354 -0.2089  0.2982
 2479W        W18288   4.699   0.010   3.684  0.0898 -0.4224 -0.1826
 2480W        W18289  13.909   1.659  13.618  0.1904  0.0272 -0.2580
 2481W        W18290  10.995  14.986   3.836  0.1382 -0.0547 -0.0868
 2482W        W18291  10.737  13.998  15.734  0.0186  0.3438 -0.4262
 2483W        W18292  15.681  13.124   2.774 -0.0873  0.0427 -0.0969
 2484W        W18293  16.313  12.969   5.990 -0.0898 -0.2151  0.0377
 2485W        W18294  13.558  11.262   1.874  0.0587  0.0587 -0.1534
 2486W        W18295   6.523   4.438   1.750 -0.0843 -0.0349  0.3617
 2487W        W18296   4.345   2.708  14.556 -0.0525 -0.1628 -0.0311
 2488W        W18297   8.867   1.844   1.801  0.1276 -0.0923 -0.1357
 2489W        W18298   8.933  16.987  13.750 -0.2606 -0.0171  0.1746
 2490W        W18299   8.611   5.934  14.900 -0.1064 -0.1285  0.1764
 2491W        W18300  12.550   9.170  13.736 -0.1608  0.0946  0.0301
 2492W        W18301   7.216  11.432   1.008  0.0765 -0.0596 -0.2071
 2493W        W18302  10.770  17.278   5.115  0.0433 -0.0272 -0.1571
 2494W        W18303  17.492  17.394  15.472  0.0172  0.1087  0.0104
 2495W        W18304   3.624  16.118  15.101 -0.1526  0.1962 -0.2127
 2496W        W18305   1.537   0.681  12.947 -0.2451 -0.0092  0.2120
 2497W        W18306   8.846   3.233  11.633  0.1489 -0.3259  0.0197
 2498W        W18307  11.550   4.754  12.258  0.2155 -0.1323 -0.0414
 2499W        W18308   2.857   6.885  14.070  0.1117 -0.0469 -0.0945
 2500W        W18309  13.637  16.838  15.766  0.0931  0.2659  0.0035
 2501W        W18310  11.143   8.547   2.431  0.0461 -0.1686 -0.1454
 2502W        W18311   7.379   4.793  15.441  0.0517  0.0788 -0.0114
 2503W        W18312  14.604   3.830  12.520 -0.0013  0.3840 -0.0374
 2504W        W18313   2.363  14.857   1.899  0.1644 -0.1940 -0.2362
 2505W        W18314  14.766  18.174  16.244  0.1102 -0.2509  0.3789
 2506W        W18315   5.179  13.338  14.029  0.0668 -0.0199 -0.2501
 2507W        W18316  10.101   7.111   1.719  0.2543  0.0157  0.0273
 2508W        W18317  15.611   5.312   0.016  0.0485  0.1440  0.0146
 2509W        W18318   3.191   3.343  10.388 -0.0987  0.4488  0.0108
 2510W        W18319  15.894  16.327   5.716  0.0207 -0.1653 -0.4807
 2511W        W18320   8.736   8.468  14.304 -0.1345 -0.0340  0.0009
 2512W        W18321   0.325   2.314  14.026  0.0082  0.2562 -0.1051
 2513W        W18322   7.138  17.608   1.566 -0.1227  0.4162  0.0466
 2514W        W18323  16.634   8.261   4.842  0.0671  0.2951  0.4114
 2515W        W18324   7.564  10.152   5.293 -0.0153  0.3097  0.2651
 2516W        W18325   3.005  12.808  15.659 -0.0624  0.2497  0.1147
 2517W        W18326  11.338  10.023   3.203  0.0943  0.3433 -0.0093
 2518W        W18327   7.013   2.906  12.348 -0.1198 -0.2202  0.2677
 2519W        W18328  13.483  12.181  13.710 -0.1519  0.1981 -0.1289
 2520W        W18329   4.194  13.636  14.102 -0.0497  0.0955  0.3226
 2521W        W18330   6.072   1.467   0.648  0.1182 -0.2114 -0.1455
 2522W        W18331  11.685   2.875   2.707  0.2163  0.2298  0.2179
 2523W        W18332   8.698  15.307   4.183 -0.2718 -0.0641  0.0248
 2524W        W18333  17.463  12.944   2.851 -0.0227 -0.2580 -0.1033
 2525W        W18334  16.070   2.982   5.091  0.2130  0.1421  0.0577
 2526W        W18335  15.163   6.776   4.148  0.1178  0.2961  0.1833
 2527W        W18336  16.652  17.576  15.196 -0.0178 -0.3276 -0.1762
 2528W        W18337   8.392   5.983   5.288 -0.3244  0.1478  0.2332
 2529W        W18338   8.881  11.193  10.129  0.1942 -0.1441  0.2470
 2530W        W18339  14.004  17.644  13.908  0.0052 -0.0875 -0.0433
 2531W        W18340   4.691   5.813   2.166 -0.1958 -0.0908 -0.1186
 2532W        W18341  12.453   6.291   3.312 -0.4460  0.0621 -0.0808
 2533W        W18342   1.691   9.301   3.058  0.3599  0.1793  0.1693
 2534W        W18343   2.851   4.783  12.590  0.1545 -0.2987 -0.2153
 2535W        W18344  13.077  10.694  14.878 -0.0475 -0.3124  0.0595
 2536W        W18345  17.776  17.846   5.740  0.0239  0.0266  0.0431
 2537W        W18346   2.224  12.206  11.716  0.2536  0.0374 -0.0323
 2538W        W18347  16.081   6.323   4.740 -0.1503 -0.2832 -0.0086
 2539W        W18348  11.665  10.721   4.593 -0.0067  0.1627  0.2271
 2540W        W18349   9.555   8.748  15.573 -0.1001 -0.0432  0.2797
 2541W        W18350   1.510   0.800   5.030 -0.0172  0.0743 -0.0270
 2542W        W18351   1.028   0.652   5.138  0.2077 -0.1141  0.1444
 2543W        W18352   5.138   6.678  14.095  0.3177 -0.0915  0.0417
 2544W        W18353   9.992   4.137  12.673 -0.0189  0.1676  0.0001
 2545W        W18354   4.019   7.759   4.201  0.2287  0.2008 -0.0591
 2546W        W18355  11.704  13.329   5.190 -0.0216 -0.2030  0.2724
 2547W        W18356   9.808   2.719  13.851 -0.1384  0.1341  0.1675
 2548W        W18357   5.542   6.612   5.481 -0.3568 -0.0028  0.2775
 2549W        W18358  14.702   2.218  13.986  0.3327 -0.1798 -0.0373
 2550W        W18359  11.501   2.148  15.008 -0.2496 -0.0685  0.1750
 2551W        W18360  10.042  11.906  15.145 -0.3779 -0.0184  0.0953
 2552W        W18361  16.574   0.913  14.485  0.0707 -0.1654 -0.1366
 2553W        W18362   2.046  14.418  11.117 -0.0040  0.1922  0.3187
 2554W        W18363   8.897   6.637   1.385  0.0218  0.2691  0.1215
 2555W        W18364   2.090   1.675   4.172  0.3277 -0.1604 -0.0504
 2556W        W18365   5.662   6.342  11.904 -0.0853  0.0652 -0.0906
 2557W        W18366  11.048   0.318  15.778 -0.1975 -0.0260  0.1188
 2558W        W18367   6.452  15.971   4.471 -0.0528  0.0795 -0.0260
 2559W        W18368  16.970  15.509  11.597 -0.1134  0.0248  0.2729
 2560W        W18369  12.170   1.226   3.030 -0.3144  0.1689 -0.0522
 2561W        W18370  16.816  14.007  15.641  0.1634  0.0497  0.0485
 2562W        W18371   2.374  15.931   1.980  0.1049 -0.0082 -0.4748
 2563W        W18372   6.413   3.119  14.477  0.1971  0.1878  0.0025
 2564W        W18373   8.127   0.584   1.613 -0.2797  0.2081  0.2155
 2565W        W18374  11.623  10.883  16.218 -0.0690  0.0908 -0.1532
 2566W        W18375  17.614   1.554  12.859 -0.0095  0.0746  0.1501
 2567W        W18376  10.548  10.496   3.470 -0.2968 -0.1112  0.3360
 2568W        W18377   0.510  17.610  16.186 -0.2108  0.4038  0.2069
 2569W        W18378   8.023  17.752  15.902 -0.0864  0.0849  0.0947
 2570W        W18379  16.841   7.660  16.042  0.2538 -0.0194  0.2109
 2571W        W18380   8.742   4.713  16.257 -0.1314 -0.1240  0.1239
 2572W        W18381  15.423   7.526  12.433  0.0856 -0.1616  0.2953
 2573W        W18382  16.167   2.018   2.410  0.2460 -0.1207  0.1595
 2574W        W18383   7.295  11.787  12.778  0.0060 -0.1386  0.3885
 2575W        W18384  15.937   3.114  12.590 -0.0355 -0.0043 -0.2477
 2576W        W18385   5.404   2.177   1.885  0.0231 -0.2612  0.0928
 2577W        W18386  15.355  16.922  14.212 -0.0065 -0.0349 -0.1376
 2578W        W18387   1.282  12.768   2.993 -0.3528 -0.2918 -0.1294
 2579W        W18388  12.109   3.104   2.609  0.0973 -0.2701 -0.1863
 2580W        W18389   9.467   7.605   3.086  0.0629 -0.3622 -0.0047
 2581W        W18390  11.704  17.354   3.695 -0.1479  0.1538  0.1925
 2582W        W18391  14.739   9.228  12.516 -0.4801  0.0970 -0.2839
 2583W        W18392  15.585   4.476   0.648 -0.1618 -0.0461 -0.1242
 2584W        W18393  11.659   5.889   5.165 -0.0928  0.1102  0.0517
 2585W        W18394  14.630   0.949   4.225 -0.3349  0.1095  0.1020
 2586W        W18395  13.156   6.073  15.401  0.3844 -0.0868  0.1033
 2587W        W18396  16.151  11.178   0.926  0.2064 -0.0687 -0.0212
 2588W        W18397   6.383  12.916  16.266  0.1635  0.0587 -0.1478
 2589W        W18398  17.357  10.320   1.654  0.0565  0.1170  0.0992
 2590W        W18399   3.614   3.538   0.504 -0.1076  0.3389 -0.1219
 2591W        W18400   1.986   7.737   1.517  0.2102  0.0386 -0.0822
 2592W        W18401   6.490  14.761  16.174 -0.0109 -0.1608  0.4289
 2593W        W18402   6.082  16.737  13.506  0.1035 -0.1838 -0.0615
 2594W        W18403   9.696   7.769  11.271 -0.0822  0.2890 -0.1104
 2595W        W18404   6.013  13.492   1.292 -0.4085 -0.0344  0.0848
 2596W        W18405   6.174   5.539   1.341 -0.3926  0.0213 -0.0153
 2597W        W18406   2.891  14.215   0.747  0.1891  0.0375  0.2459
 2598W        W18407  15.043   1.039   2.041  0.1546 -0.0454  0.1691
 2599W        W18408   8.162  15.194   1.899 -0.0450 -0.0518 -0.0263
 2600W        W18409   7.466   2.073   3.056 -0.0634 -0.1089  0.0043
 2601W        W18410   3.637  12.023   0.693  0.2151  0.1044  0.1211
 2602W        W18411   6.014  17.083  15.635  0.0470 -0.1695 -0.0442
 2603W        W18412   0.095  10.695  11.311 -0.1213 -0.0277 -0.1010
 2604W        W18413   4.867   1.099  11.890  0.2171  0.1216 -0.0826
 2605W        W18414   6.008  15.025   5.383  0.2342 -0.0185 -0.0328
 2606W        W18415  16.943   5.963   2.009 -0.0967 -0.0000 -0.0585
 2607W        W18416   2.558   7.364   5.773  0.1716 -0.2879  0.1364
 2608W        W18417   2.217   6.640   2.996 -0.3074  0.1108 -0.1295
 2609W        W18418  11.660   4.602  13.761  0.1160 -0.0630 -0.0389
 2610W        W18419   1.137  10.783   1.254  0.2349  0.3220  0.0229
 2611W        W18420  15.601   7.824   3.626  0.3399  0.2425 -0.1360
 2612W        W18421  17.149   2.618   5.190 -0.1164 -0.2149  0.0733
 2613W        W18422   0.215  17.866  11.991  0.1613 -0.0841  0.2639
 2614W        W18423  17.067   1.776   2.409 -0.3108  0.1665  0.1674
 2615W        W18424  12.878   7.592  10.846 -0.0625 -0.1243 -0.0577
 2616W        W18425  14.883   7.791   4.975 -0.0158  0.0159  0.0528
 2617W        W18426   8.688  11.421  12.908 -0.1388 -0.0120  0.0648
 2618W        W18427   7.047  10.269   4.573  0.1464  0.2302  0.1545
 2619W        W18428  10.403   8.489   5.333  0.3180 -0.0055  0.1565
 2620W        W18429  15.150  13.477   4.357 -0.3830  0.0611 -0.0674
 2621W        W18430   6.992  15.765   1.191  0.1698  0.0891  0.3142
 2622W        W18431  17.069  10.093  11.367 -0.2399 -0.1300 -0.0421
 2623W        W18432  13.594  16.955   5.544  0.1870 -0.0268  0.2733
 2624W        W18433  15.006   4.336   1.106 -0.1099 -0.0546  0.0811
 2625W        W18434  14.105   7.677  15.813  0.0969 -0.1937 -0.0356
 2626W        W18435  11.381  18.110   2.643  0.0754  0.1466 -0.0162
 2627W        W18436   9.808  12.622   4.135 -0.1871 -0.0580  0.1722
 2628W        W18437   2.098   5.678  13.197  0.0604 -0.1044 -0.1558
 2629W        W18438  17.529  13.505  14.397  0.1403 -0.2194 -0.1809
 2630W        W18439  17.681  16.443  12.856 -0.1331  0.2444  0.0459
 2631W        W18440   7.486  17.408  14.796 -0.0443 -0.1738 -0.1146
 2632W        W18441  12.087  12.694  12.350  0.0573  0.0368  0.0237
 2633W        W18442   5.988   3.165   4.111  0.4573  0.1350 -0.1956
 2634W        W18443  15.308   9.660  16.035  0.0781 -0.0629  0.3545
 2635W        W18444  13.986  14.629  15.934 -0.0002 -0.0612 -0.1026
 2636W        W18445   3.182   7.359   0.492  0.1259 -0.2225 -0.1909
 2637W        W18446   4.445   7.187   3.127  0.3670 -0.0279 -0.0851
 2638W        W18447  15.263  10.496   4.258  0.1477 -0.1223 -0.0484
 2639W        W18448   7.802   9.185  16.271  0.0356  0.0101 -0.0536
 2640W        W18449   7.372   3.108  14.664  0.2331 -0.2020  0.0202
 2641W        W18450  15.920  13.476  12.225  0.1014  0.1152 -0.0610
 2642W        W18451   7.731  10.523  13.351  0.1303 -0.1939 -0.0277
 2643W        W18452  15.187  11.593   3.631 -0.2238  0.1161  0.0661
 2644W        W18453  16.815  14.432  15.268  0.1243 -0.2918  0.2076
 2645W        W18454  13.391  15.946  14.923  0.1468  0.1294  0.1435
 2646W        W18455  13.311   2.531   3.609  0.0997 -0.0832  0.0448
 2647W        W18456   8.092   9.916  10.952  0.0646  0.0819  0.1323
 2648W        W18457  18.137   3.074   3.524  0.0384 -0.1051 -0.0394
 2649W        W18458   1.401   4.350   4.015 -0.0287 -0.0309 -0.0395
 2650W        W18459  14.172   6.940  12.998 -0.0063  0.1104  0.0230
 2651W        W18460  13.795   6.703  13.719 -0.1242 -0.0872  0.3165
 2652W        W18461   7.480  17.542  11.625 -0.1600 -0.2867 -0.0852
 2653W        W18462   2.469  12.679   0.013 -0.1070  0.2776 -0.1668
 2654W        W18463   0.379   2.203  12.216 -0.4099 -0.1292  0.1473
 2655W        W18464  14.990   9.356   0.783  0.1573 -0.2924 -0.0872
 2656W        W18465   0.385   8.666   3.239  0.2947 -0.0529  0.1318
 2657W        W18466  12.935   7.780  12.247 -0.1541 -0.0308  0.0526
 2658W        W18467   5.976   9.277  11.341  0.1380 -0.2076 -0.0524
 2659W        W18468  10.167   2.790  15.227 -0.0663  0.1562  0.1041
 2660W        W18469   1.993   2.050   5.495  0.1355  0.0096 -0.0390
 2661W        W18470   9.628  13.525  15.718 -0.2581 -0.0918 -0.1019
 2662W        W18471   4.502  12.902  15.796  0.0213  0.0065  0.1848
 2663W        W18472   2.011   5.221   2.243 -0.0633 -0.1274 -0.0792
 2664W        W18473  17.364  10.652   4.338  0.0429 -0.0942  0.0508
 2665W        W18474   5.969  15.476   2.098  0.3810  0.1549 -0.0248
 2666W        W18475   6.151  17.672  10.991 -0.1570 -0.0231 -0.0564
 2667W        W18476  12.611  17.309  13.855  0.0055 -0.2013  0.2507
 2668W        W18477  15.901  14.850   4.973 -0.1239 -0.0464 -0.3561
 2669W        W18478   1.257  12.823   4.597 -0.0147 -0.3115  0.1329
 2670W        W18479   4.928   4.295   1.260 -0.0249 -0.1118 -0.1451
 2671W        W18480  10.720  12.128   2.141 -0.1493 -0.0112 -0.1548
 2672W        W18481  14.440  17.344  15.015  0.2188  0.0402 -0.1427
 2673W        W18482  13.692   2.277  12.309  0.0502 -0.2680 -0.2202
 2674W        W18483   0.043  10.630  16.322  0.0959  0.1902 -0.0910
 2675W        W18484   8.522  13.319  12.849  0.0129  0.2122 -0.2791
 2676W        W18485   5.503  14.335  14.759  0.0606  0.3485  0.1058
 2677W        W18486   9.945  10.669   1.672 -0.2165  0.2489 -0.0706
 2678W        W18487   1.065   4.837   5.733  0.0774 -0.1180 -0.1423
 2679W        W18488   2.989   4.313   1.781 -0.2581 -0.0750  0.0457
 2680W        W18489  10.821  13.151  16.145  0.0562  0.3508 -0.3340
 2681W        W18490   0.053   1.141   6.169 -0.0314 -0.1465  0.0039
 2682W        W18491  12.604   5.190  14.085  0.1443 -0.2473 -0.0102
 2683W        W18492  12.416   1.268  15.729 -0.0276 -0.2332  0.3976
 2684W        W18493  10.284  12.300  16.365 -0.0123 -0.2056 -0.0437
 2685W        W18494   6.307   9.741   2.282  0.0502  0.0575 -0.0567
 2686W        W18495   5.214   8.296  13.009  0.0588  0.0062  0.2383
 2687W        W18496   0.470   7.003   6.630  0.1827 -0.1037 -0.2647
 2688W        W18497  11.733  15.367   2.238  0.0818 -0.0448  0.0899
 2689W        W18498  15.735   9.406  14.460 -0.3716 -0.1311  0.1611
 2690W        W18499  12.646  11.412  13.970  0.1989  0.1652 -0.1601
 2691W        W18500   9.879  17.316   5.007 -0.0023  0.0709  0.6291
 2692W        W18501  17.200  17.760  11.393 -0.2426 -0.1186  0.1613
 2693W        W18502  13.805  10.395   1.525  0.2676 -0.4327  0.0104
 2694W        W18503  14.141   6.695   2.849  0.0470  0.0896  0.2664
 2695W        W18504   1.322  11.187   4.527  0.1109  0.0747 -0.1037
 2696W        W18505  17.619   1.145   0.265  0.0205 -0.2837 -0.1369
 2697W        W18506  12.814  13.857  15.389  0.4064 -0.0672 -0.1686
 2698W        W18507   8.305  12.782  10.788 -0.2675  0.0501 -0.2729
 2699W        W18508  18.131   6.300   4.942 -0.2099  0.0231  0.0876
 2700W        W18509   3.093   1.621   5.915 -0.2918  0.2249 -0.3501
 2701W        W18510  12.585  17.541  13.097 -0.0937  0.2777 -0.1286
 2702W        W18511  17.511   6.620  12.958 -0.2305 -0.0411 -0.0053
 2703W        W18512  12.532   5.656   0.379 -0.1602 -0.0457  0.0967
 2704W        W18513   4.934   5.757  15.370 -0.2124  0.2977 -0.0486
 2705W        W18514   3.978  16.303   2.174  0.0037  0.0232 -0.1414
 2706W        W18515  13.441  17.450   4.007  0.0786  0.1356  0.0620
 2707W        W18516  13.109   1.425  14.623 -0.0176  0.2741 -0.1010
 2708W        W18517   0.713  17.357   3.124  0.4409 -0.0211  0.1351
 2709W        W18518   7.202   0.472  12.415 -0.0552  0.2797  0.1906
 2710W        W18519  17.871   6.867  12.649 -0.0973 -0.1694  0.0680
 2711W        W18520   0.119   0.310  15.438 -0.3320 -0.0041  0.2098
 2712W        W18521   1.132   4.285   5.892  0.1563  0.1368  0.0375
 2713W        W18522  15.377  16.688  13.713  0.3054  0.2565 -0.2124
 2714W        W18523  12.633   7.940   4.222  0.2423  0.2606 -0.1841
 2715W        W18524  10.634  10.133  15.854  0.2316  0.0315 -0.0173
 2716W        W18525   6.613   1.911  13.697  0.1365 -0.1721  0.0356
 2717W        W18526   3.085   3.998  14.076  0.2020 -0.0840 -0.3021
 2718W        W18527  12.821   8.325  13.942 -0.4025  0.2341  0.3926
 2719W        W18528   0.280   0.895   4.409 -0.2478 -0.1987  0.0682
 2720W        W18529   0.095  12.181   0.791  0.2783 -0.0403 -0.0652
 2721W        W18530  10.484   9.367  15.459  0.1690  0.0999  0.1725
 2722W        W18531  10.561   6.927  15.827  0.2523  0.1568  0.2799
 2723W        W18532  11.122   9.052  15.292  0.0265 -0.3029  0.0160
 2724W        W18533   2.537  13.305   2.888  0.3644  0.0831  0.3033
 2725W        W18534   4.679  16.648  10.846 -0.2345  0.1793 -0.3036
 2726W        W18535  13.376  12.507  16.129 -0.1807 -0.0870  0.1028
 2727W        W18536   3.747  11.105  14.577 -0.0537  0.0976  0.2255
 2728W        W18537   6.274   9.924   2.789 -0.4667 -0.0108 -0.2033
 2729W        W18538   3.782   4.705   1.861  0.0800  0.4940 -0.0797
 2730W        W18539  17.600   5.485  11.532 -0.2355  0.0147  0.1053
 2731W        W18540  14.241  10.165   3.540  0.1385 -0.3994  0.0504
 2732W        W18541  11.975   1.671  15.810  0.1636  0.1820 -0.2333
 2733W        W18542   5.708   0.015   0.881  0.3464 -0.3406  0.0482
 2734W        W18543   6.421  16.566   3.617  0.0356  0.1568 -0.0603
 2735W        W18544  11.249  13.289  15.889 -0.1397  0.0362  0.0299
 2736W        W18545   2.768  12.242  12.266 -0.2727 -0.1564  0.1249
 2737W        W18546  13.831  14.873  15.445  0.1416 -0.0399 -0.4579
 2738W        W18547   0.804   5.739   1.576  0.0054 -0.0339  0.0293
 2739W        W18548   2.277   4.485   0.150  0.2325 -0.2400  0.3462
 2740W        W18549   1.234   7.357  13.547  0.1385  0.1597 -0.1773
 2741W        W18550  12.752  16.484   2.519 -0.2448  0.3585  0.0089
 2742W        W18551  17.749   7.775  12.445 -0.4211  0.0252 -0.0825
 2743W        W18552   7.890  10.166   0.716 -0.1738 -0.0375 -0.0498
 2744W        W18553  17.916  17.696  15.537 -0.1752  0.0737 -0.2038
 2745W        W18554  14.985  14.711  16.095  0.1071 -0.2901  0.0267
 2746W        W18555   9.592  17.162   2.681  0.0062  0.0273 -0.1919
 2747W        W18556  17.483  15.722   4.792  0.1123  0.0456  0.1617
 2748W        W18557   6.082   6.803  13.771 -0.2260 -0.0645 -0.0397
 2749W        W18558   5.324   1.091  13.379 -0.0938  0.1017  0.0679
 2750W        W18559   8.127   8.461  12.600  0.1846  0.0205 -0.2040
 2751W        W18560   0.645  14.815   4.288  0.2406  0.0632  0.1931
 2752W        W18561  13.883  17.799   0.389  0.0804 -0.0989 -0.1704
 2753W        W18562   0.782   0.371   4.742  0.0191  0.0608 -0.0220
 2754W        W18563   4.945   5.440  15.759  0.1542  0.4520  0.2206
 2755W        W18564   8.307   4.499  16.006 -0.1919 -0.1461 -0.0087
 2756W        W18565   5.745  12.213  12.416 -0.0006 -0.1907  0.0475
 2757W        W18566  14.334   2.734  15.829  0.2007 -0.0889  0.0607
 2758W        W18567   7.347  16.197  13.379 -0.0421  0.0928  0.0234
 2759W        W18568   5.798  17.761  13.669 -0.1290  0.0218 -0.0012
 2760W        W18569  16.391  11.700  15.727  0.0368 -0.0985  0.0200
 2761W        W18570   4.745   0.820   3.056 -0.0471 -0.2795  0.2610
 2762W        W18571  13.411   3.208   0.006 -0.1540  0.0080 -0.0425
 2763W        W18572   2.310   4.613   2.954  0.0795  0.1129  0.0487
 2764W        W18573   8.706  13.134   2.729 -0.2214  0.2276  0.0243
 2765W        W18574  13.322  13.857  14.271  0.0678  0.2232 -0.0176
 2766W        W18575   4.939   6.072   3.425  0.0176  0.3631 -0.0345
 2767W        W18576   3.304  11.878  12.540 -0.1816 -0.0094  0.2391
 2768W        W18577   6.916  12.622   3.629 -0.1643  0.1517  0.0835
 2769W        W18578  16.990   9.352  12.260  0.0028  0.0142  0.1204
 2770W        W18579   2.288   5.903   5.174  0.1090  0.1400 -0.1402
 2771W        W18580   9.480   1.286  15.054  0.0465  0.1806 -0.1047
 2772W        W18581  16.080  17.204   4.817 -0.0668  0.0730  0.0556
 2773W        W18582  13.507  15.324   0.692 -0.2141  0.0484  0.0084
 2774W        W18583   1.697   7.866   4.533  0.0952  0.0336  0.1596
 2775W        W18584  12.518  13.015   0.668 -0.1118 -0.0461 -0.0249
 2776W        W18585   8.511  13.806  13.115  0.0715  0.2026 -0.0895
 2777W        W18586   2.143   8.249   3.899 -0.0545  0.0401 -0.2802
 2778W        W18587   5.819   9.598   1.119 -0.0345 -0.0313 -0.0700
 2779W        W18588   5.305   0.874  11.778 -0.2501  0.2979 -0.1446
 2780W        W18589   5.494   0.294   5.641  0.1960  0.0354  0.0338
 2781W        W18590  17.218  17.614   5.030  0.3190 -0.2165 -0.1640
 2782W        W18591   8.814  12.799   1.171 -0.1329  0.0127  0.1601
 2783W        W18592   8.294   0.403   1.148 -0.1382  0.1782 -0.0383
 2784W        W18593  10.660   8.847  12.896 -0.3089  0.1285  0.1311
 2785W        W18594  10.125   6.411  15.389 -0.2283  0.3067 -0.1401
 2786W        W18595   0.646   3.285  13.051  0.2113 -0.0046  0.2161
 2787W        W18596   1.783   2.448   2.113  0.1834  0.0917  0.2823
 2788W        W18597   8.116  14.706   5.410 -0.2489  0.1965  0.1312
 2789W        W18598  10.192  16.752  13.221 -0.1091  0.0924 -0.0519
 2790W        W18599  11.172  16.936   4.291 -0.1199 -0.1266 -0.1598
 2791W        W18600   0.682   7.599  14.146 -0.3015 -0.2950 -0.2652
 2792W        W18601   8.818   3.029  12.666  0.0745  0.1278 -0.0129
 2793W        W18602   4.780  16.683   1.842  0.0406  0.2208  0.0687
 2794W        W18603   5.017  16.000   0.167  0.2377 -0.0484 -0.3338
 2795W        W18604   1.217   8.592  16.055  0.2982 -0.0473  0.2520
 2796W        W18605   0.498   7.505  12.364  0.2454 -0.2663  0.2678
 2797W        W18606   0.631   1.374  14.817 -0.0982 -0.2976  0.2196
 2798W        W18607  14.745  18.028   4.305 -0.0512  0.0419  0.0307
 2799W        W18608   4.572   3.575   0.964  0.1117  0.3630  0.0310
 2800W        W18609   1.469  16.572   3.253 -0.1291 -0.3747  0.0490
 2801W        W18610  15.478  12.570  14.700  0.5727 -0.1787  0.1163
 2802W        W18611  17.713   4.179   5.784 -0.1304 -0.0804  0.1356
 2803W        W18612  18.198   9.147   5.086  0.0178  0.1846  0.1156
 2804W        W18613   1.113   6.855  14.630 -0.0594 -0.0403 -0.0885
 2805W        W18614  17.765   0.143  11.435 -0.1829 -0.1060 -0.2977
 2806W        W18615  12.080   8.811   2.727 -0.3013  0.6707 -0.0911
 2807W        W18616  15.452  12.487   5.266 -0.2503 -0.0419  0.1699
 2808W        W18617   6.738   6.019   3.997 -0.0819  0.0710  0.2768
 2809W        W18618   3.819  17.884   5.166  0.1100  0.0228 -0.1240
 2810W        W18619   6.604   7.080  12.966  0.4164  0.2701  0.1659
 2811W        W18620  15.055  17.776  14.126 -0.1906  0.0214  0.1077
 2812W        W18621  14.131   8.586  11.401  0.1108  0.3550 -0.0792
 2813W        W18622   5.041   6.232  15.594 -0.1441 -0.0469 -0.2689
 2814W        W18623  14.369   7.649   0.788 -0.0529 -0.3927 -0.0643
 2815W        W18624  12.909  10.831   2.482  0.1932  0.1110 -0.0737
 2816W        W18625  13.421   2.148   2.181 -0.1632  0.2530 -0.0645
 2817W        W18626   9.191  17.870  15.523 -0.0532  0.1110  0.1330
 2818W        W18627   2.459   8.406   5.603 -0.0206 -0.0378  0.1449
 2819W        W18628   9.485   0.318   1.488 -0.0900 -0.2076  0.2604
 2820W        W18629  10.315   0.312  12.037 -0.0305  0.0674 -0.0234
 2821W        W18630   0.525   3.875  16.247  0.0867 -0.1411  0.6598
 2822W        W18631   1.855   4.331   5.200  0.0054 -0.2020 -0.2235
 2823W        W18632  18.144  10.460   4.814  0.0085  0.0251 -0.1832
 2824W        W18633   5.136  10.954  12.186  0.0226 -0.2882  0.1137
 2825W        W18634   1.010   1.359  13.572 -0.1555 -0.2190  0.0947
 2826W        W18635  14.980   2.079   1.967  0.2126 -0.1276  0.1011
 2827W        W18636   3.863   6.689  13.782  0.2321  0.2669  0.0804
 2828W        W18637  10.586  13.082   0.985  0.3472 -0.1868  0.0363
 2829W        W18638   6.185   0.830  12.831  0.2344  0.3178  0.1932
 2830W        W18639  10.887   6.278   4.178 -0.0469 -0.0809 -0.4377
 2831W        W18640  13.336   5.997   5.628 -0.1822  0.0302  0.3321
 2832W        W18641   0.403  10.832   1.692 -0.0158 -0.0336 -0.0410
 2833W        W18642  10.047  16.898  15.183 -0.2225 -0.2544 -0.0021
 2834W        W18643  17.144   5.394  12.950 -0.0004 -0.4573 -0.0683
 2835W        W18644   7.150  11.818   0.096 -0.1269 -0.0050 -0.2143
 2836W        W18645  17.563  13.974  10.375  0.3275  0.2372 -0.0806
 2837W        W18646  10.165  14.412   2.980  0.1741  0.1229  0.1687
 2838W        W18647   0.350  13.018   0.206  0.1111 -0.1432  0.1086
 2839W        W18648   5.977   6.195   4.202 -0.0625 -0.0814 -0.0234
 2840W        W18649   7.389  14.185  15.415  0.0629  0.3924  0.0976
 2841W        W18650  14.950   1.461  13.131 -0.0915  0.2086  0.2207
 2842W        W18651   8.072   4.734   3.758  0.2060 -0.2861  0.4136
 2843W        W18652   2.953   0.430  14.978 -0.3234  0.0106 -0.1457
 2844W        W18653  11.443  11.834   5.165 -0.0208  0.3507  0.0146
 2845W        W18654  10.792  10.017  13.705  0.0742  0.0633 -0.3951
 2846W        W18655  16.625  14.392   2.971 -0.0710  0.2032  0.0633
 2847W        W18656   2.552   4.669  16.058 -0.0715 -0.0412 -0.1976
 2848W        W18657  11.718   9.494  10.734 -0.0569 -0.1103 -0.0590
 2849W        W18658   9.517   5.234  14.011 -0.1816 -0.3484  0.1166
 2850W        W18659  13.224   2.142   1.411  0.0668  0.2416 -0.1375
 2851W        W18660   0.760   2.916   1.509 -0.2732 -0.2659  0.1815
 2852W        W18661  10.174   3.614   4.457 -0.0370 -0.1144 -0.1414
 2853W        W18662   6.312  15.826   2.774  0.1563 -0.0963  0.1287
 2854W        W18663  11.891   7.143   4.186 -0.0409  0.0151  0.1593
 2855W        W18664   4.149  13.285   4.256 -0.3584 -0.2053 -0.0915
 2856W        W18665  12.088   0.417  15.612 -0.0375 -0.0093 -0.0768
 2857W        W18666   3.211  13.104  11.726  0.2601  0.2567  0.0020
 2858W        W18667   0.512  11.164   0.309  0.0594 -0.0538  0.0637
 2859W        W18668  16.201   8.084  13.330 -0.2494 -0.1901 -0.0264
 2860W        W18669  15.297   9.773   0.804 -0.0272  0.2721 -0.0141
 2861W        W18670  15.235   9.296  12.491 -0.1296 -0.2856 -0.1325
 2862W        W18671  13.409   3.054   4.474  0.1063  0.0049 -0.0520
 2863W        W18672   3.971   0.464   5.311  0.1734 -0.3346  0.0345
 2864W        W18673   3.116   6.210   4.165  0.2630 -0.0615 -0.1723
 2865W        W18674   0.339   3.115   1.746  0.0352  0.1649  0.0622
 2866W        W18675   0.974  10.382  11.515  0.0031 -0.0784 -0.3750
 2867W        W18676  13.221  10.324  11.257 -0.4060 -0.0189 -0.1217
 2868W        W18677   3.682  13.168   4.300  0.2473 -0.2429 -0.0782
 2869W        W18678   4.037  16.449   1.356 -0.0075  0.0195  0.0989
 2870W        W18679   8.435   3.817   4.677  0.3359  0.0519  0.2430
 2871W        W18680   6.623   5.649  16.058  0.2551  0.0371 -0.1248
 2872W        W18681   0.342   7.454   2.057  0.1029 -0.0519  0.1642
 2873W        W18682  16.805  13.162   2.024 -0.0551 -0.0116 -0.0051
 2874W        W18683  14.764  12.497  12.765 -0.1886  0.2220 -0.0062
 2875W        W18684  15.856  15.425   5.240 -0.3961 -0.1524  0.3025
 2876W        W18685   9.048   0.450   2.604 -0.2299 -0.2126 -0.2558
 2877W        W18686  16.925   4.486  15.198  0.0393  0.0844 -0.1730
 2878W        W18687   1.418  14.015  11.551  0.0514  0.1122  0.2674
 2879W        W18688   7.698   9.206  15.369  0.2054 -0.0472  0.1990
 2880W        W18689   8.241  10.782   6.002 -0.1022  0.2935  0.1217
 2881W        W18690  17.831  13.604   4.804 -0.1762  0.3317  0.0257
 2882W        W18691  17.295  10.168  11.839  0.1006 -0.3115  0.1155
 2883W        W18692  13.238  10.251  15.637  0.0208  0.0481 -0.0623
 2884W        W18693   5.819   6.836  15.664 -0.3055  0.2658 -0.1123
 2885W        W18694   8.075  15.321  13.485  0.0746 -0.2345 -0.1254
 2886W        W18695   4.229   4.223   5.949 -0.1394 -0.0457 -0.2376
 2887W        W18696  10.192  16.293  11.522 -0.0639  0.1709 -0.1101
 2888W        W18697   8.645  16.469   4.695  0.0640 -0.2426  0.3241
 2889W        W18698   0.115   7.728  12.919 -0.3971  0.0446 -0.3537
 2890W        W18699  15.597   0.818   1.895  0.1966 -0.1545 -0.0023
 2891W        W18700   8.387   1.376  15.680 -0.0407  0.3066 -0.1307
 2892W        W18701   3.730   9.221  12.204 -0.0019  0.0107  0.2386
 2893W        W18702  12.049  16.322   3.234  0.3452 -0.1784  0.3030
 2894W        W18703   0.567   1.657  11.950  0.0223 -0.1116  0.1494
 2895W        W18704   4.127  13.106   2.651 -0.2148  0.0406  0.0317
 2896W        W18705  16.198   3.954   4.745 -0.0181 -0.1902  0.1053
 2897W        W18706   0.774  17.591  15.508  0.1097 -0.1630  0.0360
 2898W        W18707  18.002   5.460   0.428  0.1566  0.0217 -0.1243
 2899W        W18708  18.163   2.831  15.457  0.3239  0.3734  0.1551
 2900W        W18709   7.022   2.157  12.923 -0.1156 -0.4490  0.0105
 2901W        W18710   6.978   4.027   2.358 -0.3195 -0.3433  0.0909
 2902W        W18711  13.483  14.022  15.114 -0.1689 -0.1075 -0.0825
 2903W        W18712   2.799   5.502  16.298  0.0505 -0.3413 -0.3071
 2904W        W18713  16.989  14.864  15.344 -0.1434 -0.3061  0.0388
 2905W        W18714   2.027  13.111   1.299  0.0220 -0.1055  0.0927
 2906W        W18715  13.347   5.460  15.502  0.2719 -0.0336 -0.0629
 2907W        W18716  14.966  16.372  11.749 -0.4317  0.0949 -0.0177
 2908W        W18717   4.027   1.588   3.172 -0.1178  0.5121  0.3193
 2909W        W18718   5.816  13.606   4.132 -0.3682  0.1543 -0.2389
 2910W        W18719   6.992   7.102   1.001 -0.0701  0.2223  0.0617
 2911W        W18720   7.967  15.062  13.003 -0.1465 -0.2204  0.1932
 2912W        W18721  10.718  12.528  12.493  0.3858 -0.0758  0.2424
 2913W        W18722  12.147   7.348  12.315  0.1340 -0.1093  0.0239
 2914W        W18723   7.856   6.899  13.653 -0.4340  0.2536 -0.0998
 2915W        W18724  16.682   1.323  12.475 -0.2091  0.3634 -0.1437
 2916W        W18725  14.691  15.896   0.856  0.0720 -0.0594  0.1169
 2917W        W18726  10.183  14.255  15.641  0.1921  0.1874 -0.2394
 2918W        W18727   2.515  10.190   2.602 -0.0667  0.0200 -0.0205
 2919W        W18728   3.310   9.636   3.834 -0.0767  0.1225 -0.0525
 2920W        W18729   4.797   4.408   5.013  0.1478  0.2579 -0.3878
 2921W        W18730  12.670  14.297  11.872  0.0861 -0.0678 -0.0361
 2922W        W18731  11.494   7.287   3.893  0.1029  0.2027 -0.0143
 2923W        W18732  15.059  10.691  13.412  0.2119  0.1586 -0.2641
 2924W        W18733  16.551  17.110  15.459  0.4518 -0.0072  0.4584
 2925W        W18734  16.069  16.377  11.277  0.3112 -0.0943 -0.0216
 2926W        W18735   8.565  17.416  15.453  0.1218  0.1996 -0.0705
 2927W        W18736  12.329   3.972   4.956  0.4393  0.0905  0.0588
 2928W        W18737   7.154  12.153   3.418 -0.3149 -0.1222 -0.0338
 2929W        W18738   7.508  15.808  12.252 -0.0425 -0.3567 -0.0525
 2930W        W18739   4.893  16.447  14.996  0.0792 -0.0678 -0.0211
 2931W        W18740  14.338  15.639  15.169 -0.0230  0.1390 -0.1102
 2932W        W18741   6.423   3.027  15.616 -0.0962  0.4440 -0.1467
 2933W        W18742  17.654  14.545   0.885 -0.0228  0.2005 -0.0375
 2934W        W18743  16.404   4.499  15.252  0.0377 -0.1233 -0.1353
 2935W        W18744  14.182  14.969  14.605 -0.2356  0.2278  0.1179
 2936W        W18745   4.088   3.200   3.807  0.1071 -0.3703  0.4650
 2937W        W18746  11.992  11.910   2.793  0.4036  0.2271  0.1314
 2938W        W18747   8.739   1.882  15.810  0.1031 -0.0330 -0.0366
 2939W        W18748   9.303  11.813  10.711 -0.3428  0.0885 -0.1065
 2940W        W18749   8.999   8.689  15.675 -0.3959 -0.0644 -0.1061
 2941W        W18750  13.169  16.886   1.694  0.0883 -0.2756 -0.1235
 2942W        W18751  10.688   8.138   4.378  0.0459  0.0912  0.0338
 2943W        W18752   3.009   3.624   3.074 -0.0337  0.2792  0.0675
 2944W        W18753   9.289  17.595  11.897 -0.0632  0.0055 -0.0109
 2945W        W18754  14.587  17.110   0.570 -0.0207  0.1769 -0.0873
 2946W        W18755  14.109  16.308   5.808 -0.3136  0.4624 -0.1502
 2947W        W18756   1.928  16.316   1.700 -0.1988  0.0185  0.1701
 2948W        W18757   3.467   9.308   0.169  0.0022  0.0911 -0.3488
 2949W        W18758   5.792   2.558  12.160 -0.2495 -0.0801 -0.1542
 2950W        W18759  15.993  11.378   5.662  0.1192 -0.0724  0.1639
 2951W        W18760  13.941   0.212  14.980  0.0330  0.1951  0.2085
 2952W        W18761   3.911   7.987   2.109 -0.0624 -0.1846 -0.0583
 2953W        W18762   0.783   8.673  15.030  0.0693 -0.4101  0.2614
 2954W        W18763   1.623  17.379  11.659  0.1008 -0.3621 -0.2242
 2955W        W18764   7.367   6.713   0.887 -0.2968 -0.2186  0.1177
 2956W        W18765   9.556  16.613  12.407  0.0695  0.2294 -0.0473
 2957W        W18766   8.398   3.285  11.837  0.1797  0.1517 -0.1394
 2958W        W18767  11.984   7.023   0.449  0.1252  0.0403  0.1085
 2959W        W18768   2.542   0.916   5.782 -0.0355  0.6075 -0.1712
 2960W        W18769  13.242  17.029  11.614 -0.0057  0.1525  0.0698
 2961W        W18770   1.598   5.531   3.584 -0.2010 -0.2237  0.0278
 2962W        W18771   6.357  12.764  11.984 -0.0469  0.0534  0.1228
 2963W        W18772   5.532  11.026   2.447  0.0423  0.1685 -0.0282
 2964W        W18773   9.744  14.644   5.691  0.1907 -0.0984 -0.2827
 2965W        W18774   0.498   1.548   5.567  0.2833 -0.1009 -0.1807
 2966W        W18775   7.883   7.326   1.465 -0.3825  0.0176  0.1765
 2967W        W18776   5.852   8.697  13.551 -0.2987 -0.2819  0.0196
 2968W        W18777  11.381  15.127   1.407  0.0230  0.0369 -0.2863
 2969W        W18778   7.426  10.779  13.714 -0.1141  0.1748  0.1191
 2970W        W18779  16.157   7.191   3.027 -0.0337  0.0088  0.2966
 2971W        W18780  17.057  12.617  13.505  0.0143  0.1398 -0.0058
 2972W        W18781  16.298  12.888  13.811  0.1220  0.0035  0.1815
 2973W        W18782   9.625  16.543  15.300  0.1083  0.0657 -0.0588
 2974W        W18783  17.043  11.812   5.513 -0.2911 -0.1988  0.1500
 2975W        W18784   3.992  12.156   2.740 -0.1340  0.0750 -0.0073
 2976W        W18785  14.450  10.510  12.783 -0.1519 -0.0752  0.0192
 2977W        W18786   5.216  17.387  12.265 -0.0661  0.2406  0.0501
 2978W        W18787  12.257  10.801  12.694 -0.0764 -0.3006 -0.3705
 2979W        W18788  17.928  11.268   2.940 -0.2996  0.1850  0.2369
 2980W        W18789   4.017   4.530  12.214 -0.0595  0.2862  0.1021
 2981W        W18790   9.789   3.051  11.967 -0.0088 -0.0998  0.0572
 2982W        W18791  15.840  15.117  11.871  0.2683 -0.2007  0.3779
 2983W        W18792   1.321   1.438   2.422  0.1317 -0.0362 -0.1911
 2984W        W18793  16.868  14.503  11.250  0.0113 -0.1692 -0.2638
 2985W        W18794   9.900   8.073  13.929  0.0623 -0.0585 -0.0181
 2986W        W18795  17.931   7.910   3.794 -0.2652  0.2448  0.0716
 2987W        W18796   7.796  12.214   2.432 -0.0820  0.0975  0.2412
 2988W        W18797  18.120  11.791   1.407  0.0360 -0.1279  0.0495
 2989W        W18798  17.312   4.167   2.108  0.0004 -0.0545 -0.0557
 2990W        W18799   3.624  12.514   5.212  0.1612 -0.0421  0.0871
 2991W        W18800   4.565  13.221   2.214 -0.0879 -0.0124  0.0563
 2992W        W18801  17.865  17.008  16.087  0.2046  0.0486 -0.1262
 2993W        W18802  12.924   1.536  11.641 -0.1401 -0.0458 -0.0995
 2994W        W18803   9.348   7.969   2.127  0.2713 -0.1650 -0.0506
 2995W        W18804   8.522   0.473   6.034  0.1760 -0.1381 -0.1416
 2996W        W18805  18.157  13.123  11.687 -0.0768  0.1368 -0.0439
 2997W        W18806   0.672  17.085   1.246  0.0386 -0.0068 -0.0104
 2998W        W18807   6.836   2.166   0.228  0.1018 -0.1723 -0.2186
 2999W        W18808  17.718   2.962  15.861  0.0741  0.2856  0.0063
 3000W        W18809   3.690  17.592  14.711 -0.2280 -0.0906 -0.1479
 3001W        W18810   8.800  15.988  11.997 -0.1582 -0.3474  0.0160
 3002W        W18811  16.515  11.602  14.340  0.0783  0.1954  0.1144
 3003W        W18812  14.056  15.261   2.078 -0.0084  0.2400  0.2739
 3004W        W18813   5.610  13.346   3.748  0.1841 -0.0519 -0.3742
 3005W        W18814  16.936  16.157   0.932 -0.0385 -0.1266 -0.0911
 3006W        W18815   9.307   4.554   2.534  0.0308 -0.1689 -0.2139
 3007W        W18816   4.694   6.223  13.050  0.0989  0.1023 -0.1480
 3008W        W18817  17.108   4.518   2.446 -0.0479  0.2331  0.1242
 3009W        W18818   5.660   5.398  16.324  0.1794  0.1320 -0.2849
 3010W        W18819  17.043   5.204  11.775  0.0777  0.3778  0.0081
 3011W        W18820   7.634   6.244  12.273 -0.0084  0.1799  0.0872
 3012W        W18821  13.616  13.736  15.846 -0.1944 -0.0538 -0.3018
 3013W        W18822  17.402  13.552  12.099 -0.1264  0.3068  0.1057
 3014W        W18823   0.594   0.961  13.982  0.1659 -0.1726 -0.3748
 3015W        W18824   3.868   8.543   0.595 -0.0848 -0.0252 -0.4278
 3016W        W18825  14.020   1.661  16.264  0.3518 -0.2023 -0.1038
 3017W        W18826   1.591  16.430  15.295  0.1404  0.3711  0.0718
 3018W        W18827  13.170   0.394  13.895 -0.4864 -0.0256  0.4304
 3019W        W18828   2.432  14.899   5.236  0.1025 -0.2400 -0.0867
 3020W        W18829  17.066   0.323   2.550 -0.2338 -0.2381  0.2088
 3021W        W18830  12.256   4.833  11.909 -0.1980 -0.0863 -0.0687
 3022W        W18831   2.510   0.721  13.914 -0.0181  0.1249 -0.0791
 3023W        W18832   5.763  17.706   4.135 -0.0651  0.0768  0.2695
 3024W        W18833   6.891  14.113   0.238 -0.1699  0.1943  0.1724
 3025W        W18834  11.054   4.051   1.044  0.0967 -0.1225 -0.1491
 3026W        W18835   4.623  13.530  13.294 -0.1511 -0.2075  0.2139
 3027W        W18836   4.948  15.089   4.722  0.1067 -0.1529  0.0545
 3028W        W18837  13.471   5.318   2.712  0.0066 -0.1419  0.0220
 3029W        W18838   7.058   9.972   0.661  0.1083  0.1612  0.1102
 3030W        W18839  16.857  10.713   6.273 -0.3630 -0.2192 -0.1043
 3031W        W18840   3.039  11.660   5.239 -0.0109 -0.3523 -0.2147
 3032W        W18841  10.556  13.204  14.592 -0.2862 -0.0413 -0.1307
 3033W        W18842   9.002   2.208  14.315  0.0051  0.0803  0.0282
 3034W        W18843   0.196   0.362  12.531 -0.0924  0.1378 -0.1996
 3035W        W18844  12.202  16.508  16.134  0.0554 -0.4177 -0.1450
 3036W        W18845  13.525  16.011  12.564 -0.1764  0.1396 -0.0122
 3037W        W18846  10.907  15.953  11.135  0.0127 -0.2027 -0.2915
 3038W        W18847  10.183   5.574   2.347  0.2685 -0.3049 -0.0747
 3039W        W18848  14.284  11.924   0.756 -0.0890 -0.1308 -0.2776
 3040W        W18849   1.231   9.732   3.616  0.0487 -0.0808 -0.3258
 3041W        W18850   3.408  10.564   3.503 -0.0524  0.0483  0.2785
 3042W        W18851   7.780   0.359  14.955 -0.2284 -0.0561 -0.0308
 3043W        W18852   4.490   5.904  14.262 -0.1482 -0.1865 -0.1367
 3044W        W18853   4.772  13.452   4.227  0.2593 -0.2171  0.2233
 3045W        W18854  14.551   9.617   2.014  0.1761  0.2715 -0.2201
 3046W        W18855   4.823  14.945  13.856 -0.3509  0.1453  0.1374
 3047W        W18856  12.172   0.590   2.785 -0.5282 -0.3525  0.0528
 3048W        W18857  15.942  10.901   5.554  0.1988  0.1644  0.0647
 3049W        W18858  14.391   3.657   0.045 -0.2633  0.2071 -0.3098
 3050W        W18859   5.345   5.880  15.664  0.0016 -0.2437 -0.1460
 3051W        W18860   2.260   9.266  13.703 -0.0948 -0.4589  0.1621
 3052W        W18861   7.597  10.903  12.712 -0.3169  0.0491 -0.0960
 3053W        W18862  16.086  17.352   5.736 -0.1595  0.2830 -0.0710
 3054W        W18863   4.515   9.990   0.154 -0.0641 -0.0271 -0.2139
 3055W        W18864   0.736   0.213  13.186 -0.0533 -0.1306  0.1823
 3056W        W18865   7.630   6.409  13.979  0.1702 -0.3710  0.0313
 3057W        W18866  14.337  11.663   3.349 -0.3606 -0.0328 -0.0337
 3058W        W18867   4.902   0.563   4.384 -0.1864  0.1476  0.0582
 3059W        W18868   5.487  13.914  12.084  0.2565 -0.0846  0.1551
 3060W        W18869  15.594   4.535   1.838  0.0937  0.1096 -0.2239
 3061W        W18870  10.510   7.915  14.522  0.0223  0.0408  0.0537
 3062W        W18871   8.035  14.720   0.195  0.1396 -0.0511  0.0034
 3063W        W18872  15.781   2.367   3.054  0.1227  0.0521  0.0806
 3064W        W18873   9.628   9.408   0.273 -0.0982 -0.1161 -0.0351
 3065W        W18874  14.950   8.381   0.112  0.0286 -0.1307  0.1834
 3066W        W18875   9.899  10.447  14.208 -0.1092  0.2128 -0.0291
 3067W        W18876  10.057   4.744  11.273 -0.0558 -0.0894 -0.2368
 3068W        W18877  10.027   7.336   4.303  0.1544 -0.1053 -0.0149
 3069W        W18878  15.931   5.047  14.599  0.3166  0.0424  0.0299
 3070W        W18879  10.192  10.633  11.430  0.1983 -0.0132 -0.2155
 3071W        W18880   6.034  15.630  11.654  0.3187 -0.1295  0.1076
 3072W        W18881  10.091  13.662  13.210 -0.1676 -0.0082  0.1280
 3073W        W18882   4.366  14.298  11.503 -0.1101  0.1737  0.1270
 3074W        W18883  12.253  11.378  16.112 -0.1279 -0.0502  0.0719
 3075W        W18884   5.497   2.983   4.008  0.0616  0.1277 -0.1651
 3076W        W18885   2.321   1.974   5.022 -0.0070 -0.1979  0.1471
 3077W        W18886   8.717  13.575  14.690  0.2063  0.2552  0.1291
 3078W        W18887  17.699   8.932  12.607 -0.1353  0.3533 -0.1891
 3079W        W18888   4.738   7.541  14.955  0.3547  0.1754  0.2428
 3080W        W18889   9.721   7.225   2.670  0.0318  0.2102  0.0822
 3081W        W18890  18.115  18.102  15.715 -0.2122 -0.1862 -0.1422
 3082W        W18891   5.456   7.422   4.334 -0.2019  0.0713  0.0014
 3083W        W18892   8.441  14.591  13.895 -0.0416  0.1310 -0.1150
 3084W        W18893   8.564   7.633  14.076 -0.0803 -0.1299 -0.0284
 3085W        W18894   1.032  15.641  13.707  0.3732 -0.2275  0.0705
 3086W        W18895   7.651   0.238  16.324 -0.3417 -0.3113  0.0905
 3087W        W18896  16.158  13.418   2.200  0.2497 -0.1262  0.1520
 3088W        W18897   0.120   1.707   2.769  0.1024 -0.3247 -0.0194
 3089W        W18898  12.398  17.060   1.640  0.0794  0.1318  0.1341
 3090W        W18899  12.362   4.531   3.497  0.1294 -0.1928 -0.1182
 3091W        W18900  16.901   1.758  12.232 -0.1140  0.1844 -0.0320
 3092W        W18901   9.356   0.250   5.330 -0.0026 -0.1495 -0.1027
 3093W        W18902  16.688   5.357  14.839  0.0307 -0.2526 -0.0992
 3094W        W18903  16.592  14.586   5.498 -0.1629 -0.4647  0.2038
 3095W        W18904   6.057   8.131   4.808  0.0132 -0.1218  0.1345
 3096W        W18905   8.591  16.975   4.732  0.0322 -0.1692 -0.1607
 3097W        W18906  18.032   9.084   1.568  0.0943  0.4516  0.1120
 3098W        W18907   8.028  11.244  15.493 -0.0402 -0.2682 -0.2799
 3099W        W18908  11.937   7.194  15.480  0.0386  0.1082  0.3322
 3100W        W18909   1.571   0.073  12.167 -0.1115  0.0231 -0.1961
 3101W        W18910   1.532   3.783  13.069  0.0497 -0.1551 -0.1748
 3102W        W18911   1.257  16.607   4.190  0.2898  0.0198 -0.1521
 3103W        W18912  12.395   7.510  15.416 -0.0340 -0.0809 -0.2332
 3104W        W18913   4.014   9.420  13.618 -0.1289 -0.0727  0.1806
 3105W        W18914   9.802   4.035   4.788 -0.1464  0.0949 -0.0815
 3106W        W18915  13.691   0.819  15.758 -0.0049  0.0552  0.4777
 3107W        W18916  16.760   7.037  11.789  0.4538 -0.1459 -0.1291
 3108W        W18917   1.622   3.862  13.793  0.1005  0.0605 -0.0025
 3109W        W18918  17.887   6.136  16.133  0.1513  0.1427  0.5417
 3110W        W18919  16.217  16.131  11.699 -0.0914 -0.2490 -0.2243
 3111W        W18920  17.911   4.264  15.886 -0.0472  0.1369  0.1610
 3112W        W18921   9.862  12.230  16.044 -0.0268  0.1598 -0.1760
 3113W        W18922   4.500  10.423   2.249 -0.3466  0.1447 -0.2301
 3114W        W18923   4.286   7.084   1.039  0.1252  0.2883  0.2814
 3115W        W18924  15.833   3.546   4.095  0.0560 -0.0891  0.2173
 3116W        W18925   6.686  15.401   2.889 -0.1153  0.1437 -0.0302
 3117W        W18926  13.686   5.962   0.911  0.3701  0.2202  0.2100
 3118W        W18927   7.167   4.169   2.875 -0.1810 -0.2732 -0.2425
 3119W        W18928   9.077  10.902  11.009 -0.3785  0.1026 -0.3118
 3120W        W18929   3.978   3.033  14.856 -0.0962 -0.0097  0.2272
 3121W        W18930  15.791  10.705  15.750 -0.1310 -0.0386  0.1494
 3122W        W18931  16.570   4.630   5.832 -0.0338  0.1081  0.1226
 3123W        W18932   0.209  17.989   2.778  0.0782 -0.1651  0.0709
 3124W        W18933  14.177   3.804  13.797 -0.1162 -0.0495  0.2451
 3125W        W18934  10.693  15.959   5.168 -0.1609  0.4738 -0.0550
 3126W        W18935  17.861   7.825  14.936 -0.2060 -0.0619 -0.2056
 3127W        W18936   9.231   5.448   0.986  0.0195  0.0199 -0.1743
 3128W        W18937   8.578  10.991   4.178 -0.0620  0.0171  0.1514
 3129W        W18938   9.544  16.798   3.746 -0.1387  0.0143 -0.1962
 3130W        W18939  13.965  10.413   2.448 -0.5394 -0.2531 -0.2633
 3131W        W18940  14.980   9.680   2.212 -0.0224  0.0150 -0.1684
 3132W        W18941   8.178  14.098  12.847 -0.0050  0.0738 -0.0398
 3133W        W18942   1.119  10.989  12.285  0.0723  0.0531 -0.0300
 3134W        W18943  15.325   1.235   4.641  0.1852  0.2444  0.0207
 3135W        W18944   0.696  10.601  14.333 -0.1297  0.0683  0.0159
 3136W        W18945   1.918   9.251   0.067 -0.0249 -0.3550  0.2334
 3137W        W18946   8.252  15.624  12.667 -0.1146  0.0818  0.1802
 3138W        W18947  16.620   5.500   1.384  0.0338  0.0065 -0.1587
 3139W        W18948   3.536   1.130   4.456 -0.0910  0.0284 -0.2542
 3140W        W18949   2.506   5.461  12.997  0.3336  0.3367  0.2820
 3141W        W18950  11.474   1.173  11.027 -0.1347  0.0375  0.2010
 3142W        W18951  11.425   7.248   3.326 -0.0070  0.0475  0.1213
 3143W        W18952   7.821  15.715  11.374  0.2402 -0.2061 -0.0551
 3144W        W18953   4.021  11.144   2.724  0.1961 -0.2120 -0.1874
 3145W        W18954   0.289   1.451   0.047  0.2310  0.2170  0.1074
 3146W        W18955   7.092   0.572  15.774  0.0409  0.0912  0.1306
 3147W        W18956   7.102  16.019   4.835 -0.2222  0.1301  0.1069
 3148W        W18957   5.870  11.828   0.175  0.0109  0.1897  0.1568
 3149W        W18958  12.599  17.485   2.874  0.0466 -0.2337 -0.1306
 3150W        W18959   5.550  13.615   1.144  0.2077  0.4765  0.0164
 3151W        W18960   4.215  13.399   1.635  0.1179 -0.0621 -0.2363
 3152W        W18961   3.055   4.274   4.137 -0.1539  0.4010 -0.0071
 3153W        W18962  17.837   6.858  13.196  0.1354  0.0505  0.1578
 3154W        W18963  11.948   8.616  10.739 -0.4214 -0.0009 -0.2294
 3155W        W18964   7.366  16.285   0.318  0.2345 -0.1682  0.2409
 3156W        W18965   1.436  15.717   2.715  0.0229  0.1414 -0.0695
 3157W        W18966  17.261   7.089   1.241  0.0024 -0.2155 -0.2479
 3158W        W18967   4.076   1.167  11.223 -0.0073  0.0729  0.1632
 3159W        W18968   6.309  15.341   2.549  0.0808 -0.0477  0.2460
 3160W        W18969   4.974   1.972  12.854 -0.1917 -0.0203  0.0163
 3161W        W18970   2.901   5.307  15.515 -0.0478  0.2689 -0.5793
 3162W        W18971  11.974   0.865   0.519 -0.1669  0.2530 -0.1728
 3163W        W18972   4.935  11.674   5.313 -0.3554  0.1440 -0.1076
 3164W        W18973   1.658   1.015   4.596  0.2892 -0.1931 -0.0914
 3165W        W18974  13.201  10.606  12.078  0.3649  0.0029  0.0486
 3166W        W18975   2.672   6.412   2.397  0.4607 -0.0710 -0.0971
 3167W        W18976   7.281   1.629   3.269 -0.0516  0.1693  0.0564
 3168W        W18977  11.334   1.387   0.505 -0.0063  0.0018 -0.0694
 3169W        W18978  16.309  15.981  13.826  0.0657  0.4075 -0.0275
 3170W        W18979  17.506   7.369   1.623  0.1351  0.0419 -0.2149
 3171W        W18980   2.149  11.484  12.117  0.0756 -0.3570  0.1457
 3172W        W18981  13.768   5.197   5.737 -0.0640  0.0909  0.0878
 3173W        W18982   1.322   6.703   4.167 -0.0656 -0.1586 -0.2657
 3174W        W18983  17.541   9.718  11.992 -0.2121 -0.1935  0.1509
 3175W        W18984   2.666   9.513   1.847  0.0251  0.0346 -0.1859
 3176W        W18985   6.865  14.238  15.646  0.0835  0.2658 -0.2599
 3177W        W18986  13.404  10.423  12.610  0.0841  0.0993  0.1888
 3178W        W18987  13.213  15.354  13.241  0.1652 -0.0314  0.3143
 3179W        W18988   9.758  13.903   2.125 -0.3617 -0.0899 -0.2370
 3180W        W18989  15.440  11.020  13.269  0.1026 -0.3516 -0.2927
 3181W        W18990  12.055  11.691   0.973 -0.1399  0.3715 -0.2468
 3182W        W18991  16.797   2.147  14.064  0.0592 -0.1575  0.1305
 3183W        W18992   8.760  14.047  15.561 -0.0695  0.1351 -0.1083
 3184W        W18993   7.054   9.058   3.154 -0.0698 -0.2252  0.1816
 3185W        W18994   3.151   5.064   2.125 -0.1744 -0.2542 -0.1181
 3186W        W18995   3.441  11.238  15.032  0.0516  0.1766  0.1221
 3187W        W18996   9.044   6.860  12.935  0.1180 -0.0121  0.2903
 3188W        W18997  10.678   1.536  15.537 -0.4048  0.2753 -0.0389
 3189W        W18998  11.260  17.712  13.621  0.1896 -0.0920  0.2305
 3190W        W18999   1.079   3.114  13.296  0.1559  0.4505 -0.2605
 3191W        W19000   6.872   7.182  14.772 -0.2849 -0.0649  0.0944
 3192W        W19001   4.961  16.029   2.609  0.0902  0.1089 -0.0740
 3193W        W19002  17.941   3.537   2.129 -0.1520  0.0495 -0.2243
 3194W        W19003   8.017  13.877  13.353 -0.0635  0.2350  0.0297
 3195W        W19004  14.117   7.423  16.314 -0.2119 -0.1179  0.0752
 3196W        W19005   4.490   3.218   2.898  0.0713  0.4876 -0.3407
 3197W        W19006  14.687  15.595   1.439 -0.0762  0.0825 -0.5568
 3198W        W19007  15.415   3.300  12.542 -0.1369 -0.0550 -0.0209
 3199W        W19008   1.731  15.447  12.579 -0.2843  0.0944 -0.4025
 3200W        W19009   7.444  15.076  11.719 -0.2454  0.2807  0.3124
 3201W        W19010  13.264  10.240   1.216  0.2291  0.2231  0.1232
 3202W        W19011  16.837  17.058  16.323 -0.5330 -0.1659  0.1699
 3203W        W19012   0.882   3.397  15.577 -0.1735  0.1668 -0.2504
 3204W        W19013  10.733   4.225   2.452 -0.0622 -0.2186 -0.1064
 3205W        W19014   5.017   1.119  12.782 -0.3274  0.1208 -0.2245
 3206W        W19015   8.064  17.959  13.209  0.1607  0.0644  0.1244
 3207W        W19016  17.146  14.039  12.178 -0.1811 -0.1981  0.1390
 3208W        W19017  10.010   3.385   4.036  0.1539  0.0076 -0.3673
 3209W        W19018   3.969   1.181  12.223  0.0233  0.3160 -0.0923
 3210W        W19019  14.880  12.549   5.896  0.1179 -0.0269 -0.0920
 3211W        W19020  10.812   2.008   0.114 -0.0524  0.1132 -0.1449
 3212W        W19021  10.615  13.430   2.334  0.3890  0.4119 -0.0421
 3213W        W19022   1.022   4.382  14.188 -0.0308 -0.0045 -0.1204
 3214W        W19023  13.495  16.975   3.201  0.0752 -0.3518 -0.1595
 3215W        W19024   1.173   4.806  11.557 -0.0224  0.0518  0.2488
 3216W        W19025   3.061  13.140  14.738 -0.1341 -0.1795 -0.3068
 3217W        W19026  16.926  17.985   2.308 -0.0441  0.4096 -0.1592
 3218W        W19027  12.329  11.537   2.770 -0.1126  0.0961  0.3986
 3219W        W19028   5.403   2.760   3.482 -0.0272  0.1357 -0.2852
 3220W        W19029   5.863  10.946  13.856 -0.1739 -0.0161 -0.1517
 3221W        W19030  13.419  11.574   3.128  0.0009 -0.1664 -0.0207
 3222W        W19031   1.368   5.038   4.501  0.0337  0.0415  0.0767
 3223W        W19032   5.278   9.964   0.619 -0.0674  0.2385 -0.0711
 3224W        W19033   7.351  16.891   4.673 -0.1322  0.2713 -0.1317
 3225W        W19034   3.960   1.476  12.695 -0.1440 -0.0913 -0.1392
 3226W        W19035   6.574   3.884   0.596  0.2503  0.1659 -0.3564
 3227W        W19036  16.767  15.248  15.038  0.0333 -0.1492 -0.0859
 3228W        W19037  10.172   7.848   4.572  0.1596 -0.2904 -0.0362
 3229W        W19038   6.981  17.592   2.095 -0.2722 -0.0438 -0.1300
 3230W        W19039  12.559  11.466   0.397 -0.1990 -0.0772 -0.0437
 3231W        W19040  13.880   4.799   2.887 -0.0035  0.1765  0.0682
 3232W        W19041   4.155  17.374   0.687  0.0904  0.1641 -0.3408
 3233W        W19042   3.930  10.444   3.608 -0.1957 -0.1179 -0.0784
 3234W        W19043   9.819   0.568  12.614  0.1465  0.2732  0.5367
 3235W        W19044   6.427   0.263  14.135  0.3816 -0.2073 -0.0293
 3236W        W19045  13.582  11.881  10.814 -0.0260  0.2749 -0.2160
 3237W        W19046  14.911  12.775   4.655  0.2270  0.0348  0.2794
 3238W        W19047   0.304   6.010   5.199  0.2233  0.1450 -0.0295
 3239W        W19048   2.607  17.809   3.397  0.2867 -0.1437  0.0604
 3240W        W19049  14.442   8.139  14.138 -0.1592 -0.1270 -0.0384
 3241W        W19050  11.961   1.214  15.992 -0.2068  0.1838 -0.1348
 3242W        W19051  14.906   0.192  11.650 -0.0882  0.2329  0.2311
 3243W        W19052  13.868  15.793   1.984 -0.2382 -0.1656  0.2278
 3244W        W19053   6.915  16.359  13.111 -0.2245  0.2510  0.2759
 3245W        W19054  16.369  13.392  11.932  0.0712 -0.0776  0.1285
 3246W        W19055   6.681  15.642   4.787 -0.0657  0.1156  0.0187
 3247W        W19056  10.382   9.446   1.156 -0.0223 -0.1991 -0.1166
 3248W        W19057   8.658   0.436  15.891  0.2546 -0.0095 -0.0275
 3249W        W19058  17.772   9.100   4.784  0.0141  0.0821  0.1028
 3250W        W19059  11.469  11.811  11.382  0.0447 -0.0031  0.1288
 3251W        W19060   2.883   7.632  13.697  0.0852 -0.0131  0.0660
 3252W        W19061   9.102   6.495  15.279  0.0459 -0.0431  0.2452
 3253W        W19062   0.228   8.881  14.173  0.1018  0.2158 -0.1107
 3254W        W19063  12.223  15.527   2.136  0.0173 -0.0782  0.1101
 3255W        W19064  11.194   6.593   0.068  0.2143 -0.1997 -0.2275
 3256W        W19065   4.541  10.718   5.646  0.1088 -0.2397  0.1063
 3257W        W19066   3.223   8.414   2.565  0.0468 -0.4485  0.3508
 3258W        W19067   5.690  12.580   5.504 -0.1232 -0.5833  0.1270
 3259W        W19068  13.219  11.905   4.047  0.1151 -0.2924 -0.0946
 3260W        W19069  17.136  14.439   2.457 -0.0336 -0.0683  0.1271
 3261W        W19070  12.045  17.290  13.699 -0.1631 -0.1873  0.2194
 3262W        W19071  10.194   0.937   5.263  0.1565 -0.0597 -0.0331
 3263W        W19072   5.231   3.000  14.899 -0.0172  0.1515  0.0222
 3264W        W19073   9.589  13.815  13.381 -0.1240  0.2407 -0.0060
 3265W        W19074   0.467   0.900   3.312  0.1279 -0.0169 -0.0474
 3266W        W19075   3.582   9.089  11.412  0.1775  0.0006  0.3739
 3267W        W19076   8.254   0.429   5.589 -0.0500  0.1847 -0.0796
 3268W        W19077   5.156   0.560   3.916 -0.2057 -0.1134  0.0547
 3269W        W19078  11.019   4.630  15.205 -0.0387  0.1297  0.1641
 3270W        W19079   5.466   8.543  14.001 -0.1887 -0.0964 -0.0241
 3271W        W19080  11.994  15.771   3.223  0.1798 -0.2137  0.0399
 3272W        W19081   3.181   0.694  16.003 -0.2215  0.1576 -0.3571
 3273W        W19082   0.277  13.304   2.832  0.0270  0.2191 -0.0624
 3274W        W19083   5.027   4.196  15.842  0.3145  0.0504  0.0240
 3275W        W19084  16.642  15.724  14.777 -0.4261  0.1557 -0.1782
 3276W        W19085  17.251  14.642   5.451 -0.0367 -0.2438 -0.1157
 3277W        W19086   7.182  11.192   4.286  0.5530 -0.4794 -0.3544
 3278W        W19087   4.102   1.910  15.273  0.0813  0.2305  0.1341
 3279W        W19088   9.994  11.459  13.199 -0.3147  0.0170  0.5316
 3280W        W19089   2.637   4.716  13.726  0.1359  0.0494 -0.4614
 3281W        W19090   5.448   6.616  11.207  0.2489  0.2038  0.1035
 3282W        W19091  13.697  13.206   1.816  0.1023  0.1094 -0.0946
 3283W        W19092   5.491  14.570   0.022  0.0305 -0.0533  0.0682
 3284W        W19093   9.651  17.746  11.646  0.4383  0.2454  0.2926
 3285W        W19094  15.378  14.946  12.244  0.1691  0.0604  0.0856
 3286W        W19095   1.017   2.270  11.685  0.1025 -0.0482 -0.1342
 3287W        W19096  10.087   1.228   4.001  0.1032  0.0119  0.1804
 3288W        W19097  17.066  12.662   3.610 -0.1176 -0.1770 -0.3201
 3289W        W19098  17.196  13.764  15.216  0.1091 -0.3325 -0.2067
 3290W        W19099   2.178  15.800   5.802 -0.0498 -0.0363 -0.0128
 3291W        W19100  10.331  13.483  12.778 -0.0832 -0.3385  0.0290
 3292W        W19101   0.183  12.331  11.542 -0.0143  0.0912  0.0149
 3293W        W19102   0.911  15.362  12.082  0.3095 -0.0129  0.1028
 3294W        W19103  14.247  12.057   5.504  0.1707  0.2226 -0.0611
 3295W        W19104  11.165  15.989  14.035 -0.3217 -0.0912 -0.1371
 3296W        W19105  17.854  13.739   1.235 -0.0906 -0.1120 -0.0045
 3297W        W19106   0.417   0.704   0.326 -0.1786  0.1751 -0.0983
 3298W        W19107   0.498  18.187   4.840 -0.2790 -0.2050 -0.0059
 3299W        W19108  11.935   9.667   4.613  0.2347  0.0565 -0.1892
 3300W        W19109   4.271  11.235  11.832  0.0900 -0.2314  0.1738
 3301W        W19110  11.750   5.724   3.023  0.2615  0.0436 -0.3821
 3302W        W19111  14.126   6.010   5.560 -0.0606 -0.0239  0.0288
 3303W        W19112  14.583   8.773  14.989  0.1334  0.1403 -0.3609
 3304W        W19113  15.697   3.590   3.579 -0.1677  0.0498  0.2541
 3305W        W19114  18.025  10.180  14.266  0.2416  0.4385  0.1953
 3306W        W19115   7.318  14.729   5.515 -0.0592 -0.1242  0.2757
 3307W        W19116  16.255   7.688   4.772  0.0010 -0.2118  0.1430
 3308W        W19117   8.692   4.841   0.764  0.3096  0.0931 -0.0963
 3309W        W19118   2.252   8.142   2.435 -0.0954 -0.1035  0.2417
 3310W        W19119  13.154   9.554  12.869  0.1124 -0.1766  0.1434
 3311W        W19120  13.889   6.732  12.263 -0.0309  0.1849  0.0879
 3312W        W19121  14.427  17.029  12.654  0.0365  0.0840  0.2211
 3313W        W19122  13.109  10.029  16.070  0.1443  0.0531  0.1568
 3314W        W19123   8.692   8.008  11.125 -0.0858 -0.0983  0.1425
 3315W        W19124  17.545  12.485  13.488  0.1891  0.0390  0.0720
 3316W        W19125  10.784  12.055   4.456  0.2109  0.2369  0.0014
 3317W        W19126   3.147  10.159   2.784 -0.0774  0.0777 -0.0603
 3318W        W19127   5.258   1.606  13.082  0.0135  0.3072  0.1739
 3319W        W19128   3.721  12.174   1.694  0.0405  0.0564  0.2420
 3320W        W19129  10.131   2.862  12.524  0.0480 -0.0747 -0.0298
 3321W        W19130   5.003   3.686   0.787  0.0637 -0.0099  0.0021
 3322W        W19131   9.898  12.624  14.053 -0.0965  0.3384 -0.2071
 3323W        W19132  11.026   8.546   1.934 -0.1249  0.3311 -0.2404
 3324W        W19133  17.569  15.609   5.276  0.0502 -0.1628  0.0915
 3325W        W19134   8.926   5.291   0.635  0.0203 -0.0394  0.0691
 3326W        W19135   2.294   5.154   5.703 -0.3390 -0.1345  0.0272
 3327W        W19136   8.308   6.156  14.548  0.0793  0.1137 -0.0795
 3328W        W19137   3.438   2.068  11.325 -0.1332  0.0413 -0.0204
 3329W        W19138  13.844   5.268  11.164  0.1175  0.0299 -0.2108
 3330W        W19139  13.869   4.942   0.083  0.2052 -0.0051 -0.1997
 3331W        W19140   2.768  11.860   4.562  0.0015 -0.0492 -0.0560
 3332W        W19141  10.788   2.689  14.630  0.1095  0.0911  0.0794
 3333W        W19142  13.804   4.151  12.911 -0.0417 -0.0646  0.1420
 3334W        W19143   2.187   1.302  15.462  0.1029 -0.2760  0.1093
 3335W        W19144   7.615  14.963  13.473 -0.1464  0.0922  0.0592
 3336W        W19145   5.172   5.863   2.191 -0.2180 -0.2685 -0.2430
 3337W        W19146   3.782  10.732  14.190 -0.0701 -0.2040 -0.1084
 3338W        W19147  12.134  15.193  14.501 -0.1048 -0.0949  0.0487
 3339W        W19148   8.337  13.610  14.962 -0.2019  0.1080  0.0267
 3340W        W19149  10.742  10.621  11.450  0.1928 -0.0670 -0.0608
 3341W        W19150  11.824  13.893  13.038 -0.0166  0.0072  0.0476
 3342W        W19151   4.230   5.636  15.081 -0.2834  0.1571 -0.0534
 3343W        W19152  11.213   2.651  13.806 -0.3172  0.0247 -0.1149
 3344W        W19153  17.719   7.729   3.335  0.1446 -0.1950  0.0386
 3345W        W19154  14.433  11.092   0.261 -0.1224 -0.0265 -0.0868
 3346W        W19155   0.189   0.992  16.338  0.0327 -0.1404 -0.0110
 3347W        W19156  12.640   0.308   0.902 -0.1205  0.2221  0.0458
 3348W        W19157   3.257   4.875   1.118  0.0351  0.1849 -0.1155
 3349W        W19158  10.324  15.426   1.278 -0.1050 -0.5474  0.0645
 3350W        W19159   3.755   2.908  16.028 -0.1543 -0.1908 -0.3418
 3351W        W19160  11.681  12.175   4.671 -0.2710  0.0339 -0.3327
 3352W        W19161  13.729   9.163  10.781 -0.1963  0.0912 -0.3277
 3353W        W19162   7.304   3.955  11.399 -0.2935  0.0712 -0.1323
 3354W        W19163  14.191  14.591  12.884  0.5144  0.0690  0.2327
 3355W        W19164   3.265  13.590  15.507 -0.1605 -0.1584 -0.2382
 3356W        W19165  13.940   4.910  12.347  0.1258 -0.1260  0.0558
 3357W        W19166   4.832   4.579  15.402  0.0200  0.1887  0.2637
 3358W        W19167  16.312   0.430   1.455  0.0874 -0.0862 -0.0472
 3359W        W19168  12.789   1.613  15.597  0.1587 -0.1807 -0.0746
 3360W        W19169   0.849   1.290  15.550  0.0093 -0.1767 -0.2656
 3361W        W19170  14.982  17.531  11.464  0.0079  0.0362 -0.1720
 3362W        W19171  16.651  16.439   5.815  0.1590 -0.1943 -0.0345
 3363W        W19172   9.578  10.434   1.401  0.0490 -0.0021 -0.1659
 3364W        W19173   0.090   9.767   0.975 -0.4428  0.0807  0.3440
 3365W        W19174   9.421  11.352   3.234 -0.1072  0.0157  0.0427
 3366W        W19175   3.558  15.594   4.435 -0.1323  0.2054  0.1171
 3367W        W19176   7.897   2.296   3.753  0.1048  0.1560  0.1658
 3368W        W19177   6.803   0.885   0.678  0.2128  0.3284  0.0674
 3369W        W19178   3.347   3.885   3.361  0.2615 -0.1158  0.1309
 3370W        W19179   0.512   4.910  14.257  0.0953  0.1628 -0.3911
 3371W        W19180   5.074   1.975  15.152 -0.0687  0.1388  0.1225
 3372W        W19181   5.135   6.690   0.073 -0.0979 -0.3504 -0.0413
 3373W        W19182  14.688   1.467   3.313 -0.1141 -0.0414 -0.0766
 3374W        W19183  11.606   6.511   1.913  0.0544 -0.0454 -0.0743
 3375W        W19184  17.357   7.569  14.689 -0.0672 -0.0501  0.0379
 3376W        W19185  12.371   7.088   1.739 -0.1534  0.1912  0.1093
 3377W        W19186  13.607   1.216   4.870 -0.0581  0.0508 -0.0957
 3378W        W19187   6.445  14.067  15.472 -0.1447  0.1058 -0.0751
 3379W        W19188   3.680  15.752   4.913 -0.0354  0.0468  0.3902
 3380W        W19189   5.726  16.628   4.803 -0.0723  0.0297  0.2968
 3381W        W19190   4.929  10.461  13.868 -0.2944 -0.1813  0.1703
 3382W        W19191  15.051  13.868  12.019  0.1079 -0.0505 -0.0611
 3383W        W19192   3.810   4.528   2.367 -0.0912 -0.0269 -0.0432
 3384W        W19193   1.030  16.912   3.179 -0.6348 -0.0169  0.1543
 3385W        W19194   7.393  12.305  12.760 -0.1985 -0.3292 -0.1773
 3386W        W19195   0.501  13.934  13.918  0.1035  0.0122 -0.2975
 3387W        W19196   5.717  13.172   0.997 -0.2190 -0.3134 -0.0283
 3388W        W19197  16.967   3.742   0.948 -0.1403 -0.2489 -0.0522
 3389W        W19198  18.171   7.460   3.775  0.0911  0.2554  0.4260
 3390W        W19199  12.887   5.473   5.319 -0.0483  0.0985  0.0475
 3391W        W19200   5.582  10.371   4.679 -0.1088  0.1062  0.2039
 3392W        W19201   0.714  14.204  11.446 -0.2365 -0.1506  0.1083
 3393W        W19202   8.014  14.368   3.007  0.0228  0.1167 -0.1265
 3394W        W19203   1.416   4.414   4.602 -0.1789 -0.1378  0.3121
 3395W        W19204   0.625   8.360   1.045  0.1948 -0.5156  0.0265
 3396W        W19205  16.387  16.262  12.303  0.1439 -0.0182 -0.0370
 3397W        W19206  13.307   6.510  13.826 -0.0355  0.2621  0.1354
 3398W        W19207   0.545   6.193   0.038 -0.3244  0.0426  0.1111
 3399W        W19208   0.536   7.961   5.183 -0.0846  0.0371 -0.2901
 3400W        W19209  15.822   0.501   2.288  0.2736  0.0185  0.1292
 3401W        W19210  17.579  17.463   2.619  0.0322 -0.0200  0.1979
 3402W        W19211  17.437   1.515   4.109  0.0335  0.0965 -0.0394
 3403W        W19212  14.994   9.376  15.429 -0.1119  0.1839 -0.0579
 3404W        W19213   3.612   4.116   1.234  0.2257 -0.1255 -0.1113
 3405W        W19214   1.841   2.420   1.531  0.2731 -0.0540  0.0655
 3406W        W19215  14.863   9.291  11.392 -0.0702 -0.0403  0.1329
 3407W        W19216  10.710   2.961  11.781  0.4227 -0.2439 -0.1387
 3408W        W19217  15.076   9.598  12.852  0.0179  0.2176  0.0049
 3409W        W19218  17.228  14.648   4.039  0.0964  0.1990  0.1494
 3410W        W19219  16.321   9.929   0.736 -0.1045  0.0827  0.2758
 3411W        W19220   0.453  11.000   6.299 -0.1990 -0.1263 -0.3200
 3412W        W19221  11.817  10.321   2.859  0.0832 -0.1077 -0.1098
 3413W        W19222   3.196   5.456  12.117 -0.0603  0.2571  0.1180
 3414W        W19223   1.091  14.352  11.725 -0.0216 -0.1905 -0.0113
 3415W        W19224  12.961   5.830   3.892 -0.3147  0.1104  0.0129
 3416W        W19225   0.201  14.978   4.569 -0.2680  0.2912 -0.3967
 3417W        W19226   5.379   6.190  16.254 -0.2562  0.4181 -0.1816
 3418W        W19227   8.918  12.010   3.217  0.2777 -0.0509  0.0561
 3419W        W19228   7.115  18.144  12.476 -0.1182 -0.1017  0.0491
 3420W        W19229  11.289  17.434   2.861  0.2031 -0.1451 -0.1077
 3421W        W19230   3.691   2.574   2.651  0.2895 -0.2534  0.1905
 3422W        W19231  16.603  10.000   3.324 -0.1004  0.0509 -0.0385
 3423W        W19232   9.512   4.441   3.805  0.1851 -0.4396  0.0575
 3424W        W19233   0.223   7.966   5.966  0.2500  0.1399  0.2013
 3425W        W19234   4.214  16.201  11.435 -0.0666  0.2121  0.0501
 3426W        W19235   0.292  15.790   4.052  0.2531 -0.0540 -0.0123
 3427W        W19236  17.532  14.536  13.435 -0.2270  0.1658 -0.2103
 3428W        W19237   2.189   5.156   6.222 -0.2220  0.1537  0.1226
 3429W        W19238   2.592  11.570  13.070  0.2038 -0.0304 -0.2580
 3430W        W19239   2.326  15.885   4.153  0.0135 -0.0793 -0.1001
 3431W        W19240   3.810  17.638   2.366  0.3131 -0.1107 -0.1714
 3432W        W19241  14.302   2.687  12.858  0.0327 -0.2623  0.1683
 3433W        W19242  10.209   2.004   1.450 -0.2271  0.2286  0.0253
 3434W        W19243   9.340  16.227  14.988 -0.0452  0.1210  0.1192
 3435W        W19244   4.381  12.503   1.099  0.3090  0.3251 -0.0920
 3436W        W19245   2.812   6.705  15.680  0.0599 -0.1516  0.2479
 3437W        W19246  15.505  15.960   2.922  0.1787  0.0570  0.0794
 3438W        W19247   9.012  13.963   3.454 -0.0683 -0.0441  0.1710
 3439W        W19248   9.085  15.664   1.934 -0.0544 -0.1574  0.2425
 3440W        W19249  13.858   1.991  14.617  0.0480  0.5007  0.1207
 3441W        W19250  12.733  11.423  13.062  0.0950  0.0054 -0.1670
 3442W        W19251  15.261  14.572   3.284  0.1356  0.2874  0.4509
 3443W        W19252   1.001   8.288   0.115 -0.0616 -0.0393 -0.3566
 3444W        W19253  13.245  13.214   3.317  0.0587  0.0052  0.0295
 3445W        W19254   6.149   0.410  16.165  0.3326 -0.2321  0.0561
 3446W        W19255  12.331  17.602  16.106  0.2068 -0.1828 -0.0356
 3447W        W19256  17.139  17.018   0.405 -0.2154 -0.0504  0.1364
 3448W        W19257   9.154  16.636   5.427  0.2726 -0.2341 -0.1782
 3449W        W19258  14.200   7.503  10.609 -0.0304  0.0554  0.0450
 3450W        W19259   4.049   9.964   4.330 -0.2856  0.1398  0.0458
 3451W        W19260   5.956  11.874   2.516  0.2718 -0.1818  0.1311
 3452W        W19261   5.217   9.155   0.794  0.2133 -0.0262  0.2007
 3453W        W19262  14.154  13.275   1.235 -0.1998 -0.0917 -0.2445
 3454W        W19263   5.579  16.737   5.710 -0.2953 -0.1301  0.0936
 3455W        W19264  15.776  17.539  13.576 -0.0687  0.0156  0.0303
 3456W        W19265   1.008   3.602  16.094 -0.2702 -0.1368  0.0837
 3457W        W19266  12.305   6.709  11.789 -0.2517 -0.0598  0.1953
 3458W        W19267   4.331  12.842   4.162  0.0049 -0.0813 -0.1958
 3459W        W19268   8.956  16.057  12.482  0.0268 -0.0232 -0.0340
 3460W        W19269   8.087   9.323   1.078  0.1312 -0.2893 -0.0839
 3461W        W19270   9.815   8.348   5.227  0.2717 -0.1014  0.1959
 3462W        W19271   0.801   6.812   5.327 -0.1024  0.1101  0.1886
 3463W        W19272   9.364   6.494   3.849  0.2226 -0.2877  0.1459
 3464W        W19273   4.802   4.302  14.951  0.2063  0.0053  0.3396
 3465W        W19274  16.909   4.481   1.577 -0.3640  0.0811  0.2110
 3466W        W19275   3.973  11.822   1.382  0.1351  0.2290 -0.0129
 3467W        W19276  17.830   6.675   4.776  0.0654 -0.3597  0.0838
 3468W        W19277  14.898   8.962  16.172  0.0004  0.0091 -0.0319
 3469W        W19278  17.393   5.114   1.780 -0.0133 -0.0177 -0.0824
 3470W        W19279   5.584   1.359  14.684 -0.0152  0.0103 -0.0676
 3471W        W19280  10.479  11.275   2.278  0.0806 -0.0129  0.2117
 3472W        W19281   4.354  13.748   4.420 -0.0820  0.0774 -0.0281
 3473W        W19282  13.103  15.622  11.713 -0.2130  0.0712 -0.1031
 3474W        W19283   0.041  17.362   1.588  0.0792 -0.0336  0.1393
 3475W        W19284   1.170   8.268  15.084  0.3649  0.0579 -0.2064
 3476W        W19285  14.162  14.922   4.846 -0.1294  0.0626  0.2437
 3477W        W19286   4.022  10.080   0.222  0.1673 -0.1795 -0.1572
 3478W        W19287   4.465   0.409   5.348  0.1214 -0.2474  0.0853
 3479W        W19288   0.612  15.819  12.721  0.1338  0.3409  0.0920
 3480W        W19289  13.906   2.925  14.620 -0.0211 -0.0648  0.0458
 3481W        W19290  11.912   9.673  13.261  0.2190  0.0394 -0.1267
 3482W        W19291   2.697  15.413  15.177  0.1740 -0.1881  0.2336
 3483W        W19292   5.996   8.368  12.633  0.1862  0.2026 -0.1090
 3484W        W19293  15.748   4.104   3.659  0.1114 -0.1187 -0.2996
 3485W        W19294  12.936   0.618   4.107 -0.0015 -0.1136  0.1757
 3486W        W19295   3.642   8.576  11.419 -0.0621  0.0841  0.2422
 3487W        W19296  11.093   5.408  15.030  0.0465 -0.0298 -0.1807
 3488W        W19297   8.622  11.013   0.271  0.0032  0.5270 -0.0855
 3489W        W19298   5.747  12.505  14.212  0.0605  0.0121 -0.1278
 3490W        W19299   6.371  12.161   0.988  0.0131 -0.1161  0.0000
 3491W        W19300  14.794   9.374   0.036  0.0255 -0.4334  0.0895
 3492W        W19301   4.722   5.485   4.991  0.3189 -0.2611 -0.1653
 3493W        W19302   9.038   9.746   2.892 -0.0092  0.4399  0.0675
 3494W        W19303   6.221  14.488  15.161  0.3127 -0.0112 -0.0238
 3495W        W19304  14.758  12.649   2.441  0.0735 -0.3905  0.1074
 3496W        W19305  17.650   7.572   0.992  0.2205  0.0349  0.2617
 3497W        W19306  17.957  18.192   2.745 -0.1540  0.2400 -0.0988
 3498W        W19307  15.609   8.914  14.646  0.0631  0.1687 -0.3280
 3499W        W19308   9.966   9.238  13.565  0.0128  0.1756 -0.1117
 3500W        W19309   7.786   3.903  13.806 -0.1861  0.0492  0.1537
 3501W        W19310   2.834  12.055   1.645 -0.2661  0.1460 -0.0589
 3502W        W19311  16.736   3.342   6.200 -0.1619 -0.1222  0.0685
 3503W        W19312  14.734   7.932  15.347  0.1712  0.0602 -0.0385
 3504W        W19313   9.139  14.094   1.678 -0.0139 -0.1139  0.3026
 3505W        W19314   3.670   2.698   0.617  0.1978  0.0787 -0.0149
 3506W        W19315   0.249   0.231  15.931  0.1412  0.4388  0.1327
 3507W        W19316  12.090  11.866   4.573  0.3222  0.1456 -0.0083
 3508W        W19317   8.202  13.882  15.892  0.1810  0.0979 -0.2080
 3509W        W19318   7.378   6.625   0.381 -0.5811  0.0539 -0.2766
 3510W        W19319  11.348  12.940   3.595 -0.0154  0.1329  0.2866
 3511W        W19320   4.111  13.682   1.013  0.0767 -0.0720  0.3542
 3512W        W19321   4.623  16.159   1.906 -0.3480 -0.2388 -0.1132
 3513W        W19322  13.529  17.007   0.570  0.0002  0.0799  0.3964
 3514W        W19323   6.450   8.610  15.192  0.2873 -0.2064  0.3406
 3515W        W19324  13.387   4.920   1.977  0.1210 -0.1420  0.0744
 3516W        W19325   5.121  10.933   3.778 -0.0204  0.2856 -0.1705
 3517W        W19326   1.602   3.484   3.553 -0.2020  0.2870  0.1209
 3518W        W19327   9.397  14.959   4.182 -0.1715 -0.2799 -0.0521
 3519W        W19328  18.210  17.425  15.987  0.0436  0.3700  0.1198
 3520W        W19329   4.082  11.407  15.872  0.0105 -0.1958 -0.0931
 3521W        W19330  10.697   1.387  13.017  0.1592 -0.0725 -0.1645
 3522W        W19331   4.796  14.311   2.100  0.0542  0.0513  0.0329
 3523W        W19332  17.055   2.320   4.638 -0.1481  0.2543 -0.2043
 3524W        W19333   1.790  14.074   3.849 -0.2658  0.1746 -0.1437
 3525W        W19334  15.299   2.834   1.318 -0.0619 -0.2131  0.0209
 3526W        W19335   9.040  17.683  14.904 -0.1715  0.2313 -0.1786
 3527W        W19336   5.260  10.977   0.021 -0.0248 -0.0030 -0.0592
 3528W        W19337   8.652  11.507  14.860  0.0492  0.1113 -0.0539
 3529W        W19338   2.399   6.108  15.325  0.0885 -0.1156  0.2196
 3530W        W19339   5.158   4.277   2.021 -0.2635 -0.2208 -0.0461
 3531W        W19340   7.412   9.082   3.873  0.2387  0.0699  0.0446
 3532W        W19341  17.415   3.150   2.778 -0.0641 -0.0297 -0.1008
 3533W        W19342   3.303  14.534   0.616  0.0963 -0.0542  0.2049
 3534W        W19343   8.867  18.214  15.777 -0.0193  0.3652  0.3890
 3535W        W19344  17.750  15.079   1.263  0.2715  0.0196  0.0603
 3536W        W19345  10.776   8.133   0.313 -0.0111 -0.2215 -0.1349
 3537W        W19346  15.029  14.629   4.684  0.3819 -0.3946  0.3259
 3538W        W19347   2.048  15.083  12.952  0.1459 -0.0040 -0.0161
 3539W        W19348   2.390  16.426   4.234 -0.2414  0.0165  0.1795
 3540W        W19349  16.816  12.182   5.755  0.1555  0.0146  0.1366
 3541W        W19350   7.590  14.995   1.970  0.0287  0.0342  0.2368
 3542W        W19351   5.846   4.971  12.554  0.1015  0.0540 -0.2060
 3543W        W19352   8.307  15.572   3.615  0.1688 -0.0370  0.1665
 3544W        W19353   8.676   1.241   1.008 -0.0089  0.0175 -0.0156
 3545W        W19354  11.521   0.464  15.913 -0.1860 -0.0012  0.2420
 3546W        W19355  16.955  13.499  11.478  0.0881  0.1029 -0.1484
 3547W        W19356  16.260  12.509   1.119  0.0134  0.3345  0.0264
 3548W        W19357   3.161   5.848   3.280 -0.0192 -0.1016  0.0709
 3549W        W19358  10.450   0.353   1.543  0.4121 -0.2873  0.0835
 3550W        W19359   2.209  12.725  15.082 -0.1233  0.2036  0.4412
 3551W        W19360   0.472   6.766   1.666 -0.2164 -0.2487  0.0643
 3552W        W19361   3.542  14.330  16.083 -0.1253 -0.5583 -0.0665
 3553W        W19362   3.290   5.485  16.202  0.1355 -0.2116  0.2560
 3554W        W19363  11.510   8.497  15.463  0.0290 -0.1636 -0.2469
 3555W        W19364   7.582   3.671   2.124 -0.0125  0.0769  0.0714
 3556W        W19365  14.403  15.481  11.042 -0.0004  0.3591  0.1071
 3557W        W19366   8.465  12.648   5.036 -0.2738  0.3901 -0.0562
 3558W        W19367   9.207  12.315   2.173 -0.1723 -0.3303  0.3434
 3559W        W19368   3.415  17.839  10.845 -0.1076  0.1134 -0.1606
 3560W        W19369  12.243  13.721   4.685  0.1173 -0.3492  0.3259
 3561W        W19370  12.627  16.192   2.112 -0.4415 -0.3086 -0.1312
 3562W        W19371   6.632  10.350   4.308 -0.0448  0.0722 -0.1314
 3563W        W19372  13.444  10.832  16.266 -0.1113 -0.1947  0.2397
 3564W        W19373   1.969   2.920   1.408  0.3315 -0.5241 -0.1909
 3565W        W19374   3.208   7.084  14.437 -0.0964  0.0942 -0.2477
 3566W        W19375  12.474   7.045   4.810  0.2609 -0.0474  0.0504
 3567W        W19376  12.299  10.874   5.342  0.3665  0.3654  0.0668
 3568W        W19377  14.434   9.396  13.852  0.1753  0.1745 -0.1662
 3569W        W19378   3.098   8.572  12.581 -0.2755  0.0605 -0.1647
 3570W        W19379   7.578   4.666   5.080  0.2957  0.0417 -0.1436
 3571W        W19380  16.486   8.178  15.945 -0.1896  0.0575  0.1122
 3572W        W19381  13.842   5.989   0.430 -0.2386 -0.0145  0.1296
 3573W        W19382   2.663  15.294  14.300 -0.3463 -0.1566 -0.2866
 3574W        W19383   8.181  17.190   5.163  0.2940  0.1557 -0.2555
 3575W        W19384   6.932  16.543   0.547  0.2909  0.0168 -0.0896
 3576W        W19385   5.447   5.729  14.295  0.2914 -0.0898 -0.0732
 3577W        W19386   9.265   3.872  15.620 -0.0121 -0.1614  0.0182
 3578W        W19387   0.680  11.148  12.543 -0.2283 -0.0710 -0.0273
 3579W        W19388  16.373   8.208  13.789  0.0816  0.0785 -0.1532
 3580W        W19389   1.077  12.152   2.325 -0.0164  0.1343  0.2704
 3581W        W19390  12.561  10.606   4.098  0.0854 -0.1752 -0.2408
 3582W        W19391  13.623  14.581   5.635 -0.2000 -0.4126  0.0141
 3583W        W19392   0.314   1.119   4.830 -0.2597 -0.3399 -0.0073
 3584W        W19393   9.731  14.381  14.234  0.1538 -0.2384  0.0074
 3585W        W19394  10.608  15.933   1.975 -0.3094 -0.0428  0.1523
 3586W        W19395   4.722  11.392  10.177  0.0899  0.0221  0.0802
 3587W        W19396  17.931  11.555  11.646 -0.1734 -0.1054 -0.1389
 3588W        W19397   0.007   4.935  13.966  0.3504 -0.0493 -0.4223
 3589W        W19398   8.557   9.932   4.311  0.0953 -0.2322 -0.1754
 3590W        W19399  13.496   2.714  16.123 -0.0339  0.0868 -0.1259
 3591W        W19400  12.703   3.849   3.643 -0.0425 -0.1002 -0.1932
 3592W        W19401   1.577  14.272   2.289  0.1151  0.1121  0.3673
 3593W        W19402   8.122  10.125  13.128  0.1159 -0.0542 -0.2155
 3594W        W19403   3.566  17.223  12.775 -0.1733  0.1690 -0.2831
 3595W        W19404  17.295  16.267   4.438 -0.3504  0.2734  0.1370
 3596W        W19405  17.811  12.247   2.101  0.0697  0.1390 -0.1693
 3597W        W19406   3.670   9.286   3.771 -0.2657 -0.1598 -0.1206
 3598W        W19407   0.280   7.603  14.870 -0.0126 -0.1756  0.0374
 3599W        W19408   4.241   8.418  14.553  0.2115 -0.3404 -0.1989
 3600W        W19409  11.927   9.022   4.461  0.1830 -0.0487  0.0160
 3601W        W19410   5.786   5.221   3.360 -0.0653 -0.0711 -0.2281
 3602W        W19411   5.401   3.410   0.663  0.0553  0.0842  0.0539
 3603W        W19412   5.001  13.345  13.032  0.1851 -0.1560 -0.2145
 3604W        W19413  10.270  14.766  11.673 -0.2177  0.0937  0.1945
 3605W        W19414   1.327  10.673   1.654 -0.0640 -0.0813  0.0399
 3606W        W19415   0.157  12.979  16.102 -0.1531  0.0149 -0.0012
 3607W        W19416   4.275   9.207   0.043  0.3808  0.2538  0.1135
 3608W        W19417  13.635   5.005  15.558 -0.0065 -0.2156  0.3990
 3609W        W19418   3.231   5.907   3.773  0.1421  0.0916 -0.3274
 3610W        W19419  10.100   0.361   1.203 -0.3295 -0.2537  0.2895
 3611W        W19420  13.802  10.347  15.603 -0.2082 -0.0285 -0.1857
 3612W        W19421  13.896  15.156  11.228  0.2162 -0.2227 -0.1616
 3613W        W19422  11.753   0.639  12.183 -0.0250 -0.1449  0.0385
 3614W        W19423  14.819  11.661  11.056  0.0058  0.0330 -0.2950
 3615W        W19424  13.728   0.692  14.146 -0.4080 -0.0024  0.1604
 3616W        W19425  18.037   5.006  15.262 -0.2700  0.1955 -0.0080
 3617W        W19426  16.652   7.499   3.522  0.0433  0.2574 -0.1732
 3618W        W19427  11.956  14.514  16.094 -0.1538  0.1199  0.2497
 3619W        W19428  14.832  10.239  15.033 -0.1037  0.0614  0.1642
 3620W        W19429   1.849  14.394   5.693 -0.0325 -0.0681  0.0415
 3621W        W19430  12.298  14.593  13.233 -0.1439 -0.0992  0.1861
 3622W        W19431  15.200   1.068  14.492 -0.0207 -0.2061 -0.4052
 3623W        W19432  17.181   4.002  10.775 -0.3648  0.1205  0.3307
 3624W        W19433  13.323   3.255   3.966 -0.0336  0.0582  0.0547
 3625W        W19434  18.166   9.133  12.986 -0.2340  0.2771  0.0493
 3626W        W19435   1.806   2.001   2.515 -0.2422 -0.2800  0.1777
 3627W        W19436  13.860   1.555   1.181  0.4734  0.0536 -0.2283
 3628W        W19437  10.012   1.026   1.718 -0.0017  0.0625  0.0794
 3629W        W19438   2.756   4.628   4.428  0.0226  0.1553  0.0178
 3630W        W19439  14.117  11.819   2.434 -0.2339 -0.3368 -0.1239
 3631W        W19440   3.147   5.767  14.875 -0.0397 -0.3395 -0.0457
 3632W        W19441  18.146   4.460  14.034 -0.1146  0.2214  0.0516
 3633W        W19442   0.454   6.592  16.021 -0.0957 -0.0738 -0.0861
 3634W        W19443  11.910   9.432  13.714 -0.0781 -0.1604  0.1555
 3635W        W19444  14.901   9.472   2.716 -0.1180 -0.1256  0.1535
 3636W        W19445   2.976   2.626  15.140 -0.0182  0.0051  0.1295
 3637W        W19446  16.862  10.968  15.134 -0.1372  0.0745 -0.0406
 3638W        W19447  10.250  10.752  12.382  0.2605  0.1465  0.0490
 3639W        W19448   9.386   6.588   2.092  0.2761  0.1817  0.0389
 3640W        W19449   3.769  15.274   2.837  0.1602 -0.2320  0.1498
 3641W        W19450   3.106  13.565  15.021  0.1815  0.0182  0.4496
 3642W        W19451   6.340  13.526  11.090  0.0269  0.1340 -0.2723
 3643W        W19452   4.870   7.266   0.848  0.0500 -0.1435 -0.2393
 3644W        W19453  15.720   9.411   3.424  0.0399 -0.2377  0.1416
 3645W        W19454   7.899   4.325   0.351  0.1584 -0.0133  0.3274
 3646W        W19455  16.167   1.156   0.604 -0.3025  0.0290  0.0770
 3647W        W19456  17.435  10.184   2.111 -0.0088  0.1759  0.1247
 3648W        W19457  14.036   9.953   0.758 -0.4448 -0.0280  0.0314
 3649W        W19458   5.537  15.936  15.257  0.1412  0.0647 -0.0856
 3650W        W19459  14.125  14.847   3.165 -0.1130 -0.2037 -0.0146
 3651W        W19460   5.081  11.014  10.190  0.0254 -0.0343 -0.2129
 3652W        W19461  16.333  10.967  15.034 -0.0714 -0.1031  0.0106
 3653W        W19462   9.522   5.285   3.774  0.1217 -0.0926  0.0513
 3654W        W19463  18.123   8.724   3.437 -0.0315 -0.4019  0.2875
 3655W        W19464  11.819   1.767   3.070 -0.0032 -0.0385 -0.1309
 3656W        W19465   3.010   2.172  16.158 -0.0806 -0.3187 -0.0096
 3657W        W19466   6.549   2.055   4.977 -0.3351  0.2090  0.0929
 3658W        W19467   7.396  15.980   2.751 -0.2150 -0.0112  0.0443
 3659W        W19468   7.016   6.764  16.279 -0.2601 -0.1613 -0.0195
 3660W        W19469   9.216   3.181   0.869  0.0504  0.1800  0.2120
 3661W        W19470   9.294  12.798   4.366 -0.0406  0.0395 -0.1790
 3662W        W19471   6.067  17.277   4.278 -0.0793  0.1182 -0.0390
 3663W        W19472   1.859  14.613  13.485 -0.1591 -0.1434 -0.0235
 3664W        W19473  13.853  10.208   1.990 -0.2191 -0.1604 -0.0285
 3665W        W19474   4.835   7.266  10.540  0.1262  0.0655  0.4545
 3666W        W19475   4.449  17.921   1.314 -0.1310  0.1651  0.0098
 3667W        W19476  10.821   5.605   5.032  0.3124 -0.1659 -0.0004
 3668W        W19477   4.390  13.103  13.173  0.0678  0.0989 -0.0137
 3669W        W19478   8.783   3.086   4.035 -0.0613 -0.0970 -0.1668
 3670W        W19479   1.707   7.150  13.463  0.0864 -0.0833  0.0130
 3671W        W19480   5.495  11.609   5.356 -0.1618  0.1409  0.1852
 3672W        W19481  10.459  15.914  14.168 -0.1323  0.1148  0.0284
 3673W        W19482   8.804   7.216   1.375 -0.1709  0.1026  0.0615
 3674W        W19483   9.120  10.807   0.562 -0.0062  0.0198 -0.1992
 3675W        W19484  14.927  16.817  16.300  0.2504  0.1269 -0.0524
 3676W        W19485  12.504   4.196  15.981  0.3397  0.3298 -0.1280
 3677W        W19486   4.335  11.065  16.110 -0.0984 -0.0167 -0.0167
 3678W        W19487  10.554  16.429  13.435  0.0768  0.0519  0.0610
 3679W        W19488   0.347   6.496   5.253  0.0976  0.2697 -0.1554
 3680W        W19489   3.945   6.687  12.647  0.0949 -0.0150  0.0580
 3681W        W19490   5.937   6.497  15.327  0.5606  0.2284  0.0867
 3682W        W19491   4.244  11.979   5.817 -0.0547  0.4127  0.1225
 3683W        W19492   4.219  12.815  10.826  0.0261 -0.0612  0.2044
 3684W        W19493  14.603  16.122   0.346 -0.1494  0.0092  0.0395
 3685W        W19494   2.583   8.656  14.201 -0.4422  0.0710  0.1370
 3686W        W19495  11.741  17.083  12.931  0.0690  0.2507  0.1130
 3687W        W19496  16.589  10.077  11.687 -0.1373  0.0606 -0.0751
 3688W        W19497   6.433   1.556  15.795 -0.1133  0.2593 -0.0740
 3689W        W19498  16.741   8.103  15.063  0.1182  0.0624 -0.0776
 3690W        W19499  17.731  15.324   4.405 -0.1152  0.0333 -0.0773
 3691W        W19500  10.650   4.717  10.998  0.0753  0.0776 -0.1425
 3692W        W19501   7.974   6.422  11.946  0.1056 -0.0980 -0.1392
 3693W        W19502   9.271   3.240  11.323 -0.0133 -0.2844 -0.1484
 3694W        W19503  11.588  11.087   2.379  0.2163  0.0294  0.3351
 3695W        W19504  13.921   5.319  13.144  0.1065 -0.0115 -0.3779
 3696W        W19505  11.217  14.448  13.955  0.4099 -0.0933  0.1105
 3697W        W19506  13.681   4.457   0.215 -0.0538 -0.0991  0.3222
 3698W        W19507  17.188  14.211   4.535 -0.0289 -0.1073 -0.2907
 3699W        W19508  16.443  11.959   3.248  0.0044  0.0358  0.0114
 3700W        W19509  13.280   4.945  15.226  0.2008 -0.0121  0.0279
 3701W        W19510   0.127   2.492  14.836 -0.2778  0.1511 -0.0154
 3702W        W19511   5.750  13.371  13.827 -0.1436 -0.0349  0.0396
 3703W        W19512  15.827   6.825  13.553  0.1482 -0.1016 -0.4413
 3704W        W19513  10.610   8.575   1.634 -0.4739  0.0323 -0.0558
 3705W        W19514   1.098   3.929  11.398  0.3468 -0.3700 -0.2051
 3706W        W19515  16.853   5.830   4.821 -0.1268 -0.1291  0.0764
 3707W        W19516   1.493   7.220  13.932 -0.1961 -0.0147 -0.1369
 3708W        W19517  10.600   6.669  13.291 -0.2934  0.0883  0.2743
 3709W        W19518   4.214  14.294  14.143 -0.1198  0.0705  0.0098
 3710W        W19519  12.342  10.343  10.613  0.0293 -0.0077 -0.0556
 3711W        W19520  14.501   5.859  13.769 -0.0862 -0.0460 -0.0167
 3712W        W19521   6.550   2.906  15.143 -0.0279 -0.0695  0.1744
 3713W        W19522   4.885   0.369  10.887  0.0501  0.0959 -0.0012
 3714W        W19523   2.440   6.765   2.054 -0.0154 -0.1521 -0.0441
 3715W        W19524  12.884   1.404  16.080  0.1446 -0.1628  0.1567
 3716W        W19525   1.777   1.144  15.188 -0.2296  0.3278 -0.3284
 3717W        W19526   1.265   7.959  12.882 -0.0334 -0.3429  0.2436
 3718W        W19527  11.978   5.100  15.679 -0.1507 -0.2664  0.1422
 3719W        W19528  14.809   2.723  14.867 -0.0971  0.2260 -0.1844
 3720W        W19529   0.584   8.085   0.243  0.1533 -0.1043 -0.0831
 3721W        W19530  14.945   7.437  12.555  0.1178  0.2028 -0.1855
 3722W        W19531  15.296   4.707  15.796 -0.2379 -0.0809  0.1100
 3723W        W19532  17.851   6.221   1.027 -0.2185  0.2302 -0.4169
 3724W        W19533  17.259   7.185  14.347  0.0346 -0.1140 -0.0105
 3725W        W19534   6.934  17.260   3.291  0.2142  0.3149 -0.1287
 3726W        W19535  10.717   1.343   2.450 -0.1358  0.2064  0.0370
 3727W        W19536   0.286  11.580   0.043 -0.0772  0.0900 -0.3415
 3728W        W19537  15.139  15.049  11.209  0.0998  0.0247 -0.2669
 3729W        W19538   6.022   7.350   2.744  0.2941  0.1155  0.1404
 3730W        W19539  17.723   7.151   0.366  0.1581 -0.3007  0.3024
 3731W        W19540  11.644   4.818  10.930  0.2613  0.0274  0.3488
 3732W        W19541   2.020  17.132   1.131 -0.1462 -0.0739  0.2867
 3733W        W19542   4.553  10.989  12.154 -0.0109 -0.0770 -0.1588
 3734W        W19543  16.809  11.314  12.044 -0.2621  0.3022  0.0137
 3735W        W19544   1.413  11.308  16.069  0.0474  0.0444 -0.0022
 3736W        W19545   8.339  16.503   3.641  0.2530  0.1416 -0.1824
 3737W        W19546  16.792   3.724  13.145 -0.1043  0.2904 -0.0037
 3738W        W19547   3.787  10.806   3.257 -0.1045  0.1363  0.1424
 3739W        W19548   4.604  16.625   5.179 -0.0596 -0.0996 -0.2454
 3740W        W19549   1.160   5.287   0.365 -0.3062 -0.1115  0.0447
 3741W        W19550  16.425   7.277   2.574 -0.0627  0.0694  0.0434
 3742W        W19551  11.464  11.774  14.940 -0.1671 -0.1323  0.1972
 3743W        W19552   4.174   1.936   5.255 -0.0420 -0.0098 -0.1363
 3744W        W19553  14.601  13.151   0.973  0.2082  0.1839  0.0232
 3745W        W19554  17.672   8.030   0.666 -0.0373  0.1517  0.3383
 3746W        W19555   4.401   8.931  14.758  0.2159  0.1870  0.1758
 3747W        W19556  15.767  16.932  11.830  0.1265 -0.2106 -0.0420
 3748W        W19557  16.370   1.770  16.188  0.1231 -0.0591 -0.1345
 3749W        W19558   9.833   8.429  11.970 -0.1034  0.0554 -0.0414
 3750W        W19559  16.618  16.775  11.071  0.0907 -0.0234  0.3243
 3751W        W19560  15.332  12.345   4.791  0.2160 -0.0654 -0.2268
 3752W        W19561  10.564   3.743  12.624  0.0693  0.1669 -0.0720
 3753W        W19562  16.590   4.964  14.522 -0.0742  0.1014 -0.0685
 3754W        W19563   1.732   4.325   5.664 -0.1706  0.1517 -0.2044
 3755W        W19564  14.628   4.441   3.838 -0.0199 -0.0327 -0.0312
 3756W        W19565   4.369   0.874   0.012 -0.2099 -0.1122  0.2830
 3757W        W19566   5.834  13.046   3.159 -0.1408 -0.1678 -0.0884
 3758W        W19567   0.805  15.450  11.425 -0.3419  0.0603  0.4044
 3759W        W19568  13.894  12.880   3.524  0.3289 -0.1285 -0.3197
 3760W        W19569  11.249  13.218  11.172  0.2118  0.1018 -0.2449
 3761W        W19570   1.144  18.218  14.288 -0.1600  0.0459  0.1473
 3762W        W19571  11.693  13.875  11.617 -0.2471  0.4639 -0.0787
 3763W        W19572  10.339   4.225   1.459 -0.3287  0.2389  0.0193
 3764W        W19573  11.768  17.637  12.942  0.1730 -0.1651  0.0611
 3765W        W19574   2.342   0.975   0.659  0.0028 -0.0994  0.2652
 3766W        W19575   1.394   0.590   4.152 -0.0932  0.0741  0.4152
 3767W        W19576   1.790   4.732  15.760 -0.0723 -0.0986  0.0798
 3768W        W19577  12.603   1.718   0.696  0.3064  0.4632  0.1242
 3769W        W19578  11.389   7.324  14.657 -0.3236  0.0815  0.1519
 3770W        W19579   7.860  12.316  13.220  0.1966  0.0834 -0.1231
 3771W        W19580  12.578   6.740   3.621  0.0771  0.1734  0.0608
 3772W        W19581   2.604  10.790   1.735  0.0098  0.0087  0.3849
 3773W        W19582   9.164   8.803   0.805 -0.0214 -0.1843  0.2839
 3774W        W19583  14.970   4.813  16.230 -0.1527  0.2808  0.1175
 3775W        W19584   8.343   0.104   1.619 -0.0977  0.1171 -0.0360
 3776W        W19585  13.960   2.241  12.719 -0.2733 -0.2140 -0.2346
 3777W        W19586   9.895   0.464   5.006  0.1481  0.1679 -0.1479
 3778W        W19587   6.446   0.665   0.338 -0.1871  0.3662  0.0208
 3779W        W19588  11.663   8.468   2.552  0.0026  0.3141  0.0577
 3780W        W19589   9.038   8.141  12.905  0.0066  0.2339  0.2261
 3781W        W19590   3.995  14.889   2.613 -0.0181  0.0619  0.1929
 3782W        W19591   5.516  13.981  15.160  0.0648  0.0217 -0.1712
 3783W        W19592  16.026   3.399   5.258  0.0492 -0.0259  0.2891
 3784W        W19593   4.307  10.239   3.967 -0.1957 -0.2040  0.1992
 3785W        W19594  17.848   6.330  15.541  0.1999  0.1884  0.3017
 3786W        W19595   8.716  13.622   2.865  0.0812 -0.1630 -0.2897
 3787W        W19596  10.613  13.001   5.131 -0.0096  0.3057 -0.0104
 3788W        W19597   5.491   7.247  14.619 -0.1454  0.1863 -0.2378
 3789W        W19598  10.953  13.104   3.248 -0.3124 -0.2914 -0.0991
 3790W        W19599   1.796   4.592   3.734  0.1313  0.1885  0.1304
 3791W        W19600   2.856   4.426   6.134  0.1485 -0.0843 -0.2731
 3792W        W19601  13.717  10.030   0.417 -0.0975 -0.0967  0.0926
 3793W        W19602   5.309  10.089  13.816  0.2157  0.4587  0.1459
 3794W        W19603  15.582  10.950   5.881 -0.2106 -0.0265 -0.4172
 3795W        W19604   5.628   1.979  13.029 -0.0299 -0.0727  0.1703
 3796W        W19605   8.359   6.275  12.307  0.1175 -0.2698  0.3204
 3797W        W19606   5.621   1.339   2.092 -0.0884 -0.0717  0.1996
 3798W        W19607   4.744  17.835   5.320 -0.0975 -0.0106 -0.0893
 3799W        W19608  17.544   1.126   4.997 -0.0998 -0.1133 -0.3997
 3800W        W19609   2.201  16.142   2.566  0.0449 -0.1367  0.3303
 3801W        W19610  17.705   4.696  13.043  0.0258 -0.0332  0.1690
 3802W        W19611   6.971   3.966   4.173  0.1448  0.2349 -0.0023
 3803W        W19612  14.857  17.552   3.575 -0.0862  0.0493 -0.0922
 3804W        W19613  16.954   8.090  11.322 -0.1288  0.1065  0.0350
 3805W        W19614   7.180   9.443   6.195  0.1533 -0.0525  0.0602
 3806W        W19615  14.533   9.215   3.031  0.3333  0.5274  0.2004
 3807W        W19616  11.913   9.267  11.651  0.1162 -0.2085 -0.0324
 3808W        W19617  14.674  13.740   4.403  0.3150 -0.0597  0.0149
 3809W        W19618   6.263   4.226   4.753 -0.0564 -0.2682 -0.3708
 3810W        W19619   2.461   5.513   2.712 -0.0391  0.0239  0.1969
 3811W        W19620  12.075   8.738   0.911 -0.0692 -0.1989 -0.0065
 3812W        W19621  17.645  14.029  15.106 -0.2341 -0.1632  0.1860
 3813W        W19622  14.744   0.104   3.877 -0.2212 -0.0400 -0.5124
 3814W        W19623   2.899   7.134   5.211  0.1016 -0.2232  0.0576
 3815W        W19624  17.042  14.006   0.199  0.2576 -0.3350  0.1511
 3816W        W19625   1.165   6.842   0.330 -0.1324 -0.3658 -0.4006
 3817W        W19626   9.125  13.695  15.610  0.1540  0.0906 -0.0131
 3818W        W19627  12.839  13.605   0.106  0.2409  0.0884 -0.2053
 3819W        W19628  17.704  12.436   5.574 -0.1964  0.4288  0.1755
 3820W        W19629   5.747  12.691  13.297  0.1908  0.0119 -0.0480
 3821W        W19630   1.164   3.682   5.284  0.1143 -0.1570 -0.0188
 3822W        W19631   2.795   2.563   5.159 -0.1382 -0.0770 -0.0991
 3823W        W19632   6.642   9.676   1.355  0.0040  0.0823 -0.0648
 3824W        W19633   9.970  12.214   1.311  0.1523 -0.0136 -0.2523
 3825W        W19634   2.147   0.920   2.282  0.1892 -0.2718  0.0289
 3826W        W19635   1.399   8.546   0.270 -0.0796 -0.1469 -0.0366
 3827W        W19636  15.696   5.260  11.436 -0.3107  0.0865 -0.2069
 3828W        W19637   8.943   0.335   5.786 -0.5981 -0.2203 -0.0507
 3829W        W19638  12.291  11.337  10.782 -0.1352 -0.2180  0.0865
 3830W        W19639   9.785  18.202  16.295  0.0080 -0.4345 -0.2380
 3831W        W19640  13.748  14.404   3.963  0.0837  0.0571 -0.1233
 3832W        W19641  12.527  13.884   1.331  0.3899 -0.0810 -0.0116
 3833W        W19642   9.279  14.870   0.151  0.1552  0.2934 -0.1555
 3834W        W19643  15.883   9.746   3.892 -0.2637  0.1601  0.2351
 3835W        W19644   4.426   8.853  13.523  0.1719 -0.0187 -0.3605
 3836W        W19645  14.452   7.218  10.939  0.3061 -0.0394 -0.0659
 3837W        W19646   1.586  17.858   2.583  0.2628  0.0035  0.3493
 3838W        W19647   9.226   9.958   4.826  0.1053  0.2724 -0.1994
 3839W        W19648   4.207  17.161   5.570  0.0122 -0.0184  0.0059
 3840W        W19649  12.944   9.696   1.985 -0.2344 -0.0687 -0.0234
 3841W        W19650   0.936  13.815  11.761 -0.0615  0.2011  0.2152
 3842W        W19651   6.474   0.884  11.851  0.1301 -0.0652  0.1821
 3843W        W19652  10.553   1.121  11.736  0.0605 -0.0468  0.0981
 3844W        W19653  18.028   3.292  15.606 -0.1149  0.1335 -0.2703
 3845W        W19654   7.182  13.881   5.395  0.2393  0.2182 -0.1677
 3846W        W19655   5.441   0.266  14.054  0.1774 -0.1622  0.1960
 3847W        W19656   2.207   5.880   2.411 -0.1252  0.0146  0.0093
 3848W        W19657  17.263   9.333   0.869  0.0388  0.3767 -0.2894
 3849W        W19658   8.313   2.116   2.095  0.0774  0.1586 -0.1356
 3850W        W19659   1.763   3.993  15.733  0.2553 -0.2644  0.0257
 3851W        W19660  13.710   2.451  13.834 -0.2946 -0.0463  0.2550
 3852W        W19661   1.755   7.908   2.355  0.1339  0.0448  0.2588
 3853W        W19662  14.222   8.604  12.441  0.0458 -0.0657  0.1944
 3854W        W19663   4.814  15.492  13.580 -0.2745  0.0809 -0.1937
 3855W        W19664   7.096  10.494   0.828  0.0019 -0.0852  0.1780
 3856W        W19665   7.777  13.354   5.906  0.0792 -0.1137 -0.0018
 3857W        W19666  11.934   3.973  16.318  0.0402  0.0365  0.2155
 3858W        W19667   7.553   9.600   0.825  0.1994 -0.3967  0.1597
 3859W        W19668   4.322  14.830   2.985  0.4084  0.2025  0.1241
 3860W        W19669   3.885   4.411   2.982  0.0036 -0.1445 -0.0017
 3861W        W19670   0.249   5.705   1.716 -0.0329  0.0009  0.3455
 3862W        W19671   0.572  15.087  16.235 -0.1605  0.0926  0.0336
 3863W        W19672   8.841  10.197  11.414  0.1506  0.2245  0.0246
 3864W        W19673  12.106  11.166   1.145  0.2532 -0.0165  0.0386
 3865W        W19674   9.030  12.522  12.525  0.2103 -0.1592 -0.0244
 3866W        W19675  13.075   5.639   1.556 -0.0043  0.2230 -0.2246
 3867W        W19676   2.366  15.144  12.064 -0.0795 -0.1927 -0.0625
 3868W        W19677   1.896  15.719   1.948 -0.0066  0.1690  0.1034
 3869W        W19678   1.943   8.330  11.618 -0.0519 -0.1089  0.2867
 3870W        W19679   2.620   8.946   1.977  0.0839  0.0844 -0.2233
 3871W        W19680   1.170  11.382   1.174 -0.2264 -0.0880  0.2630
 3872W        W19681   4.865   5.434   3.073  0.0965 -0.2545  0.3163
 3873W        W19682   0.839   6.238  13.902 -0.0122 -0.1227 -0.2681
 3874W        W19683  14.028  10.334  11.742 -0.1307  0.2257 -0.1793
 3875W        W19684   5.484  14.961  15.031  0.1102  0.2012 -0.2375
 3876W        W19685  16.660  16.746   2.716  0.2182  0.0024  0.3760
 3877W        W19686   9.045  11.565  12.197  0.0675  0.0910 -0.1392
 3878W        W19687  17.509   2.187  11.619 -0.1071  0.1264  0.0800
 3879W        W19688  17.029  17.035  15.307  0.1449 -0.1071 -0.0946
 3880W        W19689   8.159  16.553   2.713  0.0447  0.0009  0.0995
 3881W        W19690  15.056  14.162   3.596 -0.1624  0.6325 -0.0989
 3882W        W19691   1.417  12.198   1.327 -0.0148  0.0014 -0.0349
 3883W        W19692   1.268  10.546  12.323 -0.0326  0.2273  0.1585
 3884W        W19693  11.690   8.199   3.329 -0.2938 -0.2036 -0.0120
 3885W        W19694   9.187   9.425   2.569  0.0910 -0.2199  0.1123
 3886W        W19695   8.487  15.616  16.344  0.2325  0.2376  0.1033
 3887W        W19696  18.161   1.953  11.586 -0.0212 -0.0014  0.0014
 3888W        W19697   0.931   3.094  15.205  0.3327  0.1798 -0.0623
 3889W        W19698   2.115  10.006   3.771  0.0873  0.1040  0.0908
 3890W        W19699  18.102  16.916  15.045 -0.1162  0.1248  0.0910
 3891W        W19700   6.847   8.406  12.177 -0.2051 -0.1179 -0.1254
 3892W        W19701   7.327   2.453  15.205 -0.1190  0.0480 -0.1835
 3893W        W19702  16.007  16.562   0.820 -0.0776 -0.0130  0.0581
 3894W        W19703   9.839   0.188  12.936  0.0056 -0.0338  0.0190
 3895W        W19704   7.245  11.944  15.103 -0.0596  0.3269  0.1420
 3896W        W19705   2.137  17.971   4.021  0.2774 -0.0820 -0.4815
 3897W        W19706   3.631   1.072   1.338 -0.1493  0.3397  0.0088
 3898W        W19707  17.456  13.054  11.027  0.0402 -0.2421 -0.1642
 3899W        W19708  16.984  11.489   5.103 -0.0510  0.0149  0.2668
 3900W        W19709  11.909   6.489   5.062  0.1800  0.3333 -0.0610
 3901W        W19710  16.444   2.873  14.155  0.1630 -0.1570 -0.2023
 3902W        W19711   9.312  10.235  11.692 -0.0764 -0.1400 -0.1319
 3903W        W19712   3.476   8.076  15.587  0.0926 -0.3004  0.1206
 3904W        W19713   8.949  18.107   9.989 -0.0415 -0.0784 -0.1829
 3905W        W19714  15.914  13.636   2.719  0.1541  0.2926 -0.0551
 3906W        W19715  17.757   5.523   0.994  0.0931  0.1116  0.3732
 3907W        W19716  11.247  14.453   3.175  0.2985  0.0242  0.1444
 3908W        W19717   5.641   5.086   0.382 -0.0944 -0.0247 -0.0962
 3909W        W19718  12.550   7.441   4.533  0.0003  0.3339  0.5032
 3910W        W19719  12.477   7.279  13.166 -0.1537 -0.1260 -0.2169
 3911W        W19720  17.101  15.389   1.689  0.0670 -0.5600  0.0086
 3912W        W19721  11.149  11.588  13.321  0.2239  0.0639 -0.0250
 3913W        W19722  17.445   3.451  16.364  0.0666 -0.2076  0.0179
 3914W        W19723   8.422   6.732  11.995 -0.1411 -0.0649 -0.1014
 3915W        W19724  13.093  11.092   5.699 -0.0689 -0.2294  0.0198
 3916W        W19725  16.139  12.838  15.318  0.1132 -0.1323  0.3007
 3917W        W19726  15.408   4.606  11.353 -0.0720 -0.2548  0.2575
 3918W        W19727   2.553   5.225   1.277 -0.0963  0.0762 -0.3599
 3919W        W19728   4.950   3.153   3.351  0.1236 -0.3697 -0.3631
 3920W        W19729  15.156   3.385   2.575 -0.1448 -0.1922 -0.1203
 3921W        W19730   9.440  17.877  15.144  0.1368  0.0453  0.0899
 3922W        W19731  10.167   2.773   5.068 -0.0361 -0.0630  0.2721
 3923W        W19732  12.464   6.092   2.402 -0.1945  0.2145 -0.0936
 3924W        W19733  12.786  15.823  16.354 -0.2691  0.0868 -0.0658
 3925W        W19734  11.673   7.161  15.944 -0.2031 -0.0731  0.0220
 3926W        W19735   6.402   7.044   1.102 -0.1821 -0.1210  0.0420
 3927W        W19736  17.747  16.153  11.847 -0.4155 -0.2613 -0.0705
 3928W        W19737  12.694   3.215  14.046  0.0780 -0.0236 -0.1035
 3929W        W19738  17.383  18.199   3.555  0.1049  0.2339  0.4556
 3930W        W19739  10.672  15.700   3.663  0.1953  0.0798 -0.1640
 3931W        W19740  15.061   2.980  12.770  0.1727  0.0810 -0.0628
 3932W        W19741  14.441   3.726   3.598  0.0359 -0.0830 -0.4516
 3933W        W19742   7.539   6.294   1.127  0.0912  0.0338  0.1596
 3934W        W19743   1.277  17.892  16.248  0.0455  0.0891 -0.0928
 3935W        W19744   6.378   6.583   0.867  0.2534  0.0068  0.1055
 3936W        W19745  13.283   2.796   6.443  0.0303 -0.2423 -0.0320
 3937W        W19746   6.561  10.386  14.587  0.0755 -0.0213 -0.1613
 3938W        W19747  16.504   6.557   0.563  0.2627 -0.2056 -0.1067
 3939W        W19748   7.175  17.171   1.841  0.2490 -0.1422  0.0228
 3940W        W19749   6.311  10.750   5.087  0.2205  0.0703 -0.3746
 3941W        W19750  10.375   4.894   3.736  0.0695 -0.0256 -0.1574
 3942W        W19751  11.726  13.634   4.387 -0.2727 -0.1406  0.3461
 3943W        W19752   1.703  10.928   3.276  0.0554 -0.0422  0.1423
 3944W        W19753   7.118   0.978  12.958 -0.0018 -0.1759 -0.1023
 3945W        W19754  15.221  15.512  12.188 -0.0011 -0.1369  0.0095
 3946W        W19755   8.773   5.123   3.296 -0.1717 -0.2477  0.1465
 3947W        W19756   2.709   7.117  13.535  0.0104  0.2625  0.0655
 3948W        W19757   7.615  16.696   3.477  0.0287 -0.1056  0.3658
 3949W        W19758   6.378   6.831   3.852 -0.3250 -0.3228 -0.1167
 3950W        W19759  16.122  17.303  15.790 -0.2172  0.2866 -0.0825
 3951W        W19760  14.318   1.377  13.688  0.2202 -0.0283 -0.2154
 3952W        W19761   9.815   6.351  14.639 -0.1624 -0.0682  0.2414
 3953W        W19762   8.898   7.849  15.204 -0.3156  0.0692  0.1114
 3954W        W19763  10.855  10.976   2.056  0.0836  0.2649 -0.0884
 3955W        W19764   4.592   2.321  12.489 -0.0392 -0.1922  0.2001
 3956W        W19765  16.751  15.467   1.341 -0.2673  0.1570 -0.0173
 3957W        W19766  12.979  17.098  16.067 -0.3093 -0.0390  0.0574
 3958W        W19767   3.489   5.700   2.506  0.1757  0.0696  0.1727
 3959W        W19768   2.118   5.812   0.169  0.1478  0.2512 -0.1189
 3960W        W19769   0.039   4.209  15.568 -0.1780  0.2840 -0.0033
 3961W        W19770  10.943  13.530   3.994 -0.0004 -0.0425 -0.0055
 3962W        W19771   1.328  12.059  13.191 -0.0494 -0.0865  0.0187
 3963W        W19772  14.220   8.359   4.126  0.2345  0.2610  0.0564
 3964W        W19773  16.617   5.351   2.397  0.0542  0.0324 -0.1203
 3965W        W19774  12.976   2.053   5.275  0.2337  0.0573 -0.3200
 3966W        W19775  11.734  13.584  15.876  0.3191 -0.0682  0.2969
 3967W        W19776  15.170   6.166  15.121 -0.0983  0.0413  0.0613
 3968W        W19777   7.455  11.844   0.476  0.3073 -0.0172  0.0316
 3969W        W19778  15.023  16.185   2.235 -0.0881 -0.2863 -0.3101
 3970W        W19779   5.045   8.259  13.942 -0.1016 -0.1612 -0.2838
 3971W        W19780   8.443  11.299   3.214 -0.0904 -0.0734  0.1697
 3972W        W19781   8.873  14.212   4.444  0.1950 -0.1961  0.2802
 3973W        W19782  11.504  16.352  12.686  0.1025 -0.0212 -0.1811
 3974W        W19783   6.396   2.036  11.166  0.0824 -0.0172 -0.3159
 3975W        W19784  14.576  17.118   4.002  0.0073  0.0708 -0.0786
 3976W        W19785   9.354   8.934  13.051 -0.1076  0.2041 -0.0024
 3977W        W19786   1.303  11.156  14.816  0.1016 -0.0178  0.2593
 3978W        W19787   5.636   8.947   4.407 -0.1487  0.1651  0.1416
 3979W        W19788  17.149   5.568  16.032 -0.1104 -0.0461 -0.0110
 3980W        W19789  15.389  15.879   1.942 -0.0130  0.2485 -0.0016
 3981W        W19790  16.218   7.997   0.833  0.0655 -0.0601  0.0345
 3982W        W19791  15.968  13.953   2.348  0.0435  0.2140 -0.0986
 3983W        W19792  17.132  15.915   0.545 -0.1737  0.1017  0.0990
 3984W        W19793  13.628  10.029  11.272  0.0202  0.0006  0.1573
 3985W        W19794  15.867  15.791   1.556 -0.0623 -0.0975 -0.4378
 3986W        W19795  16.214   7.328   0.997  0.1396  0.1913 -0.0483
 3987W        W19796  14.749  14.530   1.863  0.0591  0.1444  0.0402
 3988W        W19797  10.652   6.672   0.439 -0.0473  0.3490 -0.0363
 3989W        W19798  17.979  12.718   0.812  0.0639  0.0486 -0.2547
 3990W        W19799  11.611  15.096  11.947 -0.1983  0.1822  0.1669
 3991W        W19800  11.484   5.013  15.705  0.2094  0.0442  0.2717
 3992W        W19801   7.019  17.179  15.699  0.2838  0.1305 -0.0081
 3993W        W19802   0.876   6.635   3.985 -0.0228  0.1786 -0.4381
 3994W        W19803   2.158   5.018  13.669 -0.0916  0.0803 -0.2113
 3995W        W19804  16.076   3.410   1.199 -0.2256  0.1319 -0.1633
 3996W        W19805   3.730  14.289   3.772 -0.2546  0.0882 -0.2543
 3997W        W19806   3.508  13.992   4.094  0.0440 -0.0732 -0.0206
 3998W        W19807   8.586  14.125  14.043 -0.1981  0.0078 -0.2787
 3999W        W19808   3.742   6.791   5.179  0.2202  0.0628  0.0966
 4000W        W19809   0.592   7.194   3.013 -0.5421  0.0398  0.1560
 4001W        W19810  13.842   1.542   4.517  0.1042  0.0894  0.0544
 4002W        W19811   1.036  15.421  15.550  0.3401  0.0952 -0.2378
 4003W        W19812   3.585   6.440   4.212  0.1521  0.0553  0.0124
 4004W        W19813   6.646   3.023   4.358  0.1025 -0.2857 -0.0648
 4005W        W19814  15.332   8.766  12.535  0.0632 -0.2324  0.3061
 4006W        W19815   5.021  13.831   5.211  0.1628  0.0765  0.0762
 4007W        W19816  16.929   4.594  12.679  0.1495  0.2193 -0.1225
 4008W        W19817  12.100   7.445  15.896  0.1843 -0.4644  0.1137
 4009W        W19818   7.236   2.873   1.700  0.0029  0.0386  0.1271
 4010W        W19819   0.243  11.208   3.608 -0.0994 -0.3037  0.0619
 4011W        W19820  11.368  14.709  13.419  0.0492  0.1618 -0.4911
 4012W        W19821  17.592  11.312   4.321  0.0624  0.1288  0.1881
 4013W        W19822   6.502   2.155  11.753 -0.0725  0.2297  0.2436
 4014W        W19823   7.945   0.680  13.240  0.0450  0.0596 -0.2544
 4015W        W19824   3.805   9.448   2.203  0.0337 -0.3415  0.2083
 4016W        W19825   5.568  12.064  12.921  0.1584  0.0506 -0.1799
 4017W        W19826  14.159  17.557   1.679 -0.2542 -0.0289 -0.5430
 4018W        W19827  12.147  17.716   3.150  0.1460 -0.3408 -0.0282
 4019W        W19828  16.536  13.462   1.235 -0.2877 -0.0784  0.0538
 4020W        W19829  11.264   4.409   3.286  0.2365 -0.2560  0.4544
 4021W        W19830  15.683  13.020  12.365  0.2273  0.0867  0.3204
 4022W        W19831   7.018   8.005   6.434 -0.0479  0.0243 -0.1599
 4023W        W19832   4.836  14.985  11.451 -0.0107 -0.3378  0.0044
 4024W        W19833  13.297   3.427  11.620 -0.0578 -0.0175  0.4255
 4025W        W19834   0.072   9.690   2.239 -0.2971 -0.0910 -0.0484
 4026W        W19835  11.102  11.934   3.666  0.0900 -0.0527 -0.2029
 4027W        W19836   2.960  18.167   0.220 -0.1687 -0.0527  0.0808
 4028W        W19837  13.118  17.525  12.946 -0.1170  0.2509  0.4930
 4029W        W19838   8.789  12.049  12.402  0.0988 -0.2335  0.0006
 4030W        W19839  11.985  14.794   1.287 -0.1577 -0.0947 -0.0446
 4031W        W19840   7.256   2.023  12.475 -0.0991  0.1317  0.2514
 4032W        W19841   2.583   8.241  14.467 -0.0422 -0.0182  0.0341
 4033W        W19842  18.044   2.735   2.942  0.0408 -0.0581 -0.0152
 4034W        W19843   2.783  12.080   2.197 -0.1558  0.1433 -0.1058
 4035W        W19844  10.801   5.372   3.179 -0.2135 -0.2074 -0.0313
 4036W        W19845   6.740   8.747  13.808 -0.2803  0.0761 -0.1158
 4037W        W19846  10.574   0.283   3.404 -0.0295  0.0884 -0.4793
 4038W        W19847   1.086  10.789  13.942 -0.3080  0.0760 -0.1664
 4039W        W19848   2.310  14.303  12.964 -0.1580 -0.0576 -0.0106
 4040W        W19849  16.103   5.061  13.945  0.4779 -0.1436  0.3330
 4041W        W19850  10.036  14.349  11.867  0.1775 -0.0076 -0.0958
 4042W        W19851  10.431  12.044   0.464 -0.3415  0.1416 -0.3511
 4043W        W19852  13.637   0.088  13.951 -0.1031 -0.0758  0.0670
 4044W        W19853  13.016  14.952  12.512  0.2964  0.1424  0.0154
 4045W        W19854  13.845   3.506  12.419 -0.2722 -0.2825  0.1392
 4046W        W19855  13.568  15.184   2.544  0.1270 -0.2288  0.0521
 4047W        W19856   6.586   7.455   0.245 -0.0047  0.0125 -0.1248
 4048W        W19857   6.064   1.234  12.536  0.2191  0.3616  0.4617
 4049W        W19858   1.609   2.428  15.589 -0.2536  0.1239  0.3148
 4050W        W19859   8.019  17.718   0.777  0.2244  0.0327 -0.0523
 4051W        W19860   8.521  14.225  15.153 -0.0480 -0.2236  0.0842
 4052W        W19861   4.044   7.744  11.036 -0.1519 -0.0686  0.0755
 4053W        W19862   3.213   1.856   5.021 -0.1100  0.1413  0.3312
 4054W        W19863   5.555  17.931   0.040  0.0585 -0.1713 -0.1918
 4055W        W19864  15.572   7.636  15.202  0.0179 -0.1212 -0.0565
 4056W        W19865   7.876  14.574  11.979  0.3561  0.1042 -0.0164
 4057W        W19866   1.302   6.313  13.236 -0.1104  0.1204  0.0198
 4058W        W19867   9.776  11.025   3.362 -0.2278 -0.1296 -0.1278
 4059W        W19868  14.099   4.311  11.641 -0.0942  0.2896 -0.3435
 4060W        W19869   4.717  14.696   4.565  0.0271 -0.0646  0.1455
 4061W        W19870   0.101   6.354   3.106 -0.0435 -0.2045  0.3635
 4062W        W19871   8.537  17.065   0.311 -0.0307 -0.1797  0.0423
 4063W        W19872   6.513  14.329  12.056 -0.0184 -0.1519 -0.0846
 4064W        W19873   0.252  10.885   4.343  0.0669  0.2631  0.2561
 4065W        W19874   1.637   2.526   0.309  0.3075 -0.4306 -0.1748
 4066W        W19875   2.713   5.646   1.727  0.1337 -0.0600 -0.0503
 4067W        W19876  17.449  12.389   0.517  0.1605  0.0407 -0.1878
 4068W        W19877  14.412   1.574   1.365  0.1655  0.3106 -0.0271
 4069W        W19878   4.144   7.521   1.917 -0.0919 -0.1376  0.0279
 4070W        W19879   7.834   3.314   1.572 -0.1206  0.0402 -0.0617
 4071W        W19880  12.812  13.001   1.846  0.1112  0.2591  0.0876
 4072W        W19881   0.379  15.002   3.761 -0.1003 -0.0395 -0.0829
 4073W        W19882  10.710  16.406   0.281 -0.2908 -0.0313 -0.0387
 4074W        W19883   5.280  17.411   4.176  0.0189 -0.1785  0.0422
 4075W        W19884  16.451   4.143   1.397 -0.0913 -0.2666  0.0772
 4076W        W19885   3.368   9.731   1.382  0.3279  0.0177  0.2780
 4077W        W19886  15.636  15.100   0.572 -0.0451 -0.0467 -0.1415
 4078W        W19887  13.729   5.352  13.594 -0.0510  0.3461  0.2923
 4079W        W19888   8.949   2.172  13.703  0.2385 -0.3379 -0.0974
 4080W        W19889   8.336   2.502  15.140 -0.1757 -0.0082 -0.0499
 4081W        W19890  16.943  14.841   1.583 -0.1129  0.0585 -0.0283
 4082W        W19891   5.670  15.497   4.621  0.1506 -0.0953 -0.2247
 4083W        W19892  14.948  11.365   2.074  0.3742 -0.1052 -0.1095
 4084W        W19893   5.279  11.186  12.659  0.1143 -0.0713  0.2379
 4085W        W19894  10.381   4.081   3.451  0.2894 -0.2283  0.1891
 4086W        W19895   1.144   6.191   1.355 -0.0787  0.0825  0.2192
 4087W        W19896   9.530   6.864  14.586  0.0218 -0.0026 -0.0784
 4088W        W19897  17.793   7.798   2.465 -0.0159 -0.0525 -0.0484
 4089W        W19898  13.454   9.855  14.744 -0.0050  0.1831 -0.1427
 4090W        W19899  11.112   9.329  13.239 -0.3280  0.1260  0.0463
 4091W        W19900   5.111  14.480  13.146 -0.2669 -0.0190 -0.1741
 4092W        W19901  16.753  13.743   0.498 -0.0217  0.1957  0.1709
 4093W        W19902  17.024   7.450   3.847  0.0714 -0.0106  0.3867
 4094W        W19903  17.187   8.920   0.435 -0.0410  0.1963 -0.2981
 4095W        W19904   7.681   3.800   4.073  0.0447  0.2408  0.0414
 4096W        W19905   9.346  13.263   4.605 -0.0384 -0.0419  0.1861
 4097W        W19906   7.418  10.840   1.723  0.0786  0.2459  0.1241
 4098W        W19907  17.770   4.108  13.117 -0.2153 -0.0279 -0.2949
 4099W        W19908   5.766   8.856  11.129 -0.0002 -0.1759 -0.0574
 4100W        W19909   7.246   1.123   1.783  0.0064 -0.2304 -0.0489
 4101W        W19910   3.365   7.876   4.786  0.2430  0.0653  0.2863
 4102W        W19911   6.360   0.063  12.070  0.4914  0.0167  0.0568
 4103W        W19912   9.616   9.727  10.046  0.3606 -0.2222  0.2282
 4104W        W19913   7.429   7.593   1.009  0.0622  0.1337 -0.0208
 4105W        W19914   3.020   5.888   4.923  0.0561 -0.0232 -0.1716
 4106W        W19915  14.047   6.142  15.735  0.0675  0.2394  0.1251
 4107W        W19916  17.689   8.137   2.923  0.0693  0.1503 -0.2101
 4108W        W19917  14.901   4.721  15.385 -0.0870 -0.0775 -0.0230
 4109W        W19918  12.504  12.506  11.246  0.2625  0.2469  0.3901
 4110W        W19919  11.172  12.277  16.198  0.2524 -0.0471 -0.0053
 4111W        W19920  17.620  13.220   5.089 -0.1938 -0.0069  0.0712
 4112W        W19921   4.204  15.137  12.378  0.2152 -0.0055  0.3005
 4113W        W19922  14.437  14.121   3.576  0.0472 -0.0859 -0.0818
 4114W        W19923  16.040  17.357   0.396 -0.1049  0.1579 -0.4415
 4115W        W19924  13.965   3.428   1.534 -0.0638 -0.4805 -0.2508
 4116W        W19925   9.293  15.397  14.865 -0.1572 -0.0024 -0.1322
 4117W        W19926   5.051  16.044  15.266 -0.0658 -0.0160 -0.0636
 4118W        W19927   4.519  13.576   4.953 -0.1333  0.0419 -0.0021
 4119W        W19928  14.182   7.691   4.411  0.0490 -0.1722 -0.0743
 4120W        W19929  16.799   3.969   1.734 -0.3826 -0.2591  0.0411
 4121W        W19930  10.897  10.024   2.364 -0.1126 -0.4303 -0.2747
 4122W        W19931   4.613  13.522   5.418 -0.0589 -0.1405  0.1576
 4123W        W19932   5.833   9.766  11.481  0.0095 -0.0844  0.1508
 4124W        W19933  14.655   4.228   2.368  0.4754  0.0228 -0.3011
 4125W        W19934   5.026   7.884   3.745  0.0100  0.1341  0.0847
 4126W        W19935  13.451   0.305  14.875  0.0389  0.0560 -0.1608
 4127W        W19936   8.392  15.369  13.056  0.1844 -0.1489 -0.2296
 4128W        W19937   0.965   1.838  14.244  0.0981  0.0741  0.0316
 4129W        W19938  17.689   7.425   2.090  0.0347  0.2398 -0.1068
 4130W        W19939  17.944  10.022  15.093 -0.0606  0.2529 -0.1508
 4131W        W19940  13.089  17.495  14.151 -0.1150  0.1393 -0.1651
 4132W        W19941  17.000  13.232  15.194 -0.3420  0.3720  0.0778
 4133W        W19942  16.039   6.872   1.728  0.0988 -0.0608  0.0128
 4134W        W19943   9.120   1.224  11.056 -0.0403 -0.0975  0.1873
 4135W        W19944   9.698  16.444  14.054  0.1604  0.0242 -0.4032
 4136W        W19945   9.856   8.134   0.365  0.0879  0.2150  0.1087
 4137W        W19946  13.669   7.791   1.503  0.0269  0.0599 -0.0477
 4138W        W19947   7.598   2.319  11.640  0.0785  0.2063 -0.1179
 4139W        W19948   3.046   6.289  15.505 -0.0692 -0.2760 -0.3769
 4140W        W19949  13.140   0.151  11.314  0.1110  0.2125 -0.1239
 4141W        W19950   3.165  11.226  12.000  0.3090  0.2640  0.2372
 4142W        W19951   7.441  15.179   4.356  0.0138 -0.0885  0.1539
 4143W        W19952   2.989  16.241   0.105 -0.0852 -0.0747  0.0938
 4144W        W19953   1.251   5.956  14.804  0.1344 -0.2714 -0.1734
 4145W        W19954  10.937  17.559  16.228  0.0412  0.1325 -0.1648
 4146W        W19955  12.551  17.383   3.851  0.1172  0.1023  0.0090
 4147W        W19956  14.176  10.695  10.824 -0.0106  0.1536 -0.0354
 4148W        W19957   2.704  13.364   4.420  0.3552  0.4742 -0.0350
 4149W        W19958  12.953   6.245   4.222  0.1038 -0.2200  0.0998
 4150W        W19959   8.850   4.442  10.562 -0.1182 -0.1465 -0.4222
 4151W        W19960   2.391  12.065  15.082  0.1031  0.1620  0.2157
 4152W        W19961   9.641   2.596  10.593  0.1243 -0.0428  0.0333
 4153W        W19962   3.738  16.700  10.324  0.1442  0.2819  0.3246
 4154W        W19963  14.704  11.591  13.694  0.0514 -0.0612  0.2815
 4155W        W19964  11.122   0.307   4.507 -0.3638  0.1541  0.2192
 4156W        W19965  13.584   6.311   4.626 -0.0989  0.1136 -0.0791
 4157W        W19966  13.439  12.268   0.673  0.2245  0.2446 -0.0359
 4158W        W19967  17.808   2.888  14.440 -0.2195 -0.0739  0.3808
 4159W        W19968  12.360  15.103  13.231  0.1796  0.0657 -0.1559
 4160W        W19969  17.359   8.790   0.913 -0.2805  0.1331 -0.1829
 4161W        W19970   1.449  16.135   4.248 -0.0372 -0.1294  0.0534
 4162W        W19971   2.788   3.893   1.991 -0.2097 -0.1049  0.1446
 4163W        W19972   9.295  15.730  11.850 -0.0767  0.1942  0.0982
 4164W        W19973  12.349  18.191   5.372 -0.1911 -0.1866 -0.3810
 4165W        W19974  14.311  13.149  15.597 -0.1833  0.2433  0.0962
 4166W        W19975  14.937   5.132  12.596 -0.0446  0.1898  0.0810
 4167W        W19976   8.301  13.797  14.380 -0.0874 -0.0265 -0.2920
 4168W        W19977  17.545  13.606   1.603  0.1932  0.0929 -0.0827
 4169W        W19978  17.908   2.532   2.131 -0.2388  0.1929  0.4058
 4170W        W19979  13.554   2.355   2.591 -0.0775  0.0245 -0.0177
 4171W        W19980  12.984  14.313  15.349 -0.1123  0.0824  0.0225
 4172W        W19981   1.785   5.230  14.115 -0.0489 -0.1486 -0.1622
 4173W        W19982  15.895   4.304   1.550 -0.3390 -0.2612 -0.3467
 4174W        W19983  16.844   7.009   0.644  0.1072  0.0358  0.0045
 4175W        W19984  14.399   1.746   6.306 -0.1218  0.1151  0.3338
 4176W        W19985  16.523   6.590  14.814  0.1486 -0.0348 -0.2197
 4177W        W19986   4.568  14.007  12.436  0.1279  0.2833 -0.0763
 4178W        W19987  16.437   2.367  14.289 -0.0290  0.0733 -0.2685
 4179W        W19988  13.273  16.438   5.246 -0.1911 -0.1163  0.0669
 4180W        W19989   7.704  15.878  13.574  0.2507  0.0082 -0.0554
 4181W        W19990  11.443   0.342   5.062  0.2445 -0.0073  0.0384
 4182W        W19991   4.940  16.204   5.084 -0.0865  0.0675 -0.0942
 4183W        W19992   7.375  10.926   5.604 -0.1759 -0.2420  0.0334
 4184W        W19993   9.445   9.026  13.878 -0.0025 -0.1159  0.1447
 4185W        W19994   4.651  13.935  14.781 -0.0680 -0.1561  0.1324
 4186W        W19995  13.055   2.296   1.908 -0.0991  0.1666  0.1858
 4187W        W19996  12.718  13.663  14.510  0.0058  0.2914 -0.3080
 4188W        W19997   2.545   4.573   4.901  0.0393 -0.2187 -0.0982
 4189W        W19998  13.213  17.805   5.859  0.1464 -0.0733  0.4846
 4190W        W19999  12.098  10.177  11.932  0.0215  0.3726  0.1403
 4191W        W20000  11.668   2.949  15.953 -0.1026  0.2430  0.2149
 4192W        W20001  10.044   5.583   0.988  0.0711  0.1214 -0.3370
 4193W        W20002  16.115   8.478   2.161  0.0502 -0.1533  0.2672
 4194W        W20003  14.370   5.432  14.098  0.0330  0.2122 -0.2548
 4195W        W20004  16.903  16.549   4.851  0.4222 -0.0874 -0.2185
 4196W        W20005   9.799  12.603   4.719 -0.0079 -0.0107 -0.2526
 4197W        W20006  11.242  13.384   0.029  0.1843 -0.0560 -0.1605
 4198W        W20007  10.098  13.343  14.578  0.1205 -0.1181  0.0602
 4199W        W20008  18.182  11.729   5.024  0.1899  0.2819  0.0954
 4200W        W20009  14.579  11.716  11.715  0.5088 -0.0102 -0.1189
 4201W        W20010   7.709  16.158   5.115 -0.1481  0.0481  0.2096
 4202W        W20011   1.239   0.932   2.254 -0.5589 -0.1769  0.0453
 4203W        W20012  16.430   4.992  15.996  0.0518 -0.1271 -0.1975
 4204W        W20013   6.729   4.900  12.179  0.0366 -0.2114 -0.0670
 4205W        W20014  13.313  11.339   3.925  0.1357 -0.0820  0.0837
 4206W        W20015   3.804  18.196  14.037  0.3045 -0.0066  0.1841
 4207W        W20016  14.062   1.209   6.235 -0.1685 -0.1531  0.0592
 4208W        W20017  12.591   4.907  10.978  0.4262  0.1150  0.0516
 4209W        W20018   8.517   5.636  16.199  0.1096  0.1014  0.3392
 4210W        W20019   6.122   9.154  11.852 -0.1649  0.0171 -0.0142
 4211W        W20020  13.028  17.610   1.172  0.2823 -0.2327 -0.1460
 4212W        W20021  12.680  17.718  11.140 -0.0100 -0.3583  0.1967
 4213W        W20022  14.225  16.239  13.715 -0.2735 -0.4277 -0.0312
 4214W        W20023  13.421   9.276  13.221 -0.1419  0.1107  0.0653
 4215W        W20024   4.278   9.606  11.408  0.1695  0.1490  0.2554
 4216W        W20025  10.582   9.282  13.122 -0.0914  0.3389 -0.0270
 4217W        W20026   2.652   8.948  15.980 -0.0287 -0.5193 -0.0354
 4218W        W20027   3.668   4.892  12.916  0.1027 -0.0713  0.0802
 4219W        W20028  14.136  16.656   2.542  0.1131 -0.0103  0.0506
 4220W        W20029   1.141  14.145  13.837 -0.3868 -0.2218  0.1524
 4221W        W20030  17.917   0.055   1.240  0.2439 -0.5074  0.1447
 4222W        W20031   9.851  12.775  13.466 -0.0710 -0.2365 -0.0390
 4223W        W20032  14.243  13.151  15.083 -0.3247 -0.3427 -0.0422
 4224W        W20033   6.607   6.662  15.967  0.2313  0.2122 -0.0020
 4225W        W20034   8.876   5.669   9.912  0.1292  0.1695 -0.1399
 4226W        W20035   7.996   8.286   2.725  0.1973  0.2978  0.1818
 4227W        W20036  13.146   9.756   3.120  0.0193 -0.0191  0.0407
 4228W        W20037   6.817  15.431   1.609  0.0421  0.0741 -0.2965
 4229W        W20038   8.106  12.544   0.662  0.1635 -0.1604 -0.1868
 4230W        W20039   8.188  12.140   3.403  0.2094 -0.1362  0.0748
 4231W        W20040   5.988   2.798  12.629  0.1342  0.1298  0.2642
 4232W        W20041  13.774   7.291  15.916  0.1190 -0.0609  0.1059
 4233W        W20042  10.958   8.930  10.561  0.1715 -0.3597  0.0430
 4234W        W20043  18.213  15.971   2.192 -0.1277  0.0046 -0.0813
 4235W        W20044   2.597   5.866  13.317  0.3160 -0.0401  0.3576
 4236W        W20045   6.552  17.972  13.053 -0.0043 -0.0442 -0.1000
 4237W        W20046   6.872   8.258  15.381 -0.0855  0.1163 -0.0623
 4238W        W20047  10.567   8.299  11.308  0.1290  0.0968  0.1780
 4239W        W20048   3.173  11.591   3.085  0.0693  0.2354 -0.1033
 4240W        W20049   4.521   6.307   1.437  0.1022 -0.0022  0.2775
 4241W        W20050   7.752   8.295   4.129  0.0071  0.1883  0.2476
 4242W        W20051  17.227   7.143  11.240 -0.1048  0.1437  0.0437
 4243W        W20052   8.271  11.646   1.820  0.0238  0.1247  0.1604
 4244W        W20053   1.811   5.340   3.154  0.1825 -0.3103 -0.4871
 4245W        W20054   8.514   7.424  15.541 -0.3652  0.0237  0.0327
 4246W        W20055   8.550  11.856  14.454  0.0195 -0.2466 -0.0492
 4247W        W20056  11.750  10.273   1.044  0.0123 -0.0738  0.1356
 4248W        W20057   5.516   2.547   0.940  0.1493  0.0130 -0.1488
 4249W        W20058   5.714   7.232   3.119  0.1312 -0.0913 -0.1927
 4250W        W20059  14.537  17.581  11.777 -0.1053  0.1209 -0.2674
 4251W        W20060   3.608  11.664  15.671  0.0501  0.0368 -0.5238
 4252W        W20061  15.573   5.882   0.671  0.0294  0.3127 -0.2063
 4253W        W20062   3.087  14.062  14.897  0.2235 -0.1117  0.4203
 4254W        W20063  12.873  16.083   6.278 -0.0749 -0.3897  0.1080
 4255W        W20064   6.576   5.214   2.751 -0.0447  0.1139 -0.3499
 4256W        W20065   2.759  16.063   0.579  0.1219 -0.1228  0.1749
 4257W        W20066  15.692   0.125  12.080 -0.4950 -0.0561  0.4008
 4258W        W20067   7.151  14.212   3.157  0.0573 -0.0171 -0.0960
 4259W        W20068   4.448   3.547  12.195 -0.4610  0.2214 -0.1957
 4260W        W20069   0.818  16.538  14.330  0.0161 -0.0678 -0.1886
 4261W        W20070  11.925   2.867  14.468  0.0869  0.1156  0.1070
 4262W        W20071   0.926  16.601  11.907  0.1845 -0.2255 -0.0972
 4263W        W20072  11.611  17.576  14.075  0.0698  0.0568  0.2774
 4264W        W20073  15.929   5.339   0.589 -0.1240  0.2568 -0.0681
 4265W        W20074   8.919  10.502   0.200  0.0927  0.1939  0.0242
 4266W        W20075  18.120   3.710   2.663  0.0806 -0.0353  0.1238
 4267W        W20076  14.186   3.333   5.245 -0.2462 -0.1129  0.0437
 4268W        W20077  17.236   8.500   4.080 -0.1296 -0.0210  0.1884
 4269W        W20078  17.684   3.983   3.378 -0.2435  0.2125  0.1831
 4270W        W20079  13.910   4.120   0.498 -0.4481  0.1124  0.0794
 4271W        W20080  10.192   8.844  11.787 -0.1058  0.4968 -0.1548
 4272W        W20081   9.988  13.843   1.148 -0.0089 -0.2757  0.1097
 4273W        W20082  11.724  17.804   2.838 -0.0224  0.0138  0.2261
 4274W        W20083   9.536  16.742   4.669 -0.0072 -0.0138  0.3829
 4275W        W20084   3.350   6.974   5.999 -0.0021 -0.0802 -0.4148
 4276W        W20085   4.166   2.297  13.724 -0.1177 -0.0813 -0.1429
 4277W        W20086   8.741   5.919   3.749  0.0956  0.1004  0.0254
 4278W        W20087   9.848   8.200   3.113  0.1860  0.0210  0.3053
 4279W        W20088  13.991   5.621   0.775  0.1057 -0.2691  0.0312
 4280W        W20089   4.072   4.276  11.780  0.1031  0.0869 -0.0715
 4281W        W20090  14.727  12.050   0.949  0.2130  0.0738  0.0372
 4282W        W20091   9.412  14.965  11.218 -0.4486  0.2408 -0.0473
 4283W        W20092  17.145  11.097  11.713  0.2998 -0.2026  0.0995
 4284W        W20093   6.029   2.188  15.626 -0.2617 -0.0816  0.0699
 4285W        W20094   0.146   3.195   2.170 -0.0585  0.0876 -0.2577
 4286W        W20095   9.271   6.442  14.716  0.2825  0.1663  0.0356
 4287W        W20096   2.080   0.658   5.689 -0.0523 -0.0308 -0.5554
 4288W        W20097  11.252   9.075  16.182 -0.2518  0.0130  0.0973
 4289W        W20098  17.599   5.357  14.588  0.2733  0.1176  0.2447
 4290W        W20099  14.490   6.684  15.841  0.0807  0.1146  0.1125
 4291W        W20100   2.179  15.488   0.981  0.0253 -0.0405 -0.3744
 4292W        W20101  15.601   4.994   2.191 -0.1075 -0.4011 -0.0187
 4293W        W20102   5.206   6.189  13.959  0.1578 -0.2039 -0.0996
 4294W        W20103   0.079  12.870  13.818 -0.2264 -0.0935  0.1281
 4295W        W20104  15.515   2.301   2.075 -0.0203 -0.0950  0.2170
 4296W        W20105  14.155  12.790   0.888 -0.0946  0.0194 -0.2814
 4297W        W20106   8.854  12.892  14.203 -0.3372  0.2709 -0.1362
 4298W        W20107  13.031   3.324  10.059 -0.0324 -0.0621 -0.1537
 4299W        W20108  11.108  11.261  12.129 -0.4463 -0.0971 -0.1813
 4300W        W20109   1.172  17.423  16.323  0.1230 -0.3479  0.1505
 4301W        W20110   8.959   7.120   4.638  0.0575  0.2162  0.1879
 4302W        W20111  13.138   2.300   4.852 -0.0455  0.1786  0.2532
 4303W        W20112  11.826  16.756  15.827  0.0559 -0.1369 -0.1468
 4304W        W20113   3.808  11.350   2.331  0.1479 -0.1169  0.1208
 4305W        W20114   2.580   1.402  10.722  0.0316  0.2504  0.0437
 4306W        W20115  17.727  14.950  14.913 -0.1668  0.0899 -0.3076
 4307W        W20116  13.030  15.261  15.667  0.1032 -0.2334 -0.0360
 4308W        W20117   3.435   9.530  11.662  0.1826  0.3566  0.3809
 4309W        W20118   2.593   5.025  13.239 -0.2161  0.0523 -0.1907
 4310W        W20119   7.790   5.036   4.213  0.1440 -0.1357  0.2245
 4311W        W20120  11.216  10.261   5.782  0.2292  0.1103 -0.2420
 4312W        W20121   1.101   9.008   1.607  0.2377 -0.0774  0.2760
 4313W        W20122  14.121  15.792  13.906  0.1792 -0.2144 -0.1501
 4314W        W20123  10.894   0.130   3.789 -0.1394  0.0121  0.0031
 4315W        W20124  11.396   3.871   0.706  0.2139 -0.1913  0.1561
 4316W        W20125  15.803   9.060  16.200  0.1453 -0.0943  0.0831
 4317W        W20126   5.480  12.557  12.901  0.0784  0.0161 -0.0487
 4318W        W20127  11.309  17.292  12.845  0.2319  0.2355  0.0681
 4319W        W20128   6.305   9.528  13.506 -0.1278 -0.0923 -0.2217
 4320W        W20129  15.245   7.091   5.183 -0.0968  0.0825 -0.1350
 4321W        W20130   2.285  13.612   1.224 -0.1046 -0.1310 -0.2242
 4322W        W20131   2.348   8.912  11.928 -0.2521  0.2000 -0.0689
 4323W        W20132   6.258  10.623  15.786 -0.1428 -0.2095 -0.1524
 4324W        W20133  14.133   0.841  10.916  0.1949  0.0347 -0.0238
 4325W        W20134   0.256  11.366   5.242  0.0279 -0.2153  0.2598
 4326W        W20135   0.515  15.625   3.636  0.1093  0.1088  0.0412
 4327W        W20136   7.182  17.524   3.997  0.0347 -0.0303 -0.1901
 4328W        W20137  10.092  10.351  15.005 -0.0751 -0.1626 -0.1370
 4329W        W20138  15.110   7.978   4.483 -0.2231 -0.1245 -0.3741
 4330W        W20139  12.898   7.029   3.220 -0.0572  0.1329 -0.0234
 4331W        W20140   5.178  10.029   4.361 -0.0056 -0.0797  0.0909
 4332W        W20141  10.860  14.012  14.831 -0.0999 -0.0904 -0.0250
 4333W        W20142   9.138   8.695  14.166  0.0621 -0.5839 -0.0215
 4334W        W20143  10.352  11.753   2.468 -0.1952 -0.1478 -0.1153
 4335W        W20144  11.078  10.776   5.029 -0.1998 -0.0528 -0.0141
 4336W        W20145   6.044  14.722  12.085  0.1332  0.0352 -0.2262
 4337W        W20146   9.739  15.896   5.363 -0.3156  0.0230  0.0158
 4338W        W20147   9.442  15.023   2.424 -0.1582  0.2735  0.2119
 4339W        W20148  10.589  16.092   3.386 -0.0186  0.0121  0.1258
 4340W        W20149   5.009  16.359   2.091 -0.0880 -0.0568 -0.1561
 4341W        W20150   8.465  14.605  14.801  0.0230  0.4140 -0.1472
 4342W        W20151   1.944   3.056   4.034  0.1383  0.1767 -0.3206
 4343W        W20152   8.983   5.185  12.538 -0.0020  0.0680  0.2550
 4344W        W20153   5.469   7.484   1.988 -0.1656  0.1896 -0.1882
 4345W        W20154   4.550   5.824  14.743 -0.0886  0.0204  0.1239
 4346W        W20155  17.143   3.769   6.256 -0.0410  0.2546  0.0818
 4347W        W20156   2.867   3.322   6.408  0.1408  0.0812 -0.2416
 4348W        W20157   4.397  14.701   3.427 -0.0192 -0.0246  0.0622
 4349W        W20158   6.330   9.014   2.055 -0.3341  0.0551 -0.1365
 4350W        W20159   6.182  13.845   1.685  0.1252 -0.2649  0.1725
 4351W        W20160  13.423  12.630  11.265  0.2154  0.1602  0.2125
 4352W        W20161   9.532  13.707   4.775  0.2283  0.3689  0.0935
 4353W        W20162  10.002   8.717  14.764  0.0083 -0.3045  0.6135
 4354W        W20163   0.891  12.348  13.952 -0.1310  0.2053  0.1883
 4355W        W20164  13.046  15.735   0.842  0.1642 -0.1580 -0.0611
 4356W        W20165  11.520   1.599  11.287  0.0511 -0.2046 -0.2968
 4357W        W20166  11.824  15.853   1.979 -0.1236  0.2532  0.1442
 4358W        W20167   9.436   2.605   1.127 -0.2080 -0.0661  0.2960
 4359W        W20168  13.591  14.760   0.797  0.1691 -0.1888  0.0061
 4360W        W20169  10.206   4.711   1.396 -0.3849 -0.2844 -0.3684
 4361W        W20170   2.036   7.601  13.263  0.1940 -0.0427 -0.2355
 4362W        W20171   4.327  14.352   0.437  0.0822 -0.0439 -0.1309
 4363W        W20172  15.178   5.243   5.314  0.1767  0.0047 -0.1060
 4364W        W20173  15.713  10.227   2.660  0.1486  0.0463  0.1081
 4365W        W20174   9.988   4.053   2.867  0.2799 -0.0952  0.0639
 4366W        W20175  17.566  16.053  13.175 -0.2813  0.0280 -0.3141
 4367W        W20176  11.152   5.224  16.010 -0.0530  0.0535 -0.5384
 4368W        W20177   6.784   0.309   1.404  0.0177  0.0046  0.1351
 4369W        W20178   8.759  12.186  12.915  0.0530  0.1708  0.4388
 4370W        W20179   5.922  17.678  11.490 -0.1237  0.0430 -0.0965
 4371W        W20180   1.240  16.916   5.373 -0.1899 -0.0045 -0.2378
 4372W        W20181   3.103  13.491   1.987  0.2700 -0.0542  0.0832
 4373W        W20182  14.886  15.766  13.030 -0.0367  0.0466 -0.0962
 4374W        W20183  11.300   1.120   3.642  0.0551  0.0349 -0.1456
 4375W        W20184   6.327   5.723  14.733  0.1309 -0.1143 -0.2665
 4376W        W20185   8.264   8.404  14.773 -0.0429  0.0543  0.2271
 4377W        W20186  12.809   7.369  15.695 -0.5516 -0.2450  0.0822
 4378W        W20187   2.809   0.986  14.288  0.3494 -0.0129 -0.0805
 4379W        W20188  11.811  16.716   5.550 -0.1790 -0.2292  0.1030
 4380W        W20189  16.274  14.787  13.679  0.1500  0.0407 -0.2050
 4381W        W20190  11.055   3.582   4.360 -0.0141  0.1493 -0.3804
 4382W        W20191   8.125  10.788  15.961 -0.0216 -0.1334  0.1668
 4383W        W20192  14.830   3.812   2.597  0.0951 -0.1413 -0.2385
 4384W        W20193   8.332   1.557   2.566 -0.0749 -0.2203 -0.1624
 4385W        W20194   0.383  15.000  14.694  0.3939 -0.1160 -0.0945
 4386W        W20195   4.093  10.994  13.712 -0.1348  0.0352 -0.1365
 4387W        W20196   5.469  11.075   1.478 -0.0695  0.0535  0.1159
 4388W        W20197  15.355  11.427   3.069  0.1322 -0.2633  0.0430
 4389W        W20198  13.012  10.643  15.408 -0.4162  0.2654 -0.0105
 4390W        W20199   1.464   4.651   6.012  0.0053 -0.1109  0.0240
 4391W        W20200  11.448   2.101  14.462  0.1054  0.1083  0.2193
 4392W        W20201   1.940  11.158   0.458  0.6211 -0.1409 -0.0454
 4393W        W20202  15.577   3.611  12.228  0.4225  0.0636  0.0796
 4394W        W20203   4.992  11.392   3.971 -0.0682 -0.2102 -0.1354
 4395W        W20204   0.863   0.542  11.118  0.1443  0.1844 -0.1405
 4396W        W20205  13.561  16.842  14.727  0.1112 -0.1157  0.2356
 4397W        W20206   1.135  10.998   0.768 -0.1098 -0.3758  0.0442
 4398W        W20207  13.364   2.779  13.554 -0.0593 -0.0156  0.4810
 4399W        W20208  13.738   3.269  11.351 -0.0253 -0.0326 -0.1324
 4400W        W20209  15.343  11.353   2.614  0.1896 -0.1617  0.4526
 4401W        W20210  17.526  11.237  13.642  0.2997  0.2096 -0.1370
 4402W        W20211   9.628   1.213   1.472 -0.1382  0.0105 -0.5535
 4403W        W20212   5.687   7.938   5.496 -0.0656  0.0236  0.2762
 4404W        W20213   0.566   9.820   1.810  0.2197 -0.0630  0.1782
 4405W        W20214   9.327   9.631   5.304 -0.0357  0.2539  0.0243
 4406W        W20215   1.143  10.449   4.182 -0.0107  0.2222  0.0093
 4407W        W20216   5.100   2.313  16.141 -0.1071  0.1632 -0.0352
 4408W        W20217   0.631   0.074  14.415 -0.0264  0.3042 -0.1521
 4409W        W20218  11.718  11.708  14.145  0.2409  0.1329  0.3298
 4410W        W20219   5.666   4.489   1.855  0.0456  0.2814  0.0408
 4411W        W20220  12.913  10.697   1.605 -0.0565  0.0824  0.2330
 4412W        W20221  15.737   1.172  12.381  0.2445 -0.0223  0.0782
 4413W        W20222  15.736  13.785   5.039 -0.3080 -0.0703 -0.0992
 4414W        W20223   1.118   4.997   2.535  0.4013  0.0746  0.2961
 4415W        W20224   0.530  13.461  15.795 -0.1823 -0.0215  0.0424
 4416W        W20225   7.627   8.247  10.456 -0.1149 -0.1979  0.1130
 4417W        W20226  14.484   3.534  14.094 -0.1085 -0.2869 -0.2542
 4418W        W20227   7.829   5.184   0.798  0.3889 -0.0753  0.3324
 4419W        W20228   6.022   2.207   4.304 -0.2155 -0.4191  0.2305
 4420W        W20229   2.395   7.247  11.272  0.0956 -0.2999  0.3303
 4421W        W20230  15.990   8.866   4.539 -0.0159  0.1263  0.0894
 4422W        W20231  17.641  14.966  12.679 -0.1836  0.0994 -0.3296
 4423W        W20232   9.193  13.243  12.070  0.0933 -0.0523 -0.0507
 4424W        W20233   4.302   0.326   0.184 -0.1493 -0.0502 -0.0653
 4425W        W20234   4.486  14.542   1.765 -0.2638 -0.1800  0.0678
 4426W        W20235   4.650  13.906  11.606  0.1249  0.2211  0.2377
 4427W        W20236   7.741  17.670  12.113  0.1486  0.0170  0.2708
 4428W        W20237   9.875   5.992  11.946 -0.2035 -0.0007 -0.1360
 4429W        W20238  13.372   3.760   3.732 -0.3754 -0.1483 -0.0334
 4430W        W20239   6.580   3.543  14.308  0.2070  0.2580 -0.0133
 4431W        W20240  13.891   2.522  13.114 -0.0834  0.0995 -0.1723
 4432W        W20241   8.124   4.352   3.349 -0.0105 -0.0392 -0.3669
 4433W        W20242   2.665   1.828   0.759 -0.1535 -0.2234 -0.3735
 4434W        W20243  14.601   8.584   3.893  0.0140 -0.0463 -0.0701
 4435W        W20244  18.168   6.358   2.620  0.2649  0.1586 -0.4070
 4436W        W20245   2.903   1.573  11.769  0.1052  0.0270 -0.0418
 4437W        W20246   5.849   4.413  13.495  0.3068 -0.0300 -0.1015
 4438W        W20247   9.179   6.873   0.135  0.0971  0.0916 -0.1736
 4439W        W20248  16.351  12.046   3.769  0.0099  0.1575 -0.0518
 4440W        W20249  14.298   3.694   1.058  0.0292  0.1463 -0.1017
 4441W        W20250  16.202   0.037   0.558  0.2238  0.0010  0.1323
 4442W        W20251   2.838  17.156   3.745 -0.1526 -0.4059 -0.0396
 4443W        W20252  16.155   5.992  15.362 -0.0211 -0.0510  0.2513
 4444W        W20253  15.305  15.551  14.773  0.0108 -0.0038  0.1794
 4445W        W20254  11.748   6.908   3.165 -0.1664 -0.2110  0.1648
 4446W        W20255   4.194   2.813   2.662 -0.3049  0.1423 -0.0161
 4447W        W20256   3.450  10.245   0.129 -0.1151 -0.0528  0.4056
 4448W        W20257  17.910   9.443  15.378 -0.0650 -0.2174 -0.2408
 4449W        W20258   4.357  17.088   0.320 -0.1620  0.2224  0.1644
 4450W        W20259  10.006  13.227   0.272  0.3089  0.0019  0.0393
 4451W        W20260   1.528   5.648  13.915  0.1411  0.2405  0.2885
 4452W        W20261   8.314  18.106  14.395  0.2543 -0.0476 -0.0350
 4453W        W20262  12.195  17.369   4.912 -0.1011 -0.0348 -0.0135
 4454W        W20263   4.889  10.967  13.949  0.1978 -0.0176 -0.1281
 4455W        W20264   8.714   3.007  14.225 -0.0154 -0.2760  0.1802
 4456W        W20265   7.187  12.285   1.335  0.0308 -0.0471 -0.2971
 4457W        W20266   3.503  11.164   5.041 -0.1268  0.3565  0.0538
 4458W        W20267   1.144   6.510  15.407 -0.0690  0.1222  0.1407
 4459W        W20268  16.316  11.360  10.373 -0.1009  0.0158 -0.1157
 4460W        W20269   8.319   7.709  10.840  0.1283  0.2634 -0.1011
 4461W        W20270   4.221  14.989  13.525  0.0061  0.0793 -0.2057
 4462W        W20271   1.520  11.244  15.532  0.3778  0.3140 -0.0965
 4463W        W20272  10.543  15.910   0.109  0.0358  0.2167  0.1063
 4464W        W20273  17.687   0.437   0.003 -0.1331  0.2361 -0.2456
 4465W        W20274   3.504   8.404   2.062 -0.1021 -0.1801  0.2370
 4466W        W20275  10.253   3.067   3.782 -0.0980 -0.0961 -0.1021
 4467W        W20276   1.581  11.761  13.894  0.0528  0.1233  0.0519
 4468W        W20277  14.651   2.315   1.624  0.3160  0.0117  0.5342
 4469W        W20278  15.163   5.088  12.058 -0.0245 -0.1474 -0.0350
 4470W        W20279   6.942  13.978  11.853  0.0653  0.1854  0.2898
 4471W        W20280  17.940   3.524   0.486 -0.0276  0.2128 -0.2707
 4472W        W20281   8.654  14.836  10.982  0.0133  0.2813 -0.1509
 4473W        W20282   5.162  12.217  13.916  0.0801 -0.0790  0.0435
 4474W        W20283   7.737   0.855   1.774 -0.1074  0.1384  0.2454
 4475W        W20284  12.214   7.751  11.504 -0.1848  0.1191 -0.2164
 4476W        W20285   0.380   6.116   4.184  0.0394 -0.5181 -0.0437
 4477W        W20286   8.468   6.536  16.336 -0.4307 -0.1402  0.2456
 4478W        W20287   1.266   9.916  13.733  0.1554  0.2007 -0.1247
 4479W        W20288  13.302   0.754  13.356 -0.1849 -0.5472 -0.0622
 4480W        W20289   8.726   8.306   4.227 -0.1603 -0.1954  0.0329
 4481W        W20290  10.393  10.064   0.341  0.1434 -0.2456 -0.0164
 4482W        W20291   8.454  17.249   4.382 -0.2288  0.0952 -0.1939
 4483W        W20292   6.711  16.164  12.150  0.0632 -0.0719  0.0150
 4484W        W20293   9.974   2.760  11.548  0.1952  0.2614 -0.4868
 4485W        W20294   5.702  12.965  14.195  0.1865  0.1027 -0.0435
 4486W        W20295  12.723   5.690   2.089  0.2438 -0.3246  0.4184
 4487W        W20296  16.539  17.024   4.620  0.0863 -0.3983 -0.0178
 4488W        W20297   1.201  13.893  15.155 -0.3297 -0.0859  0.1139
 4489W        W20298   7.732   7.461  14.328  0.1202  0.1880  0.1371
 4490W        W20299  17.568   9.353  16.224 -0.1293  0.1176  0.2732
 4491W        W20300   9.458  13.131   0.507  0.1108 -0.1285  0.1096
 4492W        W20301  10.624   7.279  15.385  0.2972  0.0491 -0.0902
 4493W        W20302   1.033   4.993   3.043 -0.2888 -0.0430  0.2247
 4494W        W20303   4.180   6.158   1.861  0.2213 -0.1231 -0.1028
 4495W        W20304  11.684   8.654   1.212  0.0571 -0.0297  0.1053
 4496W        W20305   7.285  14.464   3.722  0.0957  0.1464 -0.1875
 4497W        W20306  15.044   8.542  15.959 -0.1456  0.0083 -0.3931
 4498W        W20307  16.720  16.907   4.057 -0.1408 -0.1163  0.0498
 4499W        W20308   7.557  16.537   2.951 -0.1967  0.2413 -0.0772
 4500W        W20309   6.235   7.785  16.293  0.0873 -0.1229 -0.2074
 4501W        W20310  14.616  14.413  11.689  0.0249  0.0253  0.0436
 4502W        W20311  17.746   8.600  11.275  0.0688 -0.0110  0.0364
 4503W        W20312   5.602   9.073   1.962  0.1315 -0.0553 -0.3420
 4504W        W20313   6.745  17.225  12.680 -0.0860  0.2148 -0.0226
 4505W        W20314   7.857   9.899   2.564 -0.1238  0.1820  0.3518
 4506W        W20315  17.392  12.444   4.788 -0.1639  0.1029  0.1998
 4507W        W20316   1.006   3.202   4.368 -0.1158 -0.0728 -0.3595
 4508W        W20317   7.233  13.953  12.333  0.0174  0.3018  0.1125
 4509W        W20318  13.481   0.777  12.028 -0.0507  0.2121 -0.0487
 4510W        W20319   4.849  13.276  12.291 -0.2906  0.3265  0.4278
 4511W        W20320   2.064   2.070   0.669  0.1883 -0.1552  0.0412
 4512W        W20321   3.256   7.651   2.771  0.2297  0.4699 -0.1359
 4513W        W20322  10.051  13.452   1.640 -0.2708  0.1496  0.1868
 4514W        W20323  16.650  12.789  12.346 -0.1097 -0.3613  0.0373
 4515W        W20324  14.247  16.458   0.231  0.0347  0.2074 -0.0973
 4516W        W20325  12.261   6.219   1.192 -0.4073 -0.0087  0.2481
 4517W        W20326   6.137  15.442   3.049  0.0480 -0.0493 -0.0634
 4518W        W20327  10.311  16.028  15.950  0.1662  0.0439  0.3376
 4519W        W20328  10.619   3.900   2.004 -0.0731 -0.2020  0.1982
 4520W        W20329   5.521   1.666   0.448  0.0761 -0.1559  0.1728
 4521W        W20330   9.980  14.353  12.374 -0.0278 -0.3114  0.2359
 4522W        W20331   9.379  11.576  15.689 -0.1078  0.1960  0.0747
 4523W        W20332  14.379   0.401  11.688 -0.2515  0.1605  0.1875
 4524W        W20333   0.653   2.184  14.399 -0.2923 -0.1688 -0.0956
 4525W        W20334   2.936   9.545   4.168 -0.1942  0.1084  0.0184
 4526W        W20335  13.345  13.545  15.443  0.0326  0.1416 -0.0348
 4527W        W20336   9.110  14.266  14.075 -0.0663  0.0026  0.0009
 4528W        W20337   6.776  15.106  16.353  0.0451  0.1966  0.1593
 4529W        W20338   3.837   6.372  16.013 -0.0656  0.0727  0.1864
 4530W        W20339   5.042  15.134  14.933 -0.0488 -0.2338  0.0539
 4531W        W20340  12.689   9.314   3.919  0.0495 -0.0347  0.3585
 4532W        W20341  10.825   4.009   1.574 -0.1329 -0.1766 -0.1907
 4533W        W20342  14.409  11.163   3.489  0.0457  0.1530 -0.1674
 4534W        W20343   7.609   0.229   4.839  0.0357  0.2280  0.0925
 4535W        W20344   0.469  16.000   4.812 -0.1139 -0.0465 -0.0074
 4536W        W20345   4.209   8.134   3.108 -0.4719  0.0858  0.1306
 4537W        W20346   6.909   6.530  14.126 -0.0761 -0.1089  0.0324
 4538W        W20347   6.933  13.273  15.465 -0.1540  0.2668  0.1701
 4539W        W20348   1.107   1.429  15.095  0.1844 -0.1548  0.1111
 4540W        W20349  10.130   0.677  12.939 -0.2411 -0.0011 -0.0771
 4541W        W20350   5.987  13.975  12.370 -0.1181 -0.0759 -0.0688
 4542W        W20351  12.890  16.600  12.851  0.1477  0.0252 -0.0894
 4543W        W20352   5.807  15.882  14.046  0.1393  0.4755  0.0834
 4544W        W20353   5.363  11.179  13.654 -0.1592 -0.1414  0.0167
 4545W        W20354  14.446   4.089   0.356 -0.0301 -0.2716 -0.0091
 4546W        W20355  14.362   4.152  14.574 -0.1435 -0.0076 -0.0051
 4547W        W20356  16.252  11.775  16.355  0.0903  0.3809 -0.0595
 4548W        W20357   0.968  12.461   3.263 -0.0745  0.1562 -0.0049
 4549W        W20358   6.410   5.467   0.868 -0.1260 -0.0730 -0.1273
 4550W        W20359  12.538  16.647  12.493  0.2424 -0.0868 -0.2764
 4551W        W20360   3.928  11.689   2.610  0.1400  0.0525 -0.0286
 4552W        W20361  12.391   0.485  15.110 -0.3559 -0.3158  0.0790
 4553W        W20362  14.416   4.038   5.283  0.0203 -0.0678 -0.1466
 4554W        W20363   3.910   1.120  16.342  0.0842 -0.2032  0.0906
 4555W        W20364   6.963   1.505  13.750 -0.0191 -0.1607 -0.0487
 4556W        W20365   9.999   8.802   4.260 -0.3048  0.2274 -0.0914
 4557W        W20366  15.496   1.838  12.773  0.1011  0.0280 -0.0925
 4558W        W20367   3.505   1.304   2.964 -0.1581  0.0471  0.1424
 4559W        W20368   6.961  15.494   3.474  0.0047 -0.1889  0.0354
 4560W        W20369  11.453  14.866  12.619 -0.2691 -0.0679 -0.3875
 4561W        W20370   7.074   4.943   1.276 -0.0252  0.0619  0.1323
 4562W        W20371   3.481  17.890  12.992 -0.2942  0.0604 -0.1363
 4563W        W20372  12.608  14.602  16.290 -0.0892 -0.4877  0.1659
 4564W        W20373   3.329   2.551  14.441  0.0169 -0.0249 -0.3595
 4565W        W20374  15.240   6.010  15.811 -0.1840  0.2326 -0.2181
 4566W        W20375   0.535   8.929  13.479  0.2143 -0.0923  0.0722
 4567W        W20376  11.494   9.220  12.818  0.0771 -0.0520  0.1351
 4568W        W20377   0.368  15.343   3.211  0.2118  0.1513  0.1059
 4569W        W20378  10.257   3.454  13.612 -0.1028 -0.2129  0.3983
 4570W        W20379  12.512   6.131  14.154 -0.0272 -0.1330 -0.2293
 4571W        W20380   7.986   4.001  14.906 -0.0826 -0.2628 -0.0986
 4572W        W20381  11.607  14.206   5.261 -0.0125 -0.0697  0.1614
 4573W        W20382  13.354  10.331  14.135 -0.0208 -0.2659 -0.1337
 4574W        W20383  10.828   6.882  13.781  0.3093 -0.2310  0.0949
 4575W        W20384  13.033   4.899  12.053 -0.0909 -0.0278  0.0341
 4576W        W20385   9.749  13.287   1.930 -0.2265  0.0140 -0.4224
 4577W        W20386  15.364  16.703  11.659 -0.0753  0.1610 -0.0412
 4578W        W20387   2.717   6.439  12.030 -0.3110  0.0190  0.1856
 4579W        W20388  11.878   6.464  11.755 -0.3384 -0.1925 -0.1274
 4580W        W20389  12.610   9.423   2.980 -0.0060 -0.2494 -0.0292
 4581W        W20390  12.281  12.275   2.921 -0.2704 -0.0256  0.0657
 4582W        W20391   4.260   6.958  12.955  0.2369 -0.1990  0.2945
 4583W        W20392   4.480  11.080   1.533  0.0392  0.1612  0.0664
 4584W        W20393  16.889   7.034   3.474 -0.0522 -0.1848 -0.2950
 4585W        W20394  13.418   0.343   0.524 -0.0152 -0.0257  0.0271
 4586W        W20395  11.641   0.199   3.664  0.3114  0.1199 -0.1999
 4587W        W20396   8.306  10.946  14.139 -0.1919 -0.1387  0.1784
 4588W        W20397  16.534   6.804   2.639  0.0536 -0.1713  0.0136
 4589W        W20398  13.144  12.021  16.144  0.2730  0.1517 -0.0713
 4590W        W20399  16.234   5.541   5.562  0.1267  0.0474  0.2084
 4591W        W20400  14.217  16.157   0.672 -0.2305 -0.0488  0.0436
 4592W        W20401  13.503   6.509  14.297 -0.0486 -0.0783  0.3417
 4593W        W20402   5.092  14.192  13.977 -0.0951  0.0123  0.1223
 4594W        W20403  16.928  13.268  13.010  0.1252 -0.4171 -0.3288
 4595W        W20404   3.650  17.532   0.005  0.1501  0.0020  0.0767
 4596W        W20405   2.620   9.998   0.574  0.1109 -0.0027  0.0163
 4597W        W20406   2.370  10.758  15.379  0.3632  0.0919 -0.1647
 4598W        W20407  17.160   4.483  12.254 -0.0349  0.1908  0.0196
 4599W        W20408  14.134   4.127   2.201 -0.0780 -0.0304 -0.0511
 4600W        W20409  11.848   6.594   4.098 -0.0282 -0.0955  0.3247
 4601W        W20410  18.189   2.075   5.898 -0.0960 -0.0719  0.2225
 4602W        W20411   2.827  13.378  11.596  0.2363  0.3497  0.2194
 4603W        W20412   5.131  10.911   2.838  0.1307  0.0143  0.2574
 4604W        W20413   1.850   1.458  13.923  0.1951 -0.1276 -0.1534
 4605W        W20414  12.065  10.409   2.114 -0.0723  0.0990  0.1177
 4606W        W20415   2.982  14.694   4.167  0.2221  0.3444 -0.1879
 4607W        W20416   0.151   9.865  11.441 -0.1086 -0.0574  0.0963
 4608W        W20417   4.481  11.528  15.451  0.4126 -0.0180 -0.3176
 4609W        W20418   9.228  17.908   1.959  0.0068  0.5052  0.0541
 4610W        W20419   0.579  14.095   2.435  0.1107  0.3779  0.3537
 4611W        W20420   5.350   6.959  13.712  0.0774  0.0732 -0.0016
 4612W        W20421  15.113  14.676  14.905 -0.1944 -0.0968 -0.2044
 4613W        W20422  11.350  12.866  15.700 -0.1342 -0.1803 -0.0535
 4614W        W20423  10.537   9.601  15.950 -0.4068 -0.0868  0.1876
 4615W        W20424   7.243   2.478  14.608 -0.1731  0.3338 -0.3531
 4616W        W20425  14.659  18.208  15.399  0.0268 -0.1037 -0.2514
 4617W        W20426  18.117   8.736   3.952  0.0850 -0.0824  0.0108
 4618W        W20427   7.649  15.570   2.995 -0.0745 -0.4868 -0.0728
 4619W        W20428   9.276   2.791  11.096  0.2189 -0.0317 -0.0358
 4620W        W20429   4.061   2.755   3.511  0.0288  0.2593 -0.2365
 4621W        W20430   2.779   2.602  16.115  0.0945 -0.2689  0.0541
 4622W        W20431   6.198   4.089   5.788 -0.0718 -0.1385 -0.1660
 4623W        W20432  10.001  14.816  13.319  0.0818  0.1953  0.0443
 4624W        W20433   1.583   3.145  14.300  0.1612  0.5240  0.0240
 4625W        W20434   1.339  13.327  13.492  0.0474 -0.0125  0.3303
 4626W        W20435  17.035  15.323   3.071  0.1751 -0.1822 -0.3365
 4627W        W20436   9.361  17.109  12.120 -0.0860  0.0513  0.0077
 4628W        W20437   6.579   4.411   0.703 -0.2654  0.0441  0.1447
 4629W        W20438  11.183   1.736  12.255 -0.0803 -0.0746 -0.1393
 4630W        W20439  17.244   6.808   2.611 -0.1921  0.1541 -0.1702
 4631W        W20440   1.632  11.693  15.423 -0.0569  0.2021  0.0053
 4632W        W20441   8.729  10.246  13.477 -0.2549  0.2395 -0.2442
 4633W        W20442  15.274   6.864  13.568  0.3611 -0.2522 -0.1330
 4634W        W20443  13.813   7.403   0.880  0.0162 -0.0164  0.0416
 4635W        W20444  13.038   0.412  16.359 -0.0692  0.0695 -0.0088
 4636W        W20445   3.639  16.982  16.214 -0.0438 -0.1017  0.1688
 4637W        W20446   0.385  12.662   0.633  0.0146 -0.2466  0.1686
 4638W        W20447   5.943   8.483  15.347 -0.1240 -0.4081  0.0610
 4639W        W20448  12.411  16.253   5.478  0.2058  0.1979 -0.0600
 4640W        W20449   2.557  14.147   3.412 -0.1564 -0.1162 -0.0003
 4641W        W20450  16.698   3.236   0.988  0.0646 -0.0370 -0.2223
 4642W        W20451   2.358  17.952  13.932 -0.3615 -0.1590  0.0839
 4643W        W20452  16.396   2.435   2.149 -0.0155  0.0965  0.0350
 4644W        W20453   2.361  11.059   4.137  0.2835  0.1319  0.1262
 4645W        W20454  12.261   4.989   3.941 -0.0403 -0.2961 -0.1464
 4646W        W20455  12.075  13.188   1.003  0.2432  0.0726 -0.1329
 4647W        W20456   0.210  11.897   4.517  0.1988 -0.2294  0.1703
 4648W        W20457   7.686   2.117  14.433  0.0035  0.1409  0.0252
 4649W        W20458  18.158   2.409  12.477 -0.2412  0.2066 -0.1523
 4650W        W20459  18.000   6.062  14.680  0.0120  0.0918  0.1463
 4651W        W20460  12.655  17.320   0.048 -0.1286 -0.3107 -0.1406
 4652W        W20461   6.369  13.782  13.282  0.0189 -0.3279  0.2992
 4653W        W20462  15.942   3.201  14.964 -0.0647 -0.3534  0.2166
 4654W        W20463   0.560   7.223  12.891 -0.2389  0.0601  0.0664
 4655W        W20464  13.115  12.756   4.848 -0.0259  0.1130 -0.2855
 4656W        W20465   9.658  12.153  15.027  0.4166 -0.0330 -0.2084
 4657W        W20466   3.893  15.952   6.024 -0.2281 -0.0442 -0.0499
 4658W        W20467  14.764  11.701  16.310  0.0233  0.1327  0.0063
 4659W        W20468  12.183   9.411   0.217 -0.0461  0.3276  0.0168
 4660W        W20469   4.960   2.482   0.241 -0.2432 -0.0657 -0.1406
 4661W        W20470   8.994   3.644  11.485  0.0198  0.0380 -0.0290
 4662W        W20471  16.619   0.765   1.186 -0.1621 -0.0254  0.0830
 4663W        W20472  16.105  15.523  15.840 -0.0509 -0.0545  0.1462
 4664W        W20473   4.556  13.219   4.583 -0.0733 -0.1215 -0.0788
 4665W        W20474  11.249  17.806  12.907 -0.2444 -0.0472 -0.0913
 4666W        W20475   6.083   3.749  12.850 -0.2957 -0.1122  0.0677
 4667W        W20476   7.679  17.633  15.526 -0.1343  0.1882 -0.2137
 4668W        W20477  17.824  17.896   3.699 -0.1121 -0.0806  0.0892
 4669W        W20478  12.541  17.033   3.114  0.2921 -0.3154 -0.1076
 4670W        W20479  15.956   6.165   6.487 -0.2244 -0.2130 -0.0407
 4671W        W20480  13.802  10.587   5.302  0.0624  0.1497 -0.0538
 4672W        W20481   9.005  13.881   4.850 -0.0983 -0.0737  0.0010
 4673W        W20482   4.879  17.867  15.123 -0.1185 -0.0969  0.0933
 4674W        W20483  14.738  16.939  13.575  0.0255  0.1018  0.0405
 4675W        W20484  17.394  14.190   5.327  0.0223  0.1060  0.0970
 4676W        W20485   6.688  12.896   3.944  0.0473 -0.0899  0.0468
 4677W        W20486  15.129  12.184  14.404 -0.2425  0.3058  0.0487
 4678W        W20487  16.139  17.971  12.046  0.0740  0.2269  0.0853
 4679W        W20488  12.207  10.678   2.965  0.1427 -0.0945 -0.1026
 4680W        W20489   9.324   6.786   4.570 -0.0451  0.1861 -0.0244
 4681W        W20490   1.151   3.196  12.081  0.3611 -0.1309  0.2236
 4682W        W20491  15.001  16.036  14.328 -0.0082 -0.0421 -0.2810
 4683W        W20492  14.200   1.538  12.448  0.0587  0.4343 -0.1120
 4684W        W20493  10.305  12.589   3.064  0.2303  0.0828 -0.0023
 4685W        W20494   0.550   5.309  12.951 -0.4110  0.4112 -0.1916
 4686W        W20495  12.171  13.203   3.243  0.3325  0.0303  0.2734
 4687W        W20496   5.220   2.793   5.283  0.1924  0.0244  0.0170
 4688W        W20497  10.190  14.476   4.197 -0.3243 -0.2964 -0.1533
 4689W        W20498  13.522  11.756   3.630  0.0510 -0.2446 -0.1228
 4690W        W20499  10.882  16.360  14.280  0.1324  0.0258  0.0372
 4691W        W20500  11.541   5.180   1.375  0.4484 -0.0232  0.0745
 4692W        W20501   7.699  14.989   6.288  0.0540  0.0511  0.3894
 4693W        W20502  14.181  16.719   2.054 -0.0974 -0.4775  0.0419
 4694W        W20503  11.185  17.241  11.408  0.2042  0.1947  0.1458
 4695W        W20504   0.710  14.040  13.429  0.1040 -0.2156 -0.1720
 4696W        W20505   3.571   3.078   4.980 -0.0013  0.0205 -0.4323
 4697W        W20506   2.976  11.649  11.796 -0.0567  0.1781  0.0507
 4698W        W20507  14.330   1.633  13.267 -0.1121 -0.1143 -0.2238
 4699W        W20508   2.841  17.824   5.375  0.2116 -0.0203 -0.2436
 4700W        W20509  14.566  12.493  12.140 -0.2333 -0.0269 -0.0654
 4701W        W20510   7.840   1.163   5.769 -0.0591 -0.2085  0.1504
 4702W        W20511  16.812  11.096   2.918 -0.1933 -0.0333 -0.0243
 4703W        W20512  11.942  12.809   2.215  0.3587  0.1100 -0.0749
 4704W        W20513  11.512  16.259  16.204 -0.1605  0.2236  0.2501
 4705W        W20514   7.481  15.153   2.612  0.0613 -0.2819 -0.3204
 4706W        W20515  13.563   1.275  12.068  0.2015  0.1161 -0.3773
 4707W        W20516   4.947   5.158   4.264 -0.0038  0.2724  0.0999
 4708W        W20517   8.788  16.497  11.875 -0.1370 -0.1878 -0.0702
 4709W        W20518  16.068   4.215   2.846  0.0298  0.2083  0.0265
 4710W        W20519   2.841  15.215  11.972  0.0633  0.0226 -0.0032
 4711W        W20520  13.346  15.530   2.934  0.3181  0.2221  0.3108
 4712W        W20521   8.838   9.878  14.865 -0.1245 -0.1218 -0.1055
 4713W        W20522  10.770   9.069  15.734 -0.1487 -0.1336 -0.2810
 4714W        W20523  15.611  16.472   4.760  0.2858  0.0841  0.1336
 4715W        W20524  15.310   1.510   3.297  0.2559  0.0603  0.2159
 4716W        W20525   3.000  14.365   3.276 -0.0015  0.1026 -0.0321
 4717W        W20526   9.797   9.330   4.351 -0.0981 -0.1238  0.1043
 4718W        W20527   3.431   7.542   2.196  0.0373 -0.1096  0.2482
 4719W        W20528  13.620   8.268   1.158 -0.2800  0.3520  0.2589
 4720W        W20529  10.045   6.902   4.056  0.1974 -0.1398 -0.1633
 4721W        W20530  12.356  10.134   3.192 -0.1408 -0.0015  0.0500
 4722W        W20531   0.162  12.269  15.815  0.3188 -0.0725 -0.0314
 4723W        W20532   8.106  13.382  12.481  0.1266 -0.1715 -0.0003
 4724W        W20533  12.569   7.202  16.127 -0.0757  0.0559  0.0216
 4725W        W20534   3.098  16.148  13.991  0.4194 -0.1336  0.0290
 4726W        W20535   7.365  12.860  14.674 -0.1674  0.1434 -0.0237
 4727W        W20536  10.623   0.765   3.386 -0.2637  0.5723 -0.1229
 4728W        W20537   8.906  15.255  15.169 -0.0838 -0.0854 -0.1874
 4729W        W20538   2.386   3.929  13.573 -0.0742 -0.1325 -0.0007
 4730W        W20539  14.393   9.393  15.688  0.0014 -0.0780  0.0798
 4731W        W20540   3.113  14.872   3.101  0.1461  0.0197  0.0113
 4732W        W20541   4.535  11.949   1.984  0.0816 -0.1421 -0.1695
 4733W        W20542   0.432  11.755  10.163  0.0402 -0.1297 -0.0203
 4734W        W20543  18.109   0.767  13.734 -0.1430 -0.2656  0.3451
 4735W        W20544  17.229  17.844   1.635  0.2221 -0.1499  0.0626
 4736W        W20545   6.431  15.361  12.522 -0.0618  0.1359 -0.0313
 4737W        W20546  14.783  10.964  12.980  0.1799 -0.2010 -0.0261
 4738W        W20547   6.053   2.820  10.769 -0.2738  0.0627  0.3143
 4739W        W20548   9.605   0.611  11.002 -0.2340  0.3431  0.0058
 4740W        W20549   7.624  14.362  13.941  0.0934  0.2356  0.1153
 4741W        W20550  13.083   3.447   3.587 -0.1244 -0.0579  0.2505
 4742W        W20551  15.311   0.002   1.686  0.2695 -0.0003 -0.0166
 4743W        W20552  15.630  18.167  15.897  0.0668 -0.0027 -0.0130
 4744W        W20553  10.699  15.641  11.863 -0.1330 -0.1055  0.1521
 4745W        W20554  16.180   3.232  14.028 -0.0204  0.0819  0.2747
 4746W        W20555   4.475   4.056   4.917  0.0891  0.2557  0.0199
 4747W        W20556   9.023   2.656  11.583  0.1997  0.0607  0.0567
 4748W        W20557   9.579  13.956  15.954  0.3252  0.0773  0.3043
 4749W        W20558   1.813   1.396  14.488 -0.0910  0.0360 -0.0944
 4750W        W20559  10.815  11.721  15.518  0.3829  0.1466 -0.0916
 4751W        W20560   4.772  14.101   0.195  0.2088  0.2794  0.2946
 4752W        W20561   9.374   8.132   3.130  0.0986 -0.1772 -0.0087
 4753W        W20562  17.043  10.172   2.444 -0.0593 -0.1989 -0.2149
 4754W        W20563   2.339  10.225  13.104 -0.1249 -0.0238 -0.1700
 4755W        W20564  11.982   0.924   3.971  0.2981 -0.1688  0.3608
 4756W        W20565  16.164   0.010  14.677  0.0906 -0.2045  0.3308
 4757W        W20566   9.575  12.683   5.856  0.2341  0.1311  0.2922
 4758W        W20567  11.759   0.885  15.616  0.0119  0.1245 -0.2076
 4759W        W20568   9.444   0.645   2.373  0.1115  0.0236  0.0881
 4760W        W20569  12.860   5.949   0.060  0.0005  0.0867  0.0600
 4761W        W20570  14.651   9.729  11.914  0.0198  0.2738 -0.0862
 4762W        W20571  15.897  10.842  13.560 -0.0695 -0.0722 -0.0079
 4763W        W20572  11.674   3.086   3.871  0.1785 -0.1021 -0.1033
 4764W        W20573  17.992   4.866  12.105 -0.3303  0.1731  0.0134
 4765W        W20574  16.215   2.566  12.857  0.1638 -0.3079 -0.0929
 4766W        W20575   1.633  15.695  16.362  0.2785  0.2706 -0.0048
 4767W        W20576   9.339  11.189   0.408 -0.4604  0.1458  0.3202
 4768W        W20577   7.034   2.048   2.512 -0.0758  0.2956  0.3633
 4769W        W20578  12.844   4.894   4.614  0.1829 -0.2084 -0.0956
 4770W        W20579   2.706  11.673   4.112 -0.4346  0.1717  0.0029
 4771W        W20580   9.322  16.035   1.737 -0.0136 -0.0882 -0.0159
 4772W        W20581   5.711   5.649   3.048 -0.0797  0.0229  0.1731
 4773W        W20582  13.224  17.000  12.848 -0.0397 -0.2117 -0.1610
 4774W        W20583  17.593   3.720  13.292  0.1067 -0.0308 -0.1392
 4775W        W20584   8.936   7.955  14.185 -0.3523  0.1777  0.1659
 4776W        W20585   6.336   7.762   2.628 -0.1706 -0.2457 -0.2480
 4777W        W20586   7.092   1.709   0.376  0.2227 -0.3525 -0.0804
 4778W        W20587  11.550  17.255  11.821  0.0605 -0.0762  0.1271
 4779W        W20588  14.191  12.651  15.029 -0.1476 -0.0978  0.3238
 4780W        W20589   3.557   1.542  12.060 -0.2736 -0.0879  0.2210
 4781W        W20590  12.852   6.697   4.033  0.0079  0.1275  0.2380
 4782W        W20591   4.627   4.576   3.564 -0.0981 -0.1029 -0.0776
 4783W        W20592  17.773  15.795  12.743  0.3125 -0.0089 -0.2391
 4784W        W20593   4.780  13.994  15.317  0.0624 -0.1172 -0.0453
 4785W        W20594   9.507   4.044   1.821 -0.3235  0.0118  0.2035
 4786W        W20595   1.288  11.027   5.928 -0.2839 -0.0041 -0.1124
 4787W        W20596   1.704   8.723  11.412 -0.2071 -0.1252 -0.1132
 4788W        W20597  13.891   3.986   1.791 -0.0652 -0.4308 -0.2064
 4789W        W20598  10.989   7.226   4.109  0.1939  0.3864  0.0461
 4790W        W20599   4.942   1.470   0.004 -0.2670 -0.0208 -0.1353
 4791W        W20600  18.026  13.149   2.701 -0.0930 -0.1024 -0.1546
 4792W        W20601   5.602   2.675  14.892 -0.0452  0.1127 -0.1131
 4793W        W20602  13.688  18.150   0.669 -0.2569  0.0469  0.0805
 4794W        W20603   3.251   1.742  14.205 -0.0831 -0.1220  0.1376
 4795W        W20604  13.265   9.257  11.588  0.3588 -0.0830 -0.0270
 4796W        W20605  16.020  14.151   1.290  0.0453  0.1063 -0.0398
 4797W        W20606  15.871  10.735   0.658  0.2764 -0.1262  0.1565
 4798W        W20607   4.718   0.735  11.538  0.1600 -0.1205  0.1701
 4799W        W20608   8.644   8.643   2.439  0.0419 -0.2424 -0.0551
 4800W        W20609   2.624   6.429   0.691 -0.0785 -0.0122  0.0973
 4801W        W20610   5.733  13.570  11.221 -0.1348 -0.2249 -0.0334
 4802W        W20611  12.878   8.306   3.828  0.0664  0.0957 -0.0821
 4803W        W20612   6.595  17.635   2.539  0.0345  0.0363  0.0299
 4804W        W20613   3.985  16.808   5.316  0.0571 -0.0782 -0.2226
 4805W        W20614   2.977  10.587  11.510  0.1850  0.0129 -0.1988
 4806W        W20615  14.800  13.303  13.783 -0.0447  0.1698 -0.2716
 4807W        W20616  15.970   8.719  10.721  0.2964  0.0383  0.0865
 4808W        W20617   2.086   6.316  13.861  0.1016 -0.3815  0.0474
 4809W        W20618  17.267  11.408  12.759  0.3919 -0.0949 -0.0010
 4810W        W20619   4.749  14.873   3.757  0.2796  0.1004  0.0633
 4811W        W20620  15.347  10.990   4.389  0.2566  0.2642  0.0657
 4812W        W20621   1.880   0.863   3.235 -0.2339 -0.1542  0.0422
 4813W        W20622  13.713   7.070  14.219 -0.0951 -0.2204  0.0344
 4814W        W20623  10.458   9.653  12.851 -0.0563 -0.0556  0.0105
 4815W        W20624  13.698   7.773  15.281  0.3032 -0.2941 -0.0532
 4816W        W20625  11.451  16.366  12.175 -0.1123 -0.0683  0.1865
 4817W        W20626   3.361  13.686   3.197 -0.2714 -0.0752  0.0569
 4818W        W20627   9.219   5.455  13.036 -0.1395  0.1426  0.1649
 4819W        W20628  15.577   7.062  13.919 -0.0727  0.2153 -0.0580
 4820W        W20629  15.121   9.449  11.862  0.0014  0.1884 -0.0870
 4821W        W20630  14.621   2.235  13.509  0.3392 -0.2839  0.0299
 4822W        W20631  14.464  15.713  11.517 -0.0222  0.0463  0.0618
 4823W        W20632  14.500   0.993  12.518  0.0612  0.0240  0.1274
 4824W        W20633   1.194   8.978   0.415  0.1068 -0.0683 -0.2403
 4825W        W20634   2.501   2.103   3.384  0.3319 -0.3475 -0.0095
 4826W        W20635   3.481   4.489  15.542  0.3377  0.1378 -0.1445
 4827W        W20636  15.177  17.325   3.133 -0.0805  0.3825 -0.0373
 4828W        W20637  13.249  18.061  11.746 -0.3002  0.0086  0.0993
 4829W        W20638  15.420  16.407   5.418  0.0302 -0.1096 -0.0670
 4830W        W20639   7.315   2.688   3.682  0.4094  0.0258  0.1388
 4831W        W20640   9.385   0.939   0.312  0.0270 -0.0058  0.2144
 4832W        W20641  13.791  14.074   4.828  0.1582  0.0189  0.1609
 4833W        W20642   2.254   1.465   5.003  0.0537 -0.0205  0.0613
 4834W        W20643   4.964   0.379  14.016  0.1837  0.1848  0.2256
 4835W        W20644  14.314   2.331   0.452 -0.2215 -0.1539 -0.0774
 4836W        W20645  15.784   1.401   4.937  0.1029 -0.0047 -0.3151
 4837W        W20646   5.773  10.590  12.812 -0.0948  0.0530  0.1020
 4838W        W20647   6.995  18.106   5.332 -0.1406  0.0505  0.2405
 4839W        W20648  17.202   5.470  14.860 -0.0525  0.1193 -0.0485
 4840W        W20649   2.325  14.183   0.751 -0.1471  0.4829 -0.4472
 4841W        W20650   4.085   9.018  14.360  0.0796  0.2590 -0.1371
 4842W        W20651  14.823   3.766  11.943 -0.0411 -0.2451 -0.1474
 4843W        W20652   5.856   4.822  13.073  0.2059 -0.0131  0.0698
 4844W        W20653  12.373  15.460   3.301 -0.0956  0.3094 -0.0031
 4845W        W20654   5.683  10.361  15.631  0.0962 -0.1450  0.0544
 4846W        W20655   6.752  10.136  12.615  0.1980  0.3670 -0.3543
 4847W        W20656  16.571   9.966  14.232  0.1803 -0.3332 -0.1315
 4848W        W20657  10.898   2.305   0.471  0.0189  0.1315  0.3190
 4849W        W20658   0.816  10.629   1.963  0.2916  0.1436 -0.0576
 4850W        W20659  11.970   7.281   5.241 -0.1360  0.2832 -0.0069
 4851W        W20660   3.753   4.974   0.932 -0.1191  0.0080 -0.0077
 4852W        W20661  15.293   6.255   0.796  0.1780 -0.1746 -0.1009
 4853W        W20662   0.991   2.282  14.032 -0.0067  0.0750 -0.2580
 4854W        W20663  10.755   3.645   3.496 -0.0135 -0.0810  0.2586
 4855W        W20664  11.533  10.627   3.737 -0.0105  0.1841  0.2102
 4856W        W20665   9.107  16.387  14.177  0.3067  0.1733 -0.0989
 4857W        W20666   1.727   9.795   4.959  0.1095 -0.1065  0.1441
 4858W        W20667   8.285  15.936  14.338 -0.0194 -0.0546 -0.2324
 4859W        W20668   9.797  18.041  13.287 -0.1005  0.2937  0.0240
 4860W        W20669   1.410   9.743   2.016  0.2335 -0.1095 -0.0204
 4861W        W20670  11.104  12.848  14.275 -0.0224 -0.0784  0.2252
 4862W        W20671   5.306   8.204  11.518 -0.1439 -0.1548 -0.0218
 4863W        W20672   9.531   3.531   4.022 -0.1280 -0.2737 -0.2432
 4864W        W20673  15.149   0.050  14.295  0.0218  0.0867  0.1637
 4865W        W20674   8.333   7.242   0.098  0.0941  0.1007 -0.1550
 4866W        W20675  13.611   5.080   3.672  0.3034 -0.0349  0.0629
 4867W        W20676  14.115   0.850  15.302  0.0363  0.1166 -0.1242
 4868W        W20677  11.515   0.430  13.801 -0.1910 -0.0009  0.0455
 4869W        W20678   1.014  13.969  12.851 -0.0227  0.0396  0.0032
 4870W        W20679  11.192   7.556  11.653 -0.2413  0.2873 -0.2948
 4871W        W20680  13.283  14.428  12.396 -0.3070  0.1886 -0.0851
 4872W        W20681  15.526  10.524  13.435 -0.1077 -0.1186 -0.0725
 4873W        W20682  16.924   5.292  15.292  0.0206  0.1524 -0.1591
 4874W        W20683   0.855   8.443   2.332  0.0292 -0.0511  0.1067
 4875W        W20684   5.690  10.867   1.029 -0.0314  0.2820 -0.0616
 4876W        W20685  13.670   5.287  15.134  0.2684  0.2545  0.1701
 4877W        W20686   0.203   6.021   2.196 -0.2547  0.0830 -0.1606
 4878W        W20687  13.164   7.387  11.975  0.1610  0.0895 -0.1886
 4879W        W20688  14.149   9.929  14.492 -0.0443  0.1005  0.2299
 4880W        W20689  12.139  11.021  15.804 -0.0905 -0.1579  0.0204
 4881W        W20690  16.658   2.177  16.318  0.1612  0.0723  0.3805
 4882W        W20691   6.242   5.274  14.532  0.1021  0.0060 -0.2635
 4883W        W20692  16.561   4.095  16.348 -0.1714 -0.0179 -0.0700
 4884W        W20693   3.532  13.224   3.423 -0.0912  0.0690 -0.0987
 4885W        W20694  11.423  12.568   2.440 -0.0811 -0.0020  0.1557
 4886W        W20695  14.236  13.767  16.362 -0.1045 -0.0760  0.0299
 4887W        W20696  11.631  14.515   5.602 -0.2463 -0.1172 -0.0695
 4888W        W20697   9.082  11.005   3.979 -0.1510  0.1363  0.1261
 4889W        W20698   1.704  16.960  14.601 -0.1517 -0.0579  0.0918
 4890W        W20699  17.891  16.969   1.043  0.2054 -0.4070 -0.0337
 4891W        W20700   8.959  17.600  15.862 -0.0299  0.0742 -0.0410
 4892W        W20701   0.302  16.269  13.503  0.1024  0.0473 -0.2350
 4893W        W20702  13.405   9.079   0.180 -0.1523  0.1204  0.3346
 4894W        W20703   6.240   4.307  10.230  0.1027 -0.2934 -0.0403
 4895W        W20704  11.626   0.429  12.862  0.0322 -0.2853 -0.1769
 4896W        W20705  12.639   2.151   1.518 -0.0648  0.4149 -0.1848
 4897W        W20706  13.733  14.876  16.305  0.2364  0.1500  0.1964
 4898W        W20707  10.902   9.498   0.963  0.0154  0.0052  0.0532
 4899W        W20708   0.457  10.882   5.230 -0.1035  0.0596  0.0213
 4900W        W20709   9.851   3.570  11.942  0.0035 -0.3051  0.0434
 4901W        W20710  11.866   9.907   3.258 -0.1480 -0.0932  0.0264
 4902W        W20711  16.672   0.617  11.773 -0.1502  0.1359  0.1679
 4903W        W20712  14.301  17.532   5.588  0.1455 -0.2873 -0.0860
 4904W        W20713  13.287   9.506   0.410  0.0265  0.2604 -0.4475
 4905W        W20714  13.952   9.030  13.119  0.1750  0.0244  0.0322
 4906W        W20715  14.984  15.986   5.400  0.0926 -0.0378 -0.1847
 4907W        W20716  10.851   2.907  16.123  0.1770  0.1297  0.2276
 4908W        W20717  10.953  12.036  13.179 -0.1756  0.0694 -0.0599
 4909W        W20718  11.441   5.022  12.955  0.0238  0.3229 -0.0834
 4910W        W20719   9.415  10.984   2.822  0.1116 -0.1493  0.2158
 4911W        W20720  13.676   4.625  16.071 -0.3161 -0.0172 -0.2082
 4912W        W20721   7.081  10.697   6.357 -0.0536 -0.0664 -0.1336
 4913W        W20722   5.634  12.144   5.298  0.2037 -0.3350 -0.1549
 4914W        W20723  10.661   4.730   2.315 -0.1865  0.2160 -0.0605
 4915W        W20724   4.972   5.119  14.670  0.0596  0.1055 -0.1719
 4916W        W20725   4.803   6.518  13.439  0.3161 -0.1495  0.1408
 4917W        W20726  11.210  13.672  14.641  0.4070  0.0115 -0.4847
 4918W        W20727  14.607   9.738  11.166  0.0080 -0.0883 -0.1085
 4919W        W20728   6.516  11.283   0.421  0.0759 -0.1398  0.0277
 4920W        W20729  17.401   5.164   4.705 -0.1799 -0.3195  0.3693
 4921W        W20730   8.299   8.235   3.894 -0.3188 -0.4199 -0.2013
 4922W        W20731  11.139  16.667   2.038  0.1394  0.0605  0.1384
 4923W        W20732  14.521  16.310  11.872 -0.1044  0.1253 -0.3425
 4924W        W20733   3.086  14.329  15.897  0.1399 -0.1002 -0.3109
 4925W        W20734   8.913   0.639   4.375 -0.0711 -0.1005  0.2630
 4926W        W20735   1.686   9.195   4.055  0.1590 -0.3340 -0.1436
 4927W        W20736   0.997  17.020  14.296  0.0448 -0.1284 -0.0373
 4928W        W20737   8.666  15.140  13.533  0.1987  0.1640  0.0369
 4929W        W20738   9.773   8.621  12.992  0.2174 -0.1923  0.0735
 4930W        W20739   7.604   0.636  12.765  0.0231  0.0037 -0.2116
 4931W        W20740   3.417   7.758   0.887  0.1783  0.1092  0.2449
 4932W        W20741  14.794   2.659  13.624  0.0407  0.0702 -0.2336
 4933W        W20742  10.104  15.721   1.689  0.0700  0.0285 -0.0960
 4934W        W20743   3.316   2.739   0.980 -0.0635  0.0846  0.2167
 4935W        W20744  17.257   3.925  13.030  0.1009 -0.3310 -0.0907
 4936W        W20745  16.642   4.619   5.328  0.0279  0.0334  0.2466
 4937W        W20746   9.791  17.137  10.852 -0.4101  0.0399  0.5040
 4938W        W20747  17.551   4.044   6.220 -0.0666 -0.0843  0.2769
 4939W        W20748   2.037   2.275   4.143 -0.0982 -0.2929 -0.3264
 4940W        W20749   8.533   8.614   4.710  0.2570  0.1345  0.2906
 4941W        W20750   9.488   7.275  13.608 -0.1815 -0.0138  0.1414
 4942W        W20751   8.315  14.335  13.408 -0.2525 -0.2069  0.0504
 4943W        W20752   2.692   3.274   0.405 -0.0107  0.1552  0.0649
 4944W        W20753   4.474  17.680  15.357 -0.1085 -0.0177  0.1105
 4945W        W20754  11.286   2.231  16.343 -0.1009 -0.0127 -0.0419
 4946W        W20755   5.318   0.663  14.390  0.1854  0.4411  0.1202
 4947W        W20756   5.192   3.363  10.907  0.1184  0.0174  0.2864
 4948W        W20757  15.346   6.233  12.343 -0.0570 -0.0960 -0.1201
 4949W        W20758  15.675   7.111   1.959 -0.0859 -0.2762 -0.0627
 4950W        W20759   9.275   5.239  11.610 -0.0175 -0.0743 -0.1171
 4951W        W20760   3.231  10.726  13.995 -0.0302  0.0524  0.2217
 4952W        W20761   6.869  14.002  14.703  0.0016  0.1999 -0.0948
 4953W        W20762   6.057   9.414   2.819 -0.0051  0.1340  0.2425
 4954W        W20763   0.061  12.042  16.289 -0.0302 -0.1761  0.1922
 4955W        W20764   2.828   6.039  12.903  0.0841  0.2912  0.2297
 4956W        W20765   9.715  10.560  15.925  0.2635  0.2405  0.1944
 4957W        W20766   7.270   8.794  12.217 -0.0899  0.0747  0.0327
 4958W        W20767   0.654  14.243   4.282  0.0049  0.1495  0.1447
 4959W        W20768  18.205   6.712  12.087 -0.3862  0.0934 -0.1454
 4960W        W20769  11.048   7.527   3.451  0.4376  0.1149 -0.1262
 4961W        W20770   9.909   3.129  14.807 -0.0088 -0.0994 -0.0826
 4962W        W20771   4.006   8.298   0.161  0.2634 -0.0590  0.2237
 4963W        W20772  11.892  12.043  15.049  0.2492 -0.1069 -0.1227
 4964W        W20773   3.358  15.644  13.584 -0.0695 -0.2241 -0.1745
 4965W        W20774   7.893   4.970  15.330  0.0130 -0.3611  0.3658
 4966W        W20775  12.170   5.042  14.952 -0.0717  0.2831  0.2146
 4967W        W20776  15.237   7.421  14.844  0.0092  0.1953 -0.2340
 4968W        W20777  17.989   2.952  13.858  0.4030  0.2247 -0.1339
 4969W        W20778   4.107   9.065  15.244  0.2806  0.1228 -0.1417
 4970W        W20779  12.833   3.631   2.370  0.0335 -0.0829 -0.2009
 4971W        W20780  17.226  10.518   1.222 -0.0172  0.3652  0.4045
 4972W        W20781  12.078  12.378  14.677  0.0492 -0.2748 -0.2688
 4973W        W20782   1.109   3.141   5.574  0.1399  0.1955 -0.1024
 4974W        W20783  11.862  13.608  13.921 -0.1977  0.2120  0.0826
 4975W        W20784  15.264  14.206   1.582  0.0761  0.1276  0.1077
 4976W        W20785   1.361  13.856   0.681  0.2382 -0.0694  0.0129
 4977W        W20786  11.060  15.292  11.972 -0.3002 -0.2399  0.1894
 4978W        W20787  17.061   7.134  14.920 -0.0391  0.2336 -0.0709
 4979W        W20788  10.858   6.720   2.837 -0.1035 -0.1540  0.1490
 4980W        W20789   6.732   0.212   4.142 -0.1406 -0.1240 -0.2617
 4981W        W20790   1.329  13.892   1.654 -0.0932  0.0673  0.0068
 4982W        W20791   7.467  17.579   1.942 -0.0580 -0.0123 -0.0951
 4983W        W20792  10.196  10.288   3.739  0.3828  0.1624  0.0320
 4984W        W20793   7.086   0.703  11.082 -0.1529  0.1248  0.3625
 4985W        W20794   9.268   5.128   1.908  0.2587  0.2631 -0.2578
 4986W        W20795   6.651  13.496  13.682 -0.0131 -0.0866  0.1523
 4987W        W20796   2.462   5.688   1.295  0.1119  0.0235  0.4308
 4988W        W20797  16.737  12.968  13.425  0.5200  0.0924  0.2481
 4989W        W20798   6.298  15.981  11.455  0.0196 -0.3207  0.0073
 4990W        W20799   0.048   6.335  15.865  0.0076  0.3527  0.3248
 4991W        W20800   3.008   2.455  15.722 -0.2086 -0.1810  0.0342
 4992W        W20801   8.022  10.543   0.378 -0.0663 -0.0625  0.1851
 4993W        W20802   1.892   4.116   0.615 -0.0003  0.1838  0.0875
 4994W        W20803  12.609  12.729   0.265 -0.3678 -0.0622 -0.2189
 4995W        W20804   7.098  14.630   0.026 -0.0230  0.0397  0.4707
 4996W        W20805  12.819  17.051  14.722 -0.0184 -0.2633  0.0620
 4997W        W20806  16.919  15.850  12.417 -0.1588  0.0175  0.0663
 4998W        W20807  15.176  14.339  10.533  0.0359  0.0810 -0.1016
 4999W        W20808   7.846  18.128   5.174  0.2165  0.4734 -0.1092
 5000W        W20809   1.349   3.097   2.608  0.2616 -0.1714 -0.0647
 5001W        W20810  11.415   5.193  12.089 -0.2452 -0.0133  0.0024
 5002W        W20811  17.207   5.685   5.392 -0.1963  0.0028  0.0158
 5003W        W20812   7.249   5.791   2.259 -0.0570 -0.1603 -0.0824
 5004W        W20813  18.120   0.904  12.491 -0.2743 -0.0033 -0.0746
 5005W        W20814   8.008  17.672   5.026  0.2167  0.0574  0.1476
 5006W        W20815  15.161   7.669  12.946 -0.0563 -0.0223 -0.0780
 5007W        W20816  10.317   8.928  13.483  0.1631  0.0775  0.1238
 5008W        W20817   4.085   2.526  15.027 -0.0052  0.0079 -0.0497
 5009W        W20818  16.182   8.754   0.037  0.1995  0.3815  0.0214
 5010W        W20819   0.199   6.789   0.047 -0.2199  0.2370  0.0124
 5011W        W20820   3.859  11.106   4.173 -0.3177  0.1988 -0.1891
 5012W        W20821   1.486  16.293   1.417 -0.0416 -0.2057  0.0402
 5013W        W20822  12.520   7.899   5.985 -0.0502  0.1406 -0.2502
 5014W        W20823  11.416   3.787   2.155  0.2753 -0.3513 -0.0871
 5015W        W20824   1.117   9.937   0.303 -0.1315 -0.0853 -0.2200
 5016W        W20825  14.254   3.165   4.395  0.0396 -0.0144  0.0473
 5017W        W20826   6.738   5.528  15.539 -0.1899 -0.0548  0.2118
 5018W        W20827   7.615  10.522  15.063 -0.1800  0.0360 -0.4264
 5019W        W20828  14.963   5.127   4.890  0.0165  0.2238 -0.1792
 5020W        W20829   1.511   5.391  13.186 -0.3048 -0.1743 -0.0012
 5021W        W20830  11.041  15.913   2.311  0.1528 -0.0429  0.2999
 5022W        W20831  13.378  16.518  13.966 -0.0108  0.1136  0.1165
 5023W        W20832   1.078   7.931  16.046  0.1630 -0.0709  0.1524
 5024W        W20833   7.932   3.511  11.315  0.0467  0.0467 -0.0240
 5025W        W20834   0.390   3.054  12.635 -0.1638  0.0886  0.1332
 5026W        W20835  17.588   5.827  14.822  0.4084  0.0055  0.3249
 5027W        W20836   5.341   7.447   0.997  0.0645 -0.1204  0.1810
 5028W        W20837   1.551  17.249   0.909 -0.2073 -0.3591  0.2102
 5029W        W20838   0.493  17.489   4.817  0.0266 -0.1854 -0.0271
 5030W        W20839   2.560  16.530   0.151  0.0068  0.0527 -0.4071
 5031W        W20840  11.831   7.433   1.412 -0.0904 -0.0499 -0.1635
 5032W        W20841  16.993  14.685  14.387  0.1550  0.1360  0.1648
 5033W        W20842   3.212   2.925   3.774 -0.4151 -0.2706  0.0592
 5034W        W20843   9.749  15.407  16.302  0.3418  0.0579  0.0333
 5035W        W20844   6.865  10.468  12.042 -0.1235  0.2132  0.2837
 5036W        W20845  16.528   9.393  15.301 -0.1060 -0.0510  0.0105
 5037W        W20846   2.998   3.550   2.322 -0.1652  0.3477 -0.0194
 5038W        W20847  17.427   6.691  14.412  0.0309 -0.0867 -0.0947
 5039W        W20848  16.390   1.931  13.569  0.1820  0.1687 -0.1066
 5040W        W20849   4.583  14.920  15.426  0.3304 -0.0426 -0.0283
 5041W        W20850   1.788  17.992  14.788 -0.1257 -0.1238 -0.1629
 5042W        W20851  12.562  15.150   4.649  0.1010  0.1555  0.1359
 5043W        W20852   7.796  16.285   4.252 -0.1290  0.0716  0.1349
 5044W        W20853   0.388   6.644   4.040  0.1519 -0.1459  0.0984
 5045W        W20854   8.303  14.121  12.126  0.0577 -0.2134  0.2192
 5046W        W20855  18.043   0.893   1.836 -0.3813  0.1303 -0.1396
 5047W        W20856  14.273   9.358  10.938  0.0865  0.1730 -0.0289
 5048W        W20857   5.323  11.697   3.140  0.1790  0.0518 -0.0980
 5049W        W20858   1.579  13.901  13.567 -0.1046 -0.0871  0.1228
 5050W        W20859   5.355   2.390  12.946  0.1534 -0.2291 -0.0027
 5051W        W20860  17.824   4.121   2.388  0.0931 -0.0597  0.1585
 5052W        W20861   5.131  15.439   0.073  0.1087  0.0434 -0.3071
 5053W        W20862  11.917   9.039   1.869  0.0841  0.2807  0.0472
 5054W        W20863   5.372  15.377  12.209 -0.0618 -0.0779  0.2560
 5055W        W20864   1.297  12.875  13.747 -0.2426 -0.3766 -0.0388
 5056W        W20865  17.404   7.886   1.710 -0.1653  0.0295  0.0552
 5057W        W20866  14.978  16.982   3.683 -0.0857 -0.2647  0.1906
 5058W        W20867  12.452  11.839  15.658  0.1098 -0.0745 -0.0184
 5059W        W20868   4.269   2.027  16.114  0.0147  0.2115 -0.0893
 5060W        W20869  13.323   6.662   3.153 -0.1415  0.5919 -0.1146
 5061W        W20870   4.831   4.080   1.742  0.1249 -0.1419  0.2754
 5062W        W20871  18.125  14.085   3.309 -0.0631 -0.1296  0.2158
 5063W        W20872   0.851  17.812   4.891  0.4109  0.0910 -0.1006
 5064W        W20873   6.945   2.040  14.842  0.0983 -0.1011  0.0441
 5065W        W20874  10.172   5.091  16.167  0.0268 -0.0104 -0.2431
 5066W        W20875   9.162  13.284  14.770  0.0485  0.0293  0.0449
 5067W        W20876   6.680  16.512   1.211 -0.2547 -0.0365  0.2250
 5068W        W20877   5.990   8.596  12.195  0.4028 -0.0283 -0.1578
 5069W        W20878   2.760  17.719   2.141  0.3336  0.0044  0.0723
 5070W        W20879   3.553   8.702  13.647 -0.1230 -0.0219 -0.3173
 5071W        W20880  16.119  17.793   2.049 -0.0509 -0.1409  0.0970
 5072W        W20881  14.521  16.606   4.626  0.2258  0.1990  0.0296
 5073W        W20882   6.054  14.054   4.287  0.2668  0.0292  0.3203
 5074W        W20883  14.351   8.916   1.188  0.0449 -0.1844 -0.0305
 5075W        W20884   3.977  11.028   0.284  0.0927 -0.0606  0.0450
 5076W        W20885   4.058  14.941  13.054 -0.1705 -0.1908 -0.1721
 5077W        W20886  11.296  16.983   0.338  0.1675 -0.1677 -0.1081
 5078W        W20887  14.979   7.198  13.881 -0.1025  0.2334  0.1065
 5079W        W20888  13.118  17.963   2.253  0.0389 -0.0063 -0.1138
 5080W        W20889  13.706  14.568   4.823  0.1281 -0.1436  0.0601
 5081W        W20890   1.032   5.524   5.268 -0.0512  0.0202  0.0666
 5082W        W20891  13.925  15.040   5.245 -0.1006 -0.2484 -0.1543
 5083W        W20892  14.240   1.945   5.756  0.0474  0.1572  0.0136
 5084W        W20893  15.560   6.901  13.142  0.1932 -0.1628 -0.0507
 5085W        W20894   8.377   2.377   3.755 -0.0614  0.0640 -0.3330
 5086W        W20895  15.107   0.971   3.959 -0.4236 -0.0926  0.0278
 5087W        W20896   7.597   3.410   4.296  0.0900  0.1145 -0.0282
 5088W        W20897   9.646   2.281   2.273  0.0030  0.0293 -0.0648
 5089W        W20898   4.863   9.503  14.091 -0.0186  0.0134  0.0083
 5090W        W20899   0.807   5.717   3.394  0.5703  0.0583  0.3064
 5091W        W20900   0.173   2.071   4.632 -0.0998  0.2549  0.2347
 5092W        W20901  16.619   1.508   4.720 -0.0200  0.0155  0.2726
 5093W        W20902   5.778   0.770  14.118 -0.0126 -0.2804 -0.2280
 5094W        W20903  17.071  16.761   4.441  0.1617  0.0451 -0.2976
 5095W        W20904   6.795   3.360  13.487 -0.1990  0.1179 -0.1507
 5096W        W20905   1.074  13.345  11.958 -0.1743 -0.1605  0.1806
 5097W        W20906   7.107  15.194  12.496 -0.0686 -0.0097 -0.1146
 5098W        W20907   2.013   0.864   4.974 -0.2944  0.1026  0.0324
 5099W        W20908   9.954  15.987  14.184  0.2692  0.0027  0.1347
 5100W        W20909   5.610   0.135   9.983 -0.1327 -0.0162 -0.0543
 5101W        W20910  14.610   0.918  13.684 -0.0986 -0.2330 -0.0386
 5102W        W20911  12.809   8.530  12.039  0.0903 -0.0223  0.0031
 5103W        W20912   1.644   1.858   4.134 -0.0323  0.1447  0.1338
 5104W        W20913   2.093  13.950   2.862  0.1086  0.4117 -0.1271
 5105W        W20914   8.718   3.066   1.106 -0.0629  0.2541 -0.1051
 5106W        W20915   3.687   7.197  13.908 -0.1397 -0.0995 -0.2397
 5107W        W20916   1.011  11.055   2.653  0.0469  0.1706 -0.1457
 5108W        W20917  11.690  12.811   5.006 -0.1320 -0.0024  0.0880
 5109W        W20918   2.693   9.518   4.954 -0.0848  0.3031  0.1825
 5110W        W20919  16.936   7.512  13.703  0.2735  0.1555  0.1064
 5111W        W20920  10.384   2.958  13.686 -0.0958  0.2721 -0.4092
 5112W        W20921  18.014  15.829  13.169  0.1037  0.2239 -0.2471
 5113W        W20922   5.826   4.926  13.575 -0.0443 -0.0771  0.0664
 5114W        W20923  16.920   2.815   4.375 -0.1395 -0.1618 -0.3866
 5115W        W20924   7.699   0.814   0.701 -0.1774  0.1512 -0.1532
 5116W        W20925   6.243  17.556  13.324 -0.3959  0.2565 -0.1847
 5117W        W20926  15.222   6.448  14.576 -0.1062  0.0754  0.1971
 5118W        W20927   8.605   5.782   0.869  0.0296  0.0063 -0.0386
 5119W        W20928   2.740   7.587   5.333 -0.2582 -0.0395  0.3950
 5120W        W20929  13.777  12.304  11.054 -0.2995  0.3638 -0.0922
 5121W        W20930   2.765  12.142  13.119  0.0059 -0.0306  0.1480
 5122W        W20931   2.402   5.404   5.203  0.0997 -0.0151  0.2391
 5123W        W20932  10.753  13.506  15.035 -0.2230  0.1830  0.1080
 5124W        W20933  16.712  18.115  12.448  0.0466 -0.1170  0.0885
 5125W        W20934  17.266   5.899  11.446  0.0771 -0.4349 -0.1007
 5126W        W20935   4.402  10.967   2.224 -0.0476  0.1024  0.0084
 5127W        W20936  13.497  15.851   0.598  0.2509  0.0864  0.1915
 5128W        W20937  17.256   7.241   2.907 -0.2557  0.0228  0.2607
 5129W        W20938   4.122   7.768   0.479 -0.2710  0.4360  0.1886
 5130W        W20939  11.123   2.408  11.361  0.0601 -0.0442 -0.2316
 5131W        W20940   2.003  13.175  12.573 -0.2470 -0.2313  0.0463
 5132W        W20941   1.873   0.110  11.781 -0.1586 -0.1856 -0.2072
 5133W        W20942  14.741  10.016   2.927 -0.1680 -0.0065  0.2670
 5134W        W20943  18.189  15.792  11.381 -0.1447  0.2026  0.0071
 5135W        W20944   8.603   1.916  10.840 -0.2667  0.2788 -0.2928
 5136W        W20945   3.186  15.770   4.734  0.2168 -0.1136 -0.2330
 5137W        W20946   4.732  17.452   2.016 -0.1821  0.0418 -0.0439
 5138W        W20947   3.707   3.744   1.786 -0.0305  0.3550 -0.1446
 5139W        W20948   3.691  15.424   1.843  0.1608 -0.0820  0.0218
 5140W        W20949  10.655  16.962  14.911 -0.2111 -0.0640 -0.1420
 5141W        W20950   4.539   5.969   3.852  0.2211 -0.1854  0.1818
 5142W        W20951   3.366   8.345   0.224 -0.0985 -0.1016  0.1739
 5143W        W20952  12.948   5.200  15.665  0.0210 -0.1884  0.3378
 5144W        W20953   3.878  13.372  15.781  0.0914  0.0825 -0.1142
 5145W        W20954  12.788   7.531  10.202  0.1636  0.0676 -0.1218
 5146W        W20955   5.680   4.075  14.311  0.0577  0.0416  0.1791
 5147W        W20956  14.279   7.020   5.005 -0.2234  0.1258  0.1039
 5148W        W20957  11.431   5.375  14.552  0.0682 -0.0273 -0.1729
 5149W        W20958   5.560   6.771  13.182  0.2734 -0.1631  0.3069
 5150W        W20959   9.655   4.356   4.359  0.0754 -0.0980 -0.0207
 5151W        W20960  13.468   6.596  11.978  0.0382  0.0473 -0.2077
 5152W        W20961   5.393   9.930  15.387 -0.2035 -0.1831  0.0812
 5153W        W20962   2.205   2.986  15.075 -0.2004  0.0059  0.0781
 5154W        W20963   2.625   1.371   4.509 -0.2267  0.0164 -0.1509
 5155W        W20964   8.877   4.403  11.114  0.1843  0.0127  0.1766
 5156W        W20965   7.887   6.651   3.402 -0.0583 -0.2184 -0.0561
 5157W        W20966  11.319   4.218   5.746  0.1314  0.0857 -0.1490
 5158W        W20967  17.397  11.924   2.813  0.3119  0.3920 -0.0331
 5159W        W20968  15.324   4.695   4.416 -0.3226 -0.0386 -0.1015
 5160W        W20969  10.822  11.692  11.761 -0.0470  0.1243 -0.0228
 5161W        W20970   8.929  13.221  15.665 -0.3575 -0.0780 -0.0319
 5162W        W20971  14.942  15.884   2.984 -0.0013 -0.1810  0.0553
 5163W        W20972   0.486  17.929  13.197 -0.1858 -0.0265 -0.1506
 5164W        W20973  15.970   0.194   2.678  0.0605  0.0487  0.3802
 5165W        W20974  10.044   6.430  13.225 -0.0315 -0.2456 -0.1727
 5166W        W20975  14.474  13.365  13.415 -0.2656 -0.1888  0.2699
 5167W        W20976   4.319  10.741  11.430  0.0127 -0.2593 -0.3445
 5168W        W20977   1.974  13.938   2.390  0.4082 -0.0536 -0.1872
 5169W        W20978  14.752  10.375  15.524 -0.1044  0.1559  0.0607
 5170W        W20979  12.599  10.440  14.754  0.1816  0.0115  0.1638
 5171W        W20980   6.688  17.693   5.283 -0.2004 -0.5026 -0.0157
 5172W        W20981  10.883  14.433  12.231  0.3613  0.1072 -0.0747
 5173W        W20982   4.435  13.965   5.261  0.2969 -0.1250 -0.2131
 5174W        W20983  14.974  10.595   3.459  0.2468 -0.1549 -0.2734
 5175W        W20984  11.094   4.992  14.826 -0.0085 -0.0460 -0.1092
 5176W        W20985  17.846  16.576   3.758  0.1490 -0.0282  0.1320
 5177W        W20986   2.407  13.255   5.293 -0.0460 -0.1120  0.0562
 5178W        W20987  12.863   7.555  15.149  0.0014 -0.0689  0.2744
 5179W        W20988   5.470   7.059   1.679  0.0673  0.2385 -0.0478
 5180W        W20989   9.677   4.685  15.433 -0.4379 -0.1895 -0.0192
 5181W        W20990   6.113   4.171   1.874  0.2571 -0.0072 -0.0314
 5182W        W20991  15.474  10.790  10.540  0.2294 -0.1669  0.2536
 5183W        W20992  17.365   6.171   5.552  0.0795 -0.1829  0.1872
 5184W        W20993  17.637   7.495   3.782 -0.3759 -0.1227 -0.1003
 5185W        W20994  13.417   2.778   4.993  0.0201 -0.1578 -0.1467
 5186W        W20995   1.459   4.115  12.134  0.0049  0.0622 -0.0029
 5187W        W20996  14.708   9.720   1.018 -0.0844  0.3264  0.0079
 5188W        W20997  16.908   2.628  16.132 -0.1216 -0.1643 -0.2445
 5189W        W20998  17.107  11.504   2.822  0.0470  0.2585  0.1598
 5190W        W20999  12.070  11.619  11.099 -0.0647 -0.1409  0.2943
 5191W        W21000   4.718  15.028   3.180  0.1477  0.2331 -0.0601
 5192W        W21001   4.039  18.028   2.156 -0.2884 -0.3678 -0.1757
 5193W        W21002   0.631  10.100   3.042 -0.1730 -0.0263 -0.2844
 5194W        W21003  17.227  11.620  15.840  0.0273 -0.1315 -0.2722
 5195W        W21004  11.106   9.955  15.811 -0.0051 -0.1873  0.0297
 5196W        W21005   0.496   6.911  12.541 -0.0267  0.1135  0.1689
 5197W        W21006   7.155  16.547  14.170 -0.0965  0.1162  0.0480
 5198W        W21007  15.322  17.418   5.842 -0.0031  0.5250 -0.0473
 5199W        W21008  13.925   4.097  11.219 -0.0626 -0.0551  0.1848
 5200W        W21009   3.898   0.209  15.519 -0.2091 -0.1050 -0.1682
 5201W        W21010  14.723   7.628   4.416  0.0223  0.1380 -0.1647
 5202W        W21011   1.008  18.114  15.676  0.2370 -0.1158  0.0048
 5203W        W21012   3.291  10.295  11.829  0.0214  0.1695 -0.0718
 5204W        W21013  17.262  10.602   0.539  0.1135  0.0588  0.0656
 5205W        W21014   3.098   1.420  13.282 -0.1655 -0.1748  0.1167
 5206W        W21015  12.838  13.971  15.852 -0.3181  0.0611  0.0462
 5207W        W21016  11.347   0.277   1.893  0.0695 -0.1999  0.1307
 5208W        W21017   5.471  11.741   2.625 -0.2343 -0.1374  0.0803
 5209W        W21018   1.424   3.635   4.811  0.1356 -0.0446  0.0887
 5210W        W21019  16.870   6.838  13.569 -0.2320  0.1631 -0.2274
 5211W        W21020  17.896   0.538   2.710  0.3357  0.0630 -0.0130
 5212W        W21021  18.002   4.923   5.094 -0.0136 -0.3553 -0.2237
 5213W        W21022  10.690   3.939   4.379  0.0366 -0.0236  0.2084
 5214W        W21023  17.881  10.467   1.801  0.0966 -0.0107  0.1071
 5215W        W21024   2.839  16.376   0.905  0.1781 -0.1016 -0.0668
 5216W        W21025  11.177   5.996   3.855  0.3740  0.0809  0.0103
 5217W        W21026   6.717  15.561   0.173 -0.0439 -0.1438 -0.1424
 5218W        W21027  17.504  13.190   0.136 -0.0637  0.1132 -0.1805
 5219W        W21028  15.155  12.137  11.296 -0.0095  0.3881 -0.0722
 5220W        W21029  14.923  18.010   1.471  0.0687  0.1952  0.0111
 5221W        W21030   8.058  18.170  12.187  0.1770 -0.1389 -0.1227
 5222W        W21031   8.834  11.729   3.718  0.0441 -0.1629  0.0819
 5223W        W21032  17.605   2.811  12.432 -0.0430 -0.2915  0.1843
 5224W        W21033  12.091  11.050   1.651  0.1455 -0.0013  0.1055
 5225W        W21034  16.548  15.675   2.227 -0.1376  0.0072 -0.1896
 5226W        W21035  10.176  17.748   2.299 -0.0344  0.0679  0.0962
 5227W        W21036  17.024  15.110  11.147  0.1387 -0.1332 -0.1764
 5228W        W21037   7.623  15.812   0.355  0.2334 -0.2926  0.0484
 5229W        W21038   7.597  11.552  14.304  0.4641 -0.2534 -0.0767
 5230W        W21039   2.308  12.737   4.991  0.1741  0.1786 -0.0705
 5231W        W21040   4.680   5.695  13.313 -0.3070 -0.0999  0.0544
 5232W        W21041   2.441  10.441  14.731  0.1813  0.1682 -0.2473
 5233W        W21042   9.623  16.862  13.588  0.0807 -0.0632  0.1013
 5234W        W21043  13.261  13.372  16.109 -0.1414  0.0382 -0.0927
 5235W        W21044  10.481   1.756   0.517  0.0514  0.2247 -0.3615
 5236W        W21045   6.989   7.294  16.256 -0.0223 -0.3963 -0.2506
 5237W        W21046   9.559   4.728   5.332  0.0303 -0.1235 -0.3423
 5238W        W21047  14.333   2.720   1.745  0.0620  0.0204 -0.2149
 5239W        W21048  12.984  12.524  11.074  0.0938  0.3911  0.1577
 5240W        W21049   2.408  14.552   1.085  0.1829 -0.0787  0.2001
 5241W        W21050   9.046   5.104   4.550 -0.1947 -0.0798 -0.0377
 5242W        W21051  17.478   4.582  15.952 -0.1699 -0.0738  0.0386
 5243W        W21052  10.293  12.691  13.291  0.1202  0.0211 -0.2631
 5244W        W21053   0.617  12.364  14.818  0.3200  0.3758  0.1525
 5245W        W21054   6.852   3.182   2.121  0.0518  0.0273  0.3258
 5246W        W21055  11.410  12.092   1.136  0.1304 -0.0561  0.1027
 5247W        W21056   6.838   2.690   0.187 -0.0463  0.0872  0.2916
 5248W        W21057  17.673  12.140   3.269 -0.0285  0.1179 -0.1668
 5249W        W21058  16.474   6.798   4.254  0.2031  0.0001  0.3517
 5250W        W21059  13.963  10.263  12.852 -0.3522  0.2760  0.1716
 5251W        W21060   3.749   3.020  12.905 -0.0872 -0.1550  0.1965
 5252W        W21061  10.247  13.751   5.506 -0.2834 -0.3601  0.0463
 5253W        W21062   8.235  11.352   3.904 -0.1266 -0.1262  0.1254
 5254W        W21063   1.634  11.695  12.487 -0.2005 -0.0719 -0.1143
 5255W        W21064   3.846  16.224   4.621  0.5016 -0.3859  0.3510
 5256W        W21065  13.538  12.825  11.721 -0.2248  0.2903 -0.2462
 5257W        W21066  16.559   2.018   4.591 -0.2029  0.2844  0.0392
 5258W        W21067   4.933  12.229   4.843 -0.2395  0.0019 -0.1546
 5259W        W21068  11.516   3.586  15.905  0.0301 -0.0460  0.2895
 5260W        W21069   3.969  10.807  13.245  0.1520  0.0381  0.1708
 5261W        W21070  16.393   4.550   1.068  0.0899  0.0862 -0.0562
 5262W        W21071  13.186  14.737  11.082 -0.0053  0.2464 -0.1739
 5263W        W21072  11.048  16.332  11.922  0.0337 -0.2831 -0.1458
 5264W        W21073  16.893  17.558  14.697  0.0571  0.2781  0.2738
 5265W        W21074   2.323   0.475   4.215  0.1339 -0.1662  0.1928
 5266W        W21075   1.665  11.524  13.286  0.2431 -0.2727 -0.0306
 5267W        W21076  10.515  11.066   1.212 -0.1516  0.1366  0.1826
 5268W        W21077  11.793   4.843  11.783 -0.0931 -0.2904  0.0124
 5269W        W21078   9.916  16.836   5.064 -0.2156 -0.2192 -0.0104
 5270W        W21079  16.511   2.329  15.806 -0.1349  0.0834  0.0848
 5271W        W21080  13.601   4.046  12.517 -0.0695  0.2543 -0.4911
 5272W        W21081  18.087  11.323  12.835 -0.2615 -0.0063  0.0791
 5273W        W21082  10.021  14.054  15.152  0.1300  0.1079  0.2647
 5274W        W21083   6.747  14.212  11.167 -0.2132 -0.2730  0.0100
 5275W        W21084   5.898  16.292  13.391 -0.2186  0.3501  0.0638
 5276W        W21085   6.033  15.130   0.766  0.2444  0.0048 -0.0673
 5277W        W21086   4.366  16.771   4.109  0.0156 -0.3235 -0.0301
 5278W        W21087  13.782  16.882   1.030  0.0624 -0.0742 -0.1332
 5279W        W21088   8.402   6.488   5.581  0.1924 -0.0423 -0.3056
 5280W        W21089  15.142   5.170   2.198 -0.0927  0.0279 -0.0350
 5281W        W21090  16.331  14.924   3.433 -0.0234  0.1459  0.1144
 5282W        W21091  13.335  16.524   3.094 -0.1456  0.0884  0.0909
 5283W        W21092  12.491   5.562  12.557 -0.0648  0.2583 -0.1335
 5284W        W21093   6.672  17.694   3.048  0.0679 -0.1718  0.0356
 5285W        W21094  11.252   9.154   1.128  0.1226 -0.0057  0.2691
 5286W        W21095   4.837   8.373   4.322 -0.0845  0.0717 -0.1113
 5287W        W21096  17.899  11.358   1.233 -0.0838  0.1605  0.1185
 5288W        W21097   2.181  16.655   1.394  0.0649 -0.3211 -0.0188
 5289W        W21098   2.834   7.796   5.768 -0.2190 -0.0393  0.1171
 5290W        W21099   7.366  16.999  14.514  0.3499  0.2165  0.1504
 5291W        W21100  17.618   1.627   1.292  0.3058 -0.3201 -0.2191
 5292W        W21101   1.236  13.358  14.471 -0.1076 -0.0106  0.2289
 5293W        W21102   3.036   8.420  14.348  0.0724  0.1919  0.2716
 5294W        W21103   7.012  14.750  14.959 -0.2971  0.1739  0.1344
 5295W        W21104   7.493   4.293  15.564  0.1281 -0.0341 -0.2907
 5296W        W21105   1.340  16.576  14.334 -0.1124 -0.0897  0.2645
 5297W        W21106  15.150   5.803  12.047  0.0503 -0.0973  0.1767
 5298W        W21107   1.915   8.847   0.351  0.1701  0.0711 -0.1082
 5299W        W21108   3.327  15.214  15.844 -0.1311  0.2623 -0.1200
 5300W        W21109  12.475   3.418   4.319  0.1412  0.1554 -0.0724
 5301W        W21110   2.287   2.502  16.084  0.1699 -0.1174 -0.0840
 5302W        W21111   6.700  14.344  15.085  0.2545 -0.3373  0.2060
 5303W        W21112  10.251   2.050   3.109  0.2755 -0.3623  0.3210
 5304W        W21113  15.847   5.883   1.941  0.1219  0.0495 -0.1864
 5305W        W21114   3.933   1.914   4.435  0.0418 -0.4321 -0.1295
 5306W        W21115   7.227   4.560  13.257  0.1866  0.0092  0.3396
 5307W        W21116  16.329  12.286  11.102  0.3387 -0.1458  0.0183
 5308W        W21117   8.031   1.001  14.393  0.1490  0.1491  0.1012
 5309W        W21118   7.369   9.923   1.855  0.0223  0.1668 -0.1497
 5310W        W21119  15.274  14.385   0.058  0.1848  0.1225  0.1800
 5311W        W21120  14.815   2.595   0.362 -0.2480  0.1865 -0.1313
 5312W        W21121   7.854   2.446   2.794 -0.1882 -0.0230 -0.0250
 5313W        W21122   7.069  17.782   3.575 -0.2422  0.0905  0.0792
 5314W        W21123   3.739  16.231  12.255  0.0747  0.1673  0.1321
 5315W        W21124  14.607   1.807  12.367 -0.1881  0.2048 -0.1838
 5316W        W21125   7.890  10.492  13.963 -0.1711 -0.2833  0.3917
 5317W        W21126   6.090  17.337  13.812 -0.0971 -0.0687 -0.1078
 5318W        W21127   4.612  11.996  11.230  0.2071 -0.1807 -0.0945
 5319W        W21128   4.453  16.745  15.714  0.1112 -0.1747  0.1598
 5320W        W21129   0.688   6.077   0.650 -0.0486 -0.2875 -0.1158
 5321W        W21130   7.160  16.267   3.072  0.0164  0.2335  0.0552
 5322W        W21131   2.840   8.791   3.993 -0.1125  0.0320 -0.0883
 5323W        W21132  16.919   7.887   1.874 -0.2032  0.1114 -0.1003
 5324W        W21133  10.872  15.138  14.549  0.0585  0.1722 -0.4238
 5325W        W21134   2.751  17.937  15.327 -0.4284  0.0217 -0.2976
 5326W        W21135  14.251   4.479   1.741 -0.2270 -0.3076  0.5477
 5327W        W21136   0.110   8.004   5.478 -0.1284  0.0246 -0.2557
 5328W        W21137   1.327   2.150   1.310 -0.3822 -0.2838 -0.2325
 5329W        W21138  17.369   7.672   5.422 -0.1021 -0.0797  0.0535
 5330W        W21139   4.663   1.772   5.100  0.0858 -0.0738  0.0887
 5331W        W21140   8.809   6.143   0.503  0.1096 -0.0396  0.3149
 5332W        W21141  13.223   9.524   2.362  0.0817 -0.2349 -0.0675
 5333W        W21142  17.397   9.698  14.248 -0.1388  0.0455  0.2144
 5334W        W21143  12.862  12.502  12.043 -0.0228 -0.0760 -0.4364
 5335W        W21144   4.100  15.694  13.212  0.0654  0.1035  0.3825
 5336W        W21145   7.851   7.246  16.247 -0.0347  0.1000 -0.1961
 5337W        W21146  12.450   4.873   2.659 -0.3894 -0.0431 -0.4377
 5338W        W21147   0.222   7.032  11.630 -0.1413  0.1221  0.0703
 5339W        W21148  14.642  17.781  13.097 -0.0537 -0.1136  0.2895
 5340W        W21149  13.834   7.594   2.310  0.0683  0.2169  0.0239
 5341W        W21150  16.446  17.603   1.128 -0.0858  0.1116  0.0440
 5342W        W21151   0.031   9.966  15.470 -0.0543 -0.0897 -0.1612
 5343W        W21152  16.460  11.576   4.046  0.0806 -0.0305 -0.4267
 5344W        W21153  13.257   0.163   4.165  0.1483  0.0755  0.2507
 5345W        W21154   3.174  14.885   2.031 -0.1272  0.0104  0.2647
 5346W        W21155   5.348   5.137   1.293  0.3586  0.1180  0.2352
 5347W        W21156  15.544   5.050   3.957  0.2646  0.1349 -0.0047
 5348W        W21157   6.101   9.787  15.021 -0.2382  0.2587  0.2349
 5349W        W21158   6.142   9.399  15.354 -0.0485 -0.0857 -0.5644
 5350W        W21159   9.609   8.359   2.628  0.1387 -0.0917  0.2934
 5351W        W21160  11.522  11.269   4.271  0.0946  0.1217  0.1020
 5352W        W21161   4.769   4.236  12.147 -0.1531 -0.0397  0.3372
 5353W        W21162  10.516   1.682  11.801 -0.2376 -0.0667 -0.0743
 5354W        W21163   7.574  15.630  16.188 -0.0441 -0.0931  0.0761
 5355W        W21164  15.391  10.429   0.720 -0.1728  0.0368 -0.0955
 5356W        W21165  11.713   4.881  14.734 -0.3740  0.3662 -0.2179
 5357W        W21166   1.462   1.168  13.727  0.0807  0.0609  0.0964
 5358W        W21167   7.712  16.472   1.982 -0.1621 -0.1074  0.2042
 5359W        W21168  15.836   9.462  15.861 -0.0001  0.0405 -0.0188
 5360W        W21169   9.448  14.325   6.163  0.1216  0.1341  0.0550
 5361W        W21170   8.373   3.953   2.156 -0.2700  0.2255 -0.1959
 5362W        W21171  13.697   7.608  14.460 -0.0263 -0.0402  0.1899
 5363W        W21172   3.187  14.716  11.274 -0.1834 -0.0098  0.1603
 5364W        W21173   1.174  17.888   3.691  0.0167  0.2266  0.4019
 5365W        W21174  13.087   5.356   3.683  0.3461 -0.1536 -0.1563
 5366W        W21175   0.950   9.118  12.765 -0.2088  0.1683  0.0176
 5367W        W21176  17.726  12.962  11.970  0.2542  0.1976  0.0521
 5368W        W21177   4.179  15.769   3.775 -0.0369  0.1091 -0.2232
 5369W        W21178   2.364   1.925   3.825 -0.1481 -0.1713  0.1433
 5370W        W21179   7.783  15.734   3.486 -0.0534  0.0919 -0.0554
 5371W        W21180   8.906   1.042   0.473  0.0324 -0.0635 -0.0977
 5372W        W21181  12.784  11.956   0.554  0.1151 -0.0599  0.0256
 5373W        W21182  10.850   5.043   2.732  0.0053 -0.2670  0.3213
 5374W        W21183   9.964  11.135   4.788  0.2499 -0.4529 -0.1202
 5375W        W21184   7.516  12.775  11.432  0.2683  0.0766  0.1233
 5376W        W21185   4.354   1.602   1.673 -0.0104 -0.1714  0.1240
 5377W        W21186  13.338  11.278  14.764 -0.0311  0.2683 -0.0787
 5378W        W21187   4.453   6.434   4.091  0.0233  0.1549 -0.0670
 5379W        W21188  10.597   0.394  14.733 -0.0379  0.4736 -0.0913
 5380W        W21189   7.634  10.101  14.327  0.0236  0.0254  0.0479
 5381W        W21190  16.566  14.698   1.945 -0.1561  0.0910  0.3768
 5382W        W21191  13.170  11.755  14.591  0.0992 -0.1658 -0.2132
 5383W        W21192   8.422   8.716  13.272 -0.2501 -0.0130 -0.2317
 5384W        W21193   6.546   3.811   4.549 -0.4235  0.2480  0.0891
 5385W        W21194  14.804  15.812  11.921 -0.0306 -0.2687  0.2789
 5386W        W21195   2.602  14.725  12.226  0.2243  0.0257 -0.0108
 5387W        W21196   6.544   5.934   0.094  0.1027 -0.0718  0.0566
 5388W        W21197  10.188   2.660   1.352 -0.4334 -0.2461 -0.0993
 5389W        W21198   2.385   4.978   3.362 -0.1126 -0.0960 -0.1347
 5390W        W21199   8.334  16.435  13.007 -0.0632 -0.1262 -0.0816
 5391W        W21200   2.267  14.947  13.710 -0.1707 -0.2328  0.2805
 5392W        W21201  14.484  10.675  13.315  0.1803  0.0409  0.1960
 5393W        W21202   4.714   9.105   3.154 -0.1531 -0.2022 -0.1928
 5394W        W21203  15.661   2.434  12.020 -0.0713 -0.0002 -0.3540
 5395W        W21204  16.048   7.875  14.503  0.2581 -0.2780 -0.0283
 5396W        W21205   8.333  13.177  15.747 -0.3096  0.0601  0.0463
 5397W        W21206  11.110   2.348  15.426  0.1443 -0.1259 -0.1901
 5398W        W21207  17.244   7.467   3.410 -0.0045 -0.0987  0.1384
 5399W        W21208   0.632  14.087   3.403  0.3524  0.2296 -0.2306
 5400W        W21209   5.499   5.235   4.288  0.1484  0.0498  0.0912
 5401W        W21210   1.541  13.480   1.959  0.0915 -0.2389 -0.3625
 5402W        W21211   5.759  14.608   3.669  0.4159 -0.0654 -0.3333
 5403W        W21212   0.160  14.643  14.391 -0.3132 -0.0000  0.0487
 5404W        W21213  10.542   2.578   2.214  0.0514 -0.1415  0.4119
 5405W        W21214   7.328   2.352   1.001  0.2342  0.1050  0.0102
 5406W        W21215   1.808   9.446   1.864  0.2487 -0.0007 -0.1564
 5407W        W21216   2.869   1.504   1.929  0.1195 -0.0680  0.2137
 5408W        W21217  10.316   1.955   4.000 -0.1605  0.0964  0.0894
 5409W        W21218  14.519  12.967  13.153  0.0546 -0.2308  0.0722
 5410W        W21219   3.528  18.008   1.343 -0.3913 -0.2309 -0.0601
 5411W        W21220  12.563   4.633  12.292 -0.1274 -0.2186 -0.0999
 5412W        W21221   0.223   3.230  12.179  0.2588 -0.1028  0.1083
 5413W        W21222   0.493  13.294   1.937  0.0148 -0.3363 -0.0132
 5414W        W21223  11.347   2.667   4.080  0.0112  0.1292 -0.0450
 5415W        W21224   5.833  13.372   5.008 -0.1194  0.1396 -0.0527
 5416W        W21225   0.086   7.221  12.641 -0.1145  0.0366 -0.2783
 5417W        W21226   6.583   5.963   2.841 -0.0163  0.2744 -0.0969
 5418W        W21227  10.770   3.329   0.011 -0.2305 -0.1326 -0.0613
 5419W        W21228  11.638   3.438  15.306 -0.1794 -0.2278 -0.2303
 5420W        W21229  12.180  13.661  11.488  0.2781 -0.1954 -0.1281
 5421W        W21230  14.514   4.532   3.272 -0.2516  0.3334 -0.0259
 5422W        W21231   5.820  15.402  14.955 -0.1011  0.2838  0.0819
 5423W        W21232   0.353  15.278  13.762  0.0544  0.0774  0.0220
 5424W        W21233   2.451   8.603   3.053 -0.0922  0.0380  0.0391
 5425W        W21234   4.490   1.812   3.011 -0.0471 -0.2282 -0.0828
 5426W        W21235   7.081   7.537   1.981  0.1566 -0.3067 -0.1603
 5427W        W21236  17.905   1.257  11.660  0.1393  0.3946  0.1779
 5428W        W21237   9.944   1.723   4.293 -0.1396 -0.0706 -0.0348
 5429W        W21238   5.075  10.315  11.737  0.0188  0.1087  0.0486
 5430W        W21239  10.803  15.158  15.877 -0.2894  0.1719  0.0223
 5431W        W21240   4.722  16.323   0.985  0.2220 -0.0110  0.0459
 5432W        W21241   1.978  12.799   3.957  0.0180 -0.0343 -0.0309
 5433W        W21242   3.047   8.113  14.784  0.1432  0.1322  0.1967
 5434W        W21243   9.582  13.066   3.876 -0.2278 -0.1062  0.2247
 5435W        W21244   9.256   0.589  14.235  0.1798  0.1392  0.1308
 5436W        W21245  15.701   7.982   0.675  0.0023 -0.2212  0.0830
 5437W        W21246   5.585   7.174  11.181  0.1451  0.2256 -0.0392
 5438W        W21247   9.459   3.748  13.314 -0.0794 -0.2710 -0.1882
 5439W        W21248   2.772   1.202  13.576  0.1571 -0.1288  0.0552
 5440W        W21249   4.765   2.393  12.949  0.1037  0.0163 -0.0543
 5441W        W21250  17.846   5.756   3.008  0.0205  0.0951 -0.2377
 5442W        W21251  10.087  13.971   1.648  0.0933 -0.4188 -0.0769
 5443W        W21252   5.559   9.656   3.683  0.2801  0.2212 -0.1874
 5444W        W21253   9.725  14.662   1.424 -0.3017  0.1301  0.2648
 5445W        W21254  17.514  15.719  14.461 -0.1755 -0.3302 -0.0494
 5446W        W21255   7.913  15.805   1.184 -0.2514 -0.1830 -0.1057
 5447W        W21256   7.568   0.657  15.969 -0.0216 -0.0060 -0.1156
 5448W        W21257   7.992   2.792  10.721  0.2242  0.2437 -0.2354
 5449W        W21258  16.664   2.843  10.848  0.0055  0.0015  0.0040
 5450W        W21259   5.650   0.496  13.677 -0.0686  0.2019  0.0865
 5451W        W21260   1.581  10.966   1.297  0.2203  0.2055  0.1721
 5452W        W21261   4.921   8.023  14.445 -0.2705 -0.1535 -0.1859
 5453W        W21262   7.021  12.888  13.950  0.0546  0.0489  0.0180
 5454W        W21263   2.661  12.545  13.553 -0.1715  0.0918 -0.3612
 5455W        W21264   6.600   5.121  14.228  0.1896 -0.2405 -0.2531
 5456W        W21265   3.654   3.190   5.986  0.1789 -0.1534  0.1451
 5457W        W21266  17.203   3.100  14.417  0.1301  0.1055  0.0736
 5458W        W21267   9.559   0.277  11.597 -0.4258 -0.0046  0.1841
 5459W        W21268   5.930   5.942  15.600  0.0628 -0.0141  0.1561
 5460W        W21269   9.660  17.728   0.238  0.0172  0.0465 -0.2864
 5461W        W21270   1.062  10.551   5.765  0.1344 -0.2241  0.0857
 5462W        W21271   2.098   4.744   2.323  0.0307 -0.2502 -0.0124
 5463W        W21272  11.725   8.481   0.711  0.1207  0.1261 -0.0211
 5464W        W21273   1.552  11.262   0.799  0.1778 -0.1300 -0.1718
 5465W        W21274  16.032   2.102   5.200  0.0130 -0.1477  0.2526
 5466W        W21275   4.903  17.402  15.379 -0.0160  0.3394  0.2218
 5467W        W21276   9.824  13.563   2.516  0.1408  0.0062 -0.0428
 5468W        W21277   4.192   7.364   4.594 -0.1684 -0.2560 -0.1466
 5469W        W21278  14.394   5.319   3.460 -0.0278 -0.0543  0.0003
 5470W        W21279  11.878   4.141   4.720  0.1379 -0.0110  0.2453
 5471W        W21280   0.482   3.246   1.217 -0.1614  0.0389 -0.1645
 5472W        W21281   8.185   7.806  11.901  0.3194  0.1598  0.0696
 5473W        W21282   9.515   4.839   0.542 -0.1975  0.1810 -0.1195
 5474W        W21283  12.835  14.633   4.715  0.0075 -0.1609  0.1772
 5475W        W21284  11.060  10.628  13.555 -0.3964  0.0012  0.0333
 5476W        W21285  13.601  13.396   2.353 -0.1857 -0.3062 -0.1228
 5477W        W21286  17.344  14.599   1.364 -0.0728  0.0403  0.0075
 5478W        W21287   8.977  13.105  12.561  0.1817 -0.0504  0.2529
 5479W        W21288  15.421   5.063   5.705  0.2776  0.1586 -0.0701
 5480W        W21289   7.162  14.036  13.751  0.2265 -0.2861 -0.2521
 5481W        W21290   7.074   4.822  12.562  0.0558 -0.3883 -0.2349
 5482W        W21291  17.412   2.468   4.240 -0.0029 -0.3364 -0.0931
 5483W        W21292  12.485  16.337  12.872  0.2616 -0.2918  0.0753
 5484W        W21293  10.686   7.441  14.206  0.0555 -0.0931  0.1656
 5485W        W21294   1.642  11.734   1.669  0.1022 -0.0966 -0.1234
 5486W        W21295   4.023  12.174   1.063  0.0045 -0.0972  0.1423
 5487W        W21296  10.211   5.014  12.225  0.1579 -0.0588  0.0125
 5488W        W21297  14.745  15.278  12.349 -0.0275  0.0058 -0.3834
 5489W        W21298   1.676  16.339  12.478  0.1642  0.2090 -0.1803
 5490W        W21299   9.187   2.257   4.743  0.1248 -0.2315  0.3093
 5491W        W21300   7.345   6.256   6.339 -0.3850 -0.0218  0.2118
 5492W        W21301   9.528  17.484   3.752  0.1847  0.1121  0.0007
 5493W        W21302  15.032   8.883  15.159 -0.1763 -0.0668  0.1496
 5494W        W21303  10.356   1.765   1.874 -0.0668  0.0964  0.1373
 5495W        W21304  17.598   9.301  14.581  0.2056  0.0949 -0.1160
 5496W        W21305  12.307  15.059  11.464 -0.1761  0.2024 -0.2356
 5497W        W21306  11.414   3.172   4.941  0.1820  0.2926 -0.2748
 5498W        W21307   0.968   6.319  14.443 -0.0179 -0.1736 -0.1358
 5499W        W21308   3.963  10.051  14.138 -0.0754 -0.0392 -0.1376
 5500W        W21309   6.476   2.243  13.331 -0.0331  0.0729 -0.0980
 5501W        W21310   4.279  12.230  15.042 -0.0280  0.1286  0.4653
 5502W        W21311  12.785  13.182   5.590  0.0047  0.5495  0.0133
 5503W        W21312  10.853   6.414   3.569  0.0950  0.3029  0.1107
 5504W        W21313   1.380   7.488   2.169 -0.0554  0.0664 -0.1326
 5505W        W21314   1.933   8.477   2.151 -0.1162  0.0387  0.0920
 5506W        W21315  14.956   9.810  11.524  0.0151  0.1251  0.1660
 5507W        W21316   9.898   3.186  15.325  0.2981  0.0882  0.1653
 5508W        W21317  10.500  11.192  10.874 -0.1478 -0.1435  0.2570
 5509W        W21318  14.327   7.231   3.078 -0.1411  0.0232 -0.0056
 5510W        W21319  16.530   6.152   3.169 -0.1757  0.1168  0.2795
 5511W        W21320   6.935  11.087  14.588 -0.0047 -0.0799  0.2027
 5512W        W21321   2.026   3.084   4.633  0.0131  0.1092 -0.1263
 5513W        W21322   1.488  13.997   2.730 -0.3321  0.1825  0.2541
 5514W        W21323  13.302   1.557  15.450  0.1354 -0.2644  0.1679
 5515W        W21324   0.452   9.591  14.701 -0.3889  0.0480  0.3219
 5516W        W21325  14.724   4.816  14.658 -0.0333 -0.3490 -0.1077
 5517W        W21326  14.179  10.420  14.688  0.0935  0.3292 -0.1377
 5518W        W21327   5.390  12.240  13.368 -0.1755 -0.1565  0.1761
 5519W        W21328  17.272   1.349  13.899  0.0340 -0.0849 -0.2760
 5520W        W21329   1.046   5.916  12.410 -0.2950  0.2522  0.0850
 5521W        W21330   4.182  12.691  16.137  0.1958  0.0228  0.0063
 5522W        W21331  11.006   5.578  14.207 -0.0487 -0.0779 -0.3862
 5523W        W21332   9.892  11.115   2.495  0.2048 -0.1208 -0.0876
 5524W        W21333   0.266  16.414   1.321 -0.0553  0.0532  0.2213
 5525W        W21334  11.711   9.462   1.237  0.2236 -0.1675 -0.0946
 5526W        W21335   2.815   3.853  13.290 -0.0129  0.0845 -0.0028
 5527W        W21336   3.525  18.166  12.583  0.2288 -0.0624  0.2001
 5528W        W21337   5.904  10.297   2.737 -0.0610 -0.0473  0.2135
 5529W        W21338   6.061   8.209   3.911 -0.0840  0.0718 -0.2529
 5530W        W21339   7.394  12.020  14.058  0.0651  0.0665  0.0221
 5531W        W21340  11.922  11.438   0.593  0.0747  0.1432 -0.1797
 5532W        W21341  14.255   6.923  13.518 -0.2150 -0.1193 -0.0212
 5533W        W21342  11.010  11.686  10.972 -0.1482  0.2813  0.0758
 5534W        W21343  17.433  14.078  13.204  0.0228 -0.0224 -0.0472
 5535W        W21344   4.324   3.462  15.004  0.3953 -0.0500 -0.1082
 5536W        W21345  11.900   8.180  15.284 -0.0352 -0.3976  0.0641
 5537W        W21346  17.347   7.097   3.779 -0.0956  0.3440  0.1268
 5538W        W21347   0.640  10.007  14.505  0.3283  0.1419  0.1786
 5539W        W21348  16.526  13.632   1.753  0.0221  0.0800  0.0419
 5540W        W21349   7.865  13.672  14.657  0.0583 -0.1326  0.1588
 5541W        W21350   8.632  17.997  12.354 -0.0683  0.0021 -0.0078
 5542W        W21351   4.494   7.354  11.680 -0.0503 -0.2834 -0.1284
 5543W        W21352   2.804   2.060   5.305  0.3219 -0.1035  0.2128
 5544W        W21353   8.264  13.645   3.685  0.1340 -0.3534  0.1662
 5545W        W21354   5.681   1.064   4.583  0.3208  0.0074  0.2197
 5546W        W21355   9.372   6.628  13.838  0.2520  0.0665 -0.0580
 5547W        W21356   7.944  17.311  11.776  0.0438 -0.1047  0.0498
 5548W        W21357   9.763  17.838  15.599  0.2941 -0.1336  0.2795
 5549W        W21358   7.213  16.880   3.148  0.1637 -0.0265 -0.0709
 5550W        W21359  17.610   6.671  11.957  0.0277  0.3929  0.0434
 5551W        W21360   3.110   7.090   1.953 -0.0997  0.2634 -0.1521
 5552W        W21361  13.518  12.465   1.250  0.2020 -0.1501 -0.1884
 5553W        W21362  13.747   9.681  14.303 -0.4465  0.2699 -0.2224
 5554W        W21363   3.507  13.857  15.154 -0.0326  0.1189  0.0301
 5555W        W21364  12.267  12.985  16.096 -0.0587 -0.1670 -0.3858
 5556W        W21365  11.208  14.371   3.804 -0.2870  0.0124  0.0024
 5557W        W21366  16.499  12.856   0.799  0.0032 -0.1934 -0.0153
 5558W        W21367   8.920   6.073   2.300 -0.0030 -0.2798  0.2380
 5559W        W21368  10.642   2.596  10.990  0.0666 -0.0512  0.3773
 5560W        W21369   4.910   3.046  14.494  0.2711 -0.0159 -0.2302
 5561W        W21370  16.997   1.591   1.977 -0.4959 -0.1000  0.1256
 5562W        W21371   9.150  12.124   0.589 -0.0088  0.1279  0.0053
 5563W        W21372  16.896  13.543   2.902  0.1161  0.3413  0.1218
 5564W        W21373   9.641  11.165  13.842  0.1943  0.2007  0.2381
 5565W        W21374   4.035   3.181  15.316 -0.0255  0.0900  0.3553
 5566W        W21375  14.998  11.806  11.989 -0.2718 -0.0068 -0.1729
 5567W        W21376   4.599   1.075   1.594  0.3432  0.1214 -0.0653
 5568W        W21377  11.429   3.873  15.471  0.0179  0.3119  0.1362
 5569W        W21378   4.366  12.077  14.101  0.1284 -0.0339 -0.0651
 5570W        W21379   5.101   6.556   0.571  0.1532  0.3122 -0.0358
 5571W        W21380  14.787   3.753   2.097 -0.0648 -0.0107 -0.0519
 5572W        W21381   6.194   1.493   2.431  0.0740  0.0949 -0.3057
 5573W        W21382   9.090   2.628   4.419  0.2776  0.1085  0.1460
 5574W        W21383  16.817   4.220   3.807  0.1624  0.0119  0.0704
 5575W        W21384   5.137   3.569  11.373  0.0353  0.0945 -0.3074
 5576W        W21385   3.446   7.810  14.971 -0.0086  0.1228 -0.2807
 5577W        W21386  12.981  10.803   3.600 -0.4679  0.1131 -0.0400
 5578W        W21387   0.451  14.801   1.341  0.2873 -0.0231  0.0457
 5579W        W21388   7.561   5.467   4.126  0.3260 -0.3186  0.1110
 5580W        W21389   9.434   7.346  11.218 -0.1542  0.1549  0.0681
 5581W        W21390  17.597   3.848  12.702 -0.0506  0.1918 -0.2598
 5582W        W21391  12.875   6.142  13.843 -0.2346 -0.0680  0.0887
 5583W        W21392  12.189  16.230   1.450  0.2824  0.1809  0.0412
 5584W        W21393  13.579   9.650   2.831 -0.1253  0.2368 -0.1147
 5585W        W21394   3.392  10.254   4.583 -0.0390  0.1657 -0.3561
 5586W        W21395   6.717   6.156  15.981 -0.1992 -0.2243  0.1046
 5587W        W21396  17.365  11.669  14.075 -0.3065  0.0182  0.0221
 5588W        W21397  14.124  11.988  10.951 -0.0876 -0.0921  0.1358
 5589W        W21398   6.153  17.550   3.843 -0.1703  0.0727  0.1343
 5590W        W21399  16.241  13.045   1.158  0.1560 -0.1095 -0.1308
 5591W        W21400  15.262   5.547  14.356 -0.2899  0.0394  0.1507
 5592W        W21401   0.041  14.122  14.029  0.3046  0.0662  0.0015
 5593W        W21402   0.959  17.784  12.698 -0.0052 -0.0182  0.0892
 5594W        W21403   6.851  13.523  13.146  0.3285 -0.0979  0.0177
 5595W        W21404  12.136   4.730  14.499 -0.0732 -0.0866 -0.1399
 5596W        W21405   9.422   3.062  10.683  0.0059 -0.0147  0.0473
 5597W        W21406  11.681  16.466  15.416  0.2167  0.4496  0.4668
 5598W        W21407   8.940   6.675  11.743  0.2933 -0.2637 -0.0745
 5599W        W21408   7.978  12.152   2.908 -0.1597 -0.1758  0.0966
 5600W        W21409  10.559  17.702   1.431 -0.3198 -0.1606 -0.0131
 5601W        W21410   4.258  11.979   2.401 -0.2027  0.0661 -0.2056
 5602W        W21411  14.679  16.040  16.084 -0.0544 -0.2700 -0.1457
 5603W        W21412  14.708  13.632   0.103  0.1641 -0.0030  0.0525
 5604W        W21413  13.088  15.581   0.353  0.2250 -0.3351  0.0928
 5605W        W21414   5.657  18.090   4.616 -0.3554  0.1495 -0.2483
 5606W        W21415  16.913  11.363  15.519  0.1248 -0.0053 -0.1083
 5607W        W21416  15.768  17.994  14.434 -0.3326  0.0119 -0.1263
 5608W        W21417   5.113   3.491   0.236 -0.4052 -0.1378 -0.2203
 5609W        W21418  15.772  17.653  15.990  0.1338 -0.0246  0.0773
 5610W        W21419   6.889   5.491  11.619 -0.1566 -0.0813 -0.0333
 5611W        W21420  12.941  17.863  14.517  0.0773  0.1149 -0.0778
 5612W        W21421  12.519   0.379  11.428 -0.2231  0.0608  0.0691
 5613W        W21422  10.655  16.772  14.384  0.1306  0.1963  0.0236
 5614W        W21423   6.154   2.537   1.699 -0.1713 -0.2192  0.0470
 5615W        W21424   0.869  13.008  15.627 -0.1318  0.0240 -0.1296
 5616W        W21425  15.220  13.389   1.957 -0.1751  0.0023 -0.0263
 5617W        W21426  18.104  10.553   0.947 -0.2950  0.0066 -0.0353
 5618W        W21427  15.624  13.637   1.037  0.2642  0.0896  0.1239
 5619W        W21428  16.385  16.742  15.047 -0.0344  0.2711  0.1642
 5620W        W21429   8.411   8.127   1.562 -0.3820 -0.0232 -0.0834
 5621W        W21430   9.031   1.265  14.094  0.0596  0.0556  0.2227
 5622W        W21431  18.112   8.917   0.923  0.0319  0.1386  0.2454
 5623W        W21432   1.018   1.492   0.162  0.1105  0.2497  0.1763
 5624W        W21433   6.925   0.282   1.924 -0.2996  0.2392 -0.1521
 5625W        W21434   7.995  11.650  11.533 -0.2600 -0.2182 -0.1726
 5626W        W21435  12.409   8.145  13.325  0.0231 -0.1220 -0.3021
 5627W        W21436   0.937   8.813   0.047 -0.1461  0.0764 -0.1987
 5628W        W21437   3.249   4.858  14.539 -0.2259  0.2221 -0.2035
 5629W        W21438  12.516   0.520  13.335 -0.1388 -0.0596  0.2779
 5630W        W21439   0.985   4.565   5.067 -0.0073  0.0668 -0.2345
 5631W        W21440   9.419  14.681  14.725 -0.5747 -0.0128 -0.1579
 5632W        W21441   8.042  15.341   2.774  0.0544 -0.0180  0.1858
 5633W        W21442   7.798  17.208  13.822  0.1402  0.0104  0.1873
 5634W        W21443   5.750   5.917   5.064 -0.0733  0.2098 -0.0064
 5635W        W21444   2.503   3.079   4.509 -0.0771 -0.2739 -0.6185
 5636W        W21445   1.585  14.318   0.676 -0.1168 -0.1127  0.1699
 5637W        W21446  16.698   2.172   6.024 -0.0928  0.1054  0.1823
 5638W        W21447   0.571   2.538   1.763  0.0098  0.0040 -0.1230
 5639W        W21448   4.509  16.474  14.648 -0.2252 -0.1298  0.2923
 5640W        W21449   0.683  14.521   2.248  0.0421  0.3155  0.0636
 5641W        W21450   2.168   9.311  13.124  0.0761 -0.3111  0.2475
 5642W        W21451   6.234  18.018  15.079  0.0115  0.1563 -0.0562
 5643W        W21452  15.095   2.547  11.993 -0.0230  0.0042  0.1928
 5644W        W21453  15.817   9.191   2.614  0.1476  0.1799  0.1859
 5645W        W21454   3.057   0.012  12.757 -0.2329 -0.0914 -0.3716
 5646W        W21455  13.150   1.285   3.404  0.0115  0.1336 -0.0711
 5647W        W21456   6.440  13.797  11.991  0.1096  0.0612 -0.0310
 5648W        W21457  11.382   1.177   2.942 -0.2528  0.2857  0.2363
 5649W        W21458  14.474   3.886  12.993  0.0949  0.2494 -0.2413
 5650W        W21459  15.250  10.824   1.117 -0.0262 -0.0504 -0.3415
 5651W        W21460   5.690  12.245  16.328 -0.0621  0.2206  0.1263
 5652W        W21461  15.026   9.496  13.358 -0.3132  0.2039  0.3015
 5653W        W21462   2.468   9.669  15.183 -0.1282  0.0199 -0.2924
 5654W        W21463  14.082   0.584   4.208 -0.0646 -0.1229 -0.3400
 5655W        W21464  15.933  11.876  14.164  0.0663 -0.3076  0.2910
 5656W        W21465   0.464   1.865  13.972 -0.1680  0.2381 -0.1986
 5657W        W21466  18.190  14.344   0.865  0.0273  0.0841  0.1950
 5658W        W21467   5.834   0.953  14.686 -0.1249  0.1924 -0.0246
 5659W        W21468  10.313  12.476   2.563  0.1581  0.0487  0.0188
 5660W        W21469   9.879   6.550  14.022  0.0365 -0.1096  0.0585
 5661W        W21470   6.771   8.865  12.342  0.0287  0.2534  0.0630
 5662W        W21471  14.716   0.271   4.735  0.0190  0.2294 -0.1088
 5663W        W21472   9.057  15.100   2.059  0.1220 -0.2437 -0.0062
 5664W        W21473   8.201   0.796  13.665 -0.1663 -0.0745 -0.1565
 5665W        W21474  14.414   7.482   4.834 -0.1252 -0.0208  0.1057
 5666W        W21475   2.077   6.375  15.630  0.1885  0.1847 -0.0943
 5667W        W21476   0.517   1.909  13.320 -0.1809 -0.4496 -0.0225
 5668W        W21477   8.950  15.818   0.179 -0.0846  0.1270 -0.1087
 5669W        W21478   7.630   8.065   0.832  0.0536 -0.1815 -0.5205
 5670W        W21479   8.995  15.861   1.395 -0.3552 -0.1455 -0.0427
 5671W        W21480   6.972   9.565   2.210 -0.1208 -0.0959 -0.1800
 5672W        W21481  10.295  12.735  12.709  0.0735  0.1259  0.0982
 5673W        W21482   3.915   2.641   5.878  0.2327  0.1205  0.0586
 5674W        W21483   2.125   5.989  16.035 -0.0134 -0.3653 -0.1985
 5675W        W21484   2.529  14.688   3.390  0.3908  0.0572 -0.0807
 5676W        W21485   1.188   8.347  13.174 -0.1214 -0.1901  0.0411
 5677W        W21486   7.762  14.357  14.609  0.2515  0.1164  0.1018
 5678W        W21487   0.617   0.346   1.036  0.0496  0.1632 -0.0021
 5679W        W21488   5.029  16.518  11.419  0.0607  0.0286  0.1205
 5680W        W21489  11.201   2.020  13.019  0.1081 -0.1394  0.0520
 5681W        W21490   0.758   4.151   6.736 -0.0920  0.0553 -0.1670
 5682W        W21491   5.012   4.046   2.531  0.0121  0.3055  0.0926
 5683W        W21492   9.272   9.422  12.644  0.2684  0.1502 -0.0893
 5684W        W21493   8.788   9.104  15.498 -0.1785 -0.3564  0.2197
 5685W        W21494   9.578  10.149  10.906  0.0804 -0.2064 -0.2207
 5686W        W21495  14.307   5.979   5.101  0.0712  0.2480 -0.0028
 5687W        W21496   3.456   8.963   3.256  0.1564 -0.1190  0.0663
 5688W        W21497  16.756  12.286   3.559  0.3393 -0.2603  0.1712
 5689W        W21498   5.905   7.420  11.513 -0.0040  0.1312  0.0190
 5690W        W21499  14.049  17.719   3.320  0.1527  0.0053 -0.0886
 5691W        W21500   2.965  11.473  16.326 -0.2900 -0.3399  0.2807
 5692W        W21501   4.580  15.549   3.217 -0.0058  0.1659  0.0554
 5693W        W21502   9.974   4.087  11.850  0.3136  0.3375  0.2429
 5694W        W21503   0.059  16.494   2.375 -0.0154  0.0161  0.0060
 5695W        W21504   3.215   6.250   1.871  0.0220 -0.1542 -0.2013
 5696W        W21505  13.299   8.331  15.682  0.0991 -0.1593 -0.0951
 5697W        W21506   6.501   6.437  13.604 -0.2447  0.2962 -0.2397
 5698W        W21507  16.803  10.277  12.130 -0.0098 -0.3086  0.1339
 5699W        W21508   0.184  17.828   0.873  0.0665  0.0476 -0.5318
 5700W        W21509   7.943   3.088   2.056  0.0470  0.0889  0.0129
 5701W        W21510   6.514  14.666  11.210  0.1354 -0.0824  0.0768
 5702W        W21511   4.595   9.847   1.028  0.0795  0.2870 -0.3000
 5703W        W21512  17.714   6.437   4.314  0.2890 -0.0844 -0.0255
 5704W        W21513  13.654   8.231  10.812  0.1147  0.0608 -0.2136
 5705W        W21514   0.176   8.157  15.280  0.1652 -0.0698 -0.0140
 5706W        W21515   0.673  17.463  13.400  0.0483 -0.0126  0.1179
 5707W        W21516   8.840   9.326   4.130  0.2707 -0.2418  0.0165
 5708W        W21517  17.668  17.035  15.166 -0.1349 -0.1329 -0.0746
 5709W        W21518  16.371   1.064   0.142  0.1007  0.3043 -0.0730
 5710W        W21519  16.976   5.012   2.735  0.2198  0.1816 -0.0758
 5711W        W21520   9.111  10.747  11.544  0.0074 -0.0573  0.1723
 5712W        W21521   4.045   6.391  12.279  0.0681 -0.0319 -0.1482
 5713W        W21522  17.340  17.850  15.824  0.1643  0.1356 -0.0605
 5714W        W21523  15.475   0.600   1.462  0.0421 -0.1661  0.1451
 5715W        W21524  17.859  17.135   4.803 -0.1752 -0.0509 -0.0390
 5716W        W21525   2.514   0.833   3.865  0.1881  0.2634  0.1115
 5717W        W21526   2.746   2.963   3.019 -0.0773 -0.0345  0.3629
 5718W        W21527   1.583   4.090   6.092  0.0120 -0.3319 -0.1005
 5719W        W21528   3.977   2.281   4.839  0.3829 -0.3497  0.2344
 5720W        W21529  15.116   7.601  16.121 -0.0004 -0.0388 -0.3384
 5721W        W21530   0.968   4.857  16.360 -0.2311 -0.0758 -0.0207
 5722W        W21531   9.420   2.350   5.157  0.2131 -0.1229  0.0116
 5723W        W21532   3.049   1.485  12.296 -0.3592 -0.0833  0.1200
 5724W        W21533  14.388   5.723  12.416  0.1422  0.3856  0.0832
 5725W        W21534  17.301   6.491   4.034 -0.0993 -0.1319 -0.1327
 5726W        W21535   3.082  15.512   5.173  0.1114  0.2135  0.2188
 5727W        W21536  17.994  17.737  14.779  0.1045 -0.1031  0.0388
 5728W        W21537   8.119  17.265  15.575  0.0181 -0.0995 -0.0551
 5729W        W21538  11.524   8.599  13.452 -0.1594  0.0413 -0.1307
 5730W        W21539  17.683  12.065   0.158 -0.1922 -0.0714 -0.0133
 5731W        W21540  14.709   3.450  15.026 -0.1088 -0.2742  0.2228
 5732W        W21541   8.003   3.310   3.544 -0.1038  0.1788  0.2638
 5733W        W21542   6.635  12.226  11.399  0.1537  0.0824  0.0738
 5734W        W21543   0.739   1.079   1.620 -0.2458 -0.2297 -0.0724
 5735W        W21544   4.241  10.248   1.820  0.1894  0.0072  0.2968
 5736W        W21545  10.267  16.760   4.183 -0.0473 -0.1250  0.1030
 5737W        W21546  15.285  10.741  14.546  0.0573  0.2696 -0.0063
 5738W        W21547   3.402   0.790   0.090  0.0650 -0.0190 -0.4886
 5739W        W21548  15.197  17.287   0.764  0.1884 -0.1081  0.1031
 5740W        W21549   6.315  14.412   2.969 -0.3840 -0.0677  0.0167
 5741W        W21550  17.987  16.156   3.073 -0.4857  0.1319 -0.0510
 5742W        W21551   0.225   9.581   5.033 -0.0321 -0.1192  0.0317
 5743W        W21552  11.061  11.746   1.001  0.0476 -0.0329  0.0417
 5744W        W21553   6.538   2.120  12.824 -0.3506 -0.1217 -0.2976
 5745W        W21554   8.549   9.757  14.460  0.0457 -0.0940  0.0452
 5746W        W21555  12.637   6.181  15.587  0.0613  0.0748 -0.1309
 5747W        W21556   0.409   0.153  13.554  0.0841 -0.0570  0.4275
 5748W        W21557   6.899  17.648  15.584 -0.0857  0.0473  0.0837
 5749W        W21558  15.029   0.374   1.456 -0.1981  0.1495  0.1399
 5750W        W21559  13.413   5.352  12.255 -0.1221 -0.1787 -0.0611
 5751W        W21560   3.155   4.201  15.227 -0.0339  0.4041 -0.1537
 5752W        W21561  15.313  11.963   0.267  0.0622 -0.1957 -0.1127
 5753W        W21562   9.961   7.751  12.976  0.2192  0.0999 -0.0017
 5754W        W21563   5.799  16.983  12.052  0.3554 -0.3197 -0.0262
 5755W        W21564   5.879  14.566   0.898  0.0298 -0.5357 -0.1705
 5756W        W21565   1.692   0.202   2.475  0.0047  0.0569  0.1377
 5757W        W21566  11.247   9.609  12.426 -0.3055 -0.0181 -0.1073
 5758W        W21567   3.038   9.337   1.082 -0.0496 -0.0377  0.1394
 5759W        W21568   5.151   4.466  11.976 -0.0241  0.1726 -0.4302
 5760W        W21569   3.036   8.031   4.451 -0.1714  0.2283  0.1057
 5761W        W21570  16.694  13.032   1.577  0.0860 -0.2576  0.0757
 5762W        W21571  15.055   8.226   3.800  0.1863  0.0118 -0.0982
 5763W        W21572   7.542   5.393   5.613 -0.1009 -0.0334  0.0557
 5764W        W21573   9.720  15.282   4.602 -0.1357  0.0799  0.0579
 5765W        W21574   5.321  16.122  15.698  0.2241  0.4150 -0.1177
 5766W        W21575  13.033  17.497   3.629 -0.0910  0.1640 -0.0554
 5767W        W21576  15.226   0.333  12.289  0.0143 -0.0705  0.0775
 5768W        W21577   0.028  13.876  12.930 -0.0910  0.0299 -0.3801
 5769W        W21578  17.030  13.204   3.227 -0.1595 -0.0708 -0.1357
 5770W        W21579  11.492   5.333  11.107  0.1706  0.3695 -0.0381
 5771W        W21580   1.963   2.619   0.657 -0.0517 -0.3166 -0.0819
 5772W        W21581  13.645   7.624   0.025 -0.5120  0.1878  0.2208
 5773W        W21582  10.456  14.915   5.036 -0.2099  0.4533  0.2000
 5774W        W21583  11.546  16.909   4.698  0.0747  0.1751 -0.1136
 5775W        W21584  12.174   3.802  12.922  0.1368 -0.0400 -0.0578
 5776W        W21585  15.421  13.831   4.615  0.0403 -0.1324  0.2372
 5777W        W21586  14.444  12.938   0.517  0.0589 -0.1269  0.2138
 5778W        W21587   8.961  17.998  12.935  0.1685  0.1226  0.1089
 5779W        W21588  16.768   9.447  13.099  0.0402 -0.1664  0.3076
 5780W        W21589  17.147  15.995  11.424  0.0471 -0.0913 -0.0308
 5781W        W21590   0.999  10.726  11.861  0.0275 -0.0369  0.2176
 5782W        W21591   3.942   0.407   1.452 -0.0273  0.1865  0.2324
 5783W        W21592  14.393  13.719   5.578 -0.3032 -0.4646 -0.0045
 5784W        W21593  13.699   4.181  13.783  0.1820  0.1024 -0.0292
 5785W        W21594   5.519   1.852   2.866 -0.3032  0.0499  0.0734
 5786W        W21595  16.405   4.979   2.024 -0.0976  0.0080  0.1317
 5787W        W21596   0.076   0.394   1.285 -0.2477  0.0213  0.0913
 5788W        W21597   8.698  10.383   2.339  0.2173 -0.2565 -0.3122
 5789W        W21598  16.098   1.444   5.744 -0.2417 -0.0638  0.0356
 5790W        W21599   0.220  10.354   5.680  0.1495 -0.0971  0.1396
 5791W        W21600  11.970   8.433  13.340 -0.0464  0.1239  0.2775
 5792W        W21601  17.781  12.233   2.645  0.0068  0.0908 -0.0889
 5793W        W21602   1.538  15.400  15.571  0.1889  0.3510  0.0048
 5794W        W21603  10.201   3.796  12.205 -0.0399 -0.1502  0.2553
 5795W        W21604  15.102  14.961   2.933  0.1087 -0.0514 -0.1485
 5796W        W21605  12.550   3.327   1.612 -0.0918 -0.2097  0.0306
 5797W        W21606   6.200  10.434   4.693  0.1322 -0.2969  0.3126
 5798W        W21607  13.139  13.003  14.044  0.1709  0.0915 -0.0136
 5799W        W21608   0.351  13.129  11.974  0.1262  0.2838 -0.1235
 5800W        W21609   9.963   7.006  13.918 -0.1130 -0.0214 -0.3735
 5801W        W21610   8.895   3.625   2.134 -0.0686  0.0789  0.0353
 5802W        W21611  10.509   7.874  12.659  0.1696  0.1582 -0.3340
 5803W        W21612  14.000   2.554   3.023 -0.0893  0.1352 -0.0297
 5804W        W21613   2.272   0.112   0.283 -0.3521  0.2029 -0.0183
 5805W        W21614  14.886   8.680  12.993  0.0490 -0.0391 -0.2492
 5806W        W21615   9.877   1.931   4.823  0.2040 -0.1251 -0.1940
 5807W        W21616   0.526   0.674  16.213  0.0803 -0.1140  0.0770
 5808W        W21617   5.220  15.848  16.099 -0.0027 -0.2383 -0.1490
 5809W        W21618  12.291   3.362  12.491  0.1647  0.0605  0.1458
 5810W        W21619   2.144   0.190   2.714 -0.0176 -0.1646 -0.2867
 5811W        W21620   4.972  11.693   2.117  0.3273 -0.0836 -0.0168
 5812W        W21621  10.155   5.136  15.333  0.1759 -0.2107  0.0067
 5813W        W21622  12.839  14.976   0.198 -0.1992  0.3906  0.0512
 5814W        W21623   3.505  11.240   4.467  0.2060 -0.0043 -0.0863
 5815W        W21624   7.859   1.334  11.217  0.0689 -0.1089 -0.0668
 5816W        W21625  10.019   4.575  13.259 -0.1435  0.0034  0.0856
 5817W        W21626   5.100   7.537  12.218 -0.0382  0.4477 -0.2449
 5818W        W21627   5.094   1.251   3.194 -0.1511 -0.1443  0.0106
 5819W        W21628   1.942  12.302  12.673 -0.0231  0.0599  0.0747
 5820W        W21629   1.550   8.071   2.842 -0.0287  0.3143  0.0549
 5821W        W21630   2.129  13.769   5.229 -0.0319  0.1281  0.1493
 5822W        W21631   2.120   6.723   3.998  0.0284  0.0721  0.0514
 5823W        W21632   4.569   8.402   5.285 -0.1929 -0.0805  0.0110
 5824W        W21633   7.289   7.130   1.826 -0.0566  0.1053  0.1865
 5825W        W21634   3.511   8.328  14.569  0.1212  0.0482 -0.1027
 5826W        W21635   7.846  17.913  11.653  0.2824 -0.0233 -0.1470
 5827W        W21636   8.393   3.933   0.257 -0.2549 -0.1557  0.3429
 5828W        W21637  12.297  12.381   0.612 -0.0454 -0.1861 -0.1265
 5829W        W21638   0.727  17.421   0.287  0.0336  0.0124  0.2016
 5830W        W21639   8.159   0.975  11.034  0.0649  0.1140  0.1984
 5831W        W21640  13.393   0.334  13.175 -0.0028  0.2120  0.2560
 5832W        W21641  15.029  10.727  14.114  0.1741 -0.0717  0.2558
 5833W        W21642  17.095  13.948  13.580  0.1192 -0.1780 -0.3000
 5834W        W21643  18.014  14.492   3.039 -0.0864 -0.0967 -0.1855
 5835W        W21644  13.856   0.540   3.215  0.0712 -0.1133 -0.1106
 5836W        W21645   8.887   3.667   3.511  0.1749 -0.1039  0.1678
 5837W        W21646   2.152  11.624   1.578  0.0664  0.1088  0.0125
 5838W        W21647  16.929   9.008  10.955 -0.2746  0.1058 -0.0823
 5839W        W21648   4.845   8.407  13.390  0.1186  0.0356  0.2163
 5840W        W21649   2.879  13.962  13.076 -0.0095  0.0427 -0.1589
 5841W        W21650   0.878   3.883  12.605 -0.2240  0.1629 -0.1127
 5842W        W21651  13.350  14.305  13.124  0.0829 -0.1578 -0.0499
 5843W        W21652   8.083   5.192   0.200 -0.0372 -0.0619  0.0471
 5844W        W21653   9.917  15.240  11.139  0.2829 -0.2163  0.0402
 5845W        W21654  17.792  12.800   5.937  0.1777 -0.1366  0.2966
 5846W        W21655   3.089   5.179   1.514  0.1299 -0.0079  0.1980
 5847W        W21656  14.359   7.752  12.400 -0.1776 -0.3282 -0.0350
 5848W        W21657  10.965   5.919   1.862 -0.0727 -0.3280  0.0690
 5849W        W21658  12.645  10.470   2.832 -0.0753  0.0773  0.1009
 5850W        W21659  11.494   6.018   1.933 -0.2211  0.0841  0.4574
 5851W        W21660   7.244  12.125  12.306  0.0347  0.5271 -0.0368
 5852W        W21661   6.524   0.217  15.031  0.0249  0.2341  0.0418
 5853W        W21662   4.861   9.164  15.591 -0.2859 -0.1394  0.0796
 5854W        W21663   3.204  17.789  12.536 -0.2125 -0.1229  0.0384
 5855W        W21664  15.102  10.529  10.361  0.0483  0.2801  0.0371
 5856W        W21665   1.456  17.117   3.327 -0.3198  0.1512 -0.1880
 5857W        W21666   3.030   6.950   6.363 -0.2090  0.0429 -0.0459
 5858W        W21667  11.947   8.024  13.007 -0.0852  0.1395  0.0951
 5859W        W21668  12.135   4.139   3.138  0.3484  0.1672  0.0260
 5860W        W21669   4.341  17.050   2.011  0.0896 -0.1008 -0.0047
 5861W        W21670  11.813   6.034  13.174  0.1010  0.0556 -0.4564
 5862W        W21671   7.842  14.884   4.163 -0.2387  0.1946 -0.0954
 5863W        W21672   2.759  12.232  13.965  0.0921  0.1126 -0.2716
 5864W        W21673   7.613   9.082  12.421  0.1469 -0.1477  0.0980
 5865W        W21674   6.507  15.682  11.812 -0.1080 -0.5108 -0.1172
 5866W        W21675   7.032   1.899   4.930  0.1346 -0.1315 -0.0746
 5867W        W21676   4.420   6.780   2.338 -0.0446  0.0905  0.0552
 5868W        W21677  16.026  15.945   0.174 -0.1527 -0.0361  0.1066
 5869W        W21678   3.342  13.925  16.239 -0.1532 -0.0302 -0.2306
 5870W        W21679  14.964   7.862   1.927  0.3747 -0.1292 -0.3101
 5871W        W21680  15.646  15.553   3.824 -0.0659  0.2149 -0.1770
 5872W        W21681  16.231   7.079  16.300 -0.2543  0.2545  0.2421
 5873W        W21682   6.245  16.401   1.531  0.0263  0.0682  0.1041
 5874W        W21683   2.545   1.182  15.177 -0.1059 -0.2400  0.0755
 5875W        W21684  12.586  14.274   1.697 -0.3226  0.1770 -0.0236
 5876W        W21685  13.172  16.380   1.646 -0.0287 -0.1730 -0.1601
 5877W        W21686  17.198   6.184  13.078 -0.0594 -0.0085  0.0495
 5878W        W21687   1.587   9.162   6.293 -0.2420  0.1805 -0.0017
 5879W        W21688  17.046   8.839  14.170  0.0413  0.0368 -0.4706
 5880W        W21689   0.795  13.655   3.981  0.0297 -0.1981 -0.1392
 5881W        W21690  13.630   3.363   0.587 -0.1518  0.0157  0.0064
 5882W        W21691   5.228   7.562  16.236 -0.0462  0.1415 -0.2275
 5883W        W21692  14.453  12.611  15.564 -0.2013  0.0469  0.0109
 5884W        W21693   0.616   4.100   2.439 -0.1972  0.2454 -0.7260
 5885W        W21694  10.850  13.516  12.885  0.2016 -0.0105 -0.2091
 5886W        W21695  12.232  11.866   0.497 -0.1989 -0.1194  0.2081
 5887W        W21696  11.811  10.548  11.253  0.0173  0.1354  0.1544
 5888W        W21697  15.339  11.396   0.883  0.3334 -0.1940  0.0101
 5889W        W21698   4.319  14.495   4.414  0.2163  0.0436 -0.1245
 5890W        W21699  16.576   4.919  11.794 -0.3359  0.3000  0.4267
 5891W        W21700  13.206   8.462  14.260 -0.0165  0.0351  0.0493
 5892W        W21701   0.311   5.076   5.355  0.0754 -0.1106 -0.0847
 5893W        W21702   2.180   7.237   5.047 -0.2314  0.0963 -0.0922
 5894W        W21703   7.363   9.973   2.344  0.1208  0.1096  0.2281
 5895W        W21704   8.839   1.086   4.092 -0.0359  0.4124  0.1022
 5896W        W21705   0.277   4.200  14.774  0.0035  0.0230 -0.1979
 5897W        W21706   5.942   2.097   3.838  0.1811 -0.0812  0.2546
 5898W        W21707   9.119   0.751  11.230 -0.2489 -0.0933  0.0674
 5899W        W21708   8.039   7.768  15.286  0.1686  0.2141 -0.0432
 5900W        W21709  15.278  17.921  14.576 -0.1705  0.1678  0.1848
 5901W        W21710   7.109  10.917  11.886  0.0129 -0.1761  0.3992
 5902W        W21711   0.156   1.367   1.135  0.1867  0.1791 -0.0467
 5903W        W21712   5.327  16.673   2.346 -0.0014 -0.1762 -0.1998
 5904W        W21713  17.861  13.097  13.627 -0.0980  0.2794  0.0973
 5905W        W21714  11.457   2.353  13.380 -0.0181 -0.0973 -0.0635
 5906W        W21715  16.905   4.580  11.002  0.0510 -0.0510  0.0628
 5907W        W21716   3.077   1.610   5.402  0.1665  0.2872 -0.0730
 5908W        W21717  11.931  15.028   0.785 -0.1145 -0.1351  0.0948
 5909W        W21718  17.908   7.374   4.279  0.1728  0.2480 -0.2118
 5910W        W21719   4.014  11.618  12.087  0.1138  0.1933  0.0596
 5911W        W21720  12.843  15.394   3.801 -0.1599 -0.0296  0.0297
 5912W        W21721   4.031  12.352  12.786 -0.2558  0.4963  0.0300
 5913W        W21722   9.295   0.799   1.287  0.3111 -0.1885 -0.2724
 5914W        W21723  14.643  11.301  12.086 -0.0774 -0.2557  0.2305
 5915W        W21724   9.593   6.372  13.434  0.1397 -0.0692 -0.1141
 5916W        W21725  17.940  17.199  15.655 -0.1863 -0.4485  0.3502
 5917W        W21726   2.963   7.968  14.098  0.0104  0.0214  0.1964
 5918W        W21727   2.895  15.175   4.003 -0.2981 -0.0637 -0.3378
 5919W        W21728   4.194  13.677   2.917 -0.0503  0.1549  0.1332
 5920W        W21729   1.696  16.018   2.448 -0.0871  0.2279 -0.0478
 5921W        W21730   9.787   2.602   5.394  0.2759 -0.0247 -0.1965
 5922W        W21731  17.022   8.224   4.464  0.0716 -0.1352  0.0321
 5923W        W21732  17.968  14.335  11.287 -0.1651 -0.3182  0.0678
 5924W        W21733  17.147   7.905   4.098 -0.2922  0.3223 -0.0677
 5925W        W21734   5.165  13.207   1.323 -0.0164  0.1467  0.0573
 5926W        W21735  10.826  11.326  12.585 -0.1722 -0.0786  0.5480
 5927W        W21736   3.836  14.749  15.202  0.0515  0.0632 -0.1008
 5928W        W21737   0.154  16.835   1.000 -0.0794 -0.3642 -0.3177
 5929W        W21738  12.713   7.973  15.381 -0.1168 -0.1268  0.0646
 5930W        W21739  15.359  16.945   6.211  0.1140  0.1715  0.2719
 5931W        W21740  14.107   1.247  15.788  0.1279 -0.1034  0.0370
 5932W        W21741  15.823   4.682  15.720  0.2011  0.1410  0.0681
 5933W        W21742   0.267  13.464   0.465  0.0808 -0.2328  0.0673
 5934W        W21743  14.309  16.904   5.002  0.1166  0.2005  0.0107
 5935W        W21744   3.375  15.122   3.841  0.0507  0.2641 -0.0899
 5936W        W21745  16.615   4.732   0.614  0.0779 -0.1085 -0.3234
 5937W        W21746  12.796  12.931   2.416  0.1730  0.1359  0.0581
 5938W        W21747  11.397   5.589  15.456  0.2522 -0.0118  0.1581
 5939W        W21748  15.055   8.798   4.616 -0.5371  0.0646  0.1066
 5940W        W21749  11.888   8.179   0.004  0.0974 -0.1357  0.0516
 5941W        W21750   2.843  16.446  10.783  0.1518 -0.3294 -0.2162
 5942W        W21751  16.104   2.555   1.765 -0.0633 -0.5093 -0.1108
 5943W        W21752   2.261  16.796  11.362 -0.1216  0.2300 -0.1351
 5944W        W21753  17.691   3.963   5.363  0.1745  0.1282  0.0481
 5945W        W21754   6.884   8.873  11.830  0.1486  0.2371 -0.3392
 5946W        W21755   2.679   5.676  15.805  0.0478  0.0554 -0.3018
 5947W        W21756  13.119  16.628  12.023  0.2017  0.4611  0.0090
 5948W        W21757   5.694  13.017  12.030  0.0512 -0.0435  0.1444
 5949W        W21758  14.265   0.775   0.740  0.1117  0.2703  0.0173
 5950W        W21759   1.523  10.290   3.036 -0.3538  0.1539 -0.0795
 5951W        W21760  15.017   6.601   3.226  0.0682  0.1580 -0.0031
 5952W        W21761   1.900  10.239   0.100  0.3280  0.2818  0.5142
 5953W        W21762   0.298   6.354   3.643 -0.1028  0.1964  0.2171
 5954W        W21763  13.977  16.669   5.427 -0.3466 -0.0745  0.0667
 5955W        W21764   1.143   5.812   0.259  0.1833  0.0025 -0.0950
 5956W        W21765   7.698  17.651   3.675  0.3807 -0.0318 -0.1688
 5957W        W21766   2.268  15.309  13.299 -0.5276  0.0190  0.0300
 5958W        W21767  11.118  10.671  14.906 -0.2318 -0.0668 -0.0618
 5959W        W21768  11.181   7.936   1.750  0.1159  0.1402  0.0717
 5960W        W21769  16.101   7.441   1.528 -0.1291 -0.1906  0.0884
 5961W        W21770   8.095   7.199  13.323  0.0509  0.2648 -0.1029
 5962W        W21771  16.606  12.237  11.517 -0.2278  0.0063 -0.1658
 5963W        W21772   0.390  14.184  14.416 -0.4605  0.0838 -0.1537
 5964W        W21773   3.085  13.975   2.832 -0.2391  0.0137  0.0949
 5965W        W21774  12.622  15.909  13.797  0.0419  0.1714 -0.0470
 5966W        W21775  11.069   4.111   2.034  0.0214  0.1033  0.3073
 5967W        W21776  11.476   1.444   3.999  0.1704 -0.0195  0.1645
 5968W        W21777  17.629   0.111   4.546  0.0210 -0.0084 -0.1033
 5969W        W21778   7.166   3.776   5.056 -0.2409  0.0161  0.1298
 5970W        W21779   8.648   6.178  16.046  0.3507 -0.0934 -0.0479
 5971W        W21780   3.939   9.283   5.554 -0.1558  0.3363  0.0310
 5972W        W21781  10.039   4.935  14.180  0.2836 -0.0702 -0.0482
 5973W        W21782  18.046   0.797   0.448 -0.1409 -0.3698 -0.0391
 5974W        W21783  13.794   7.382  11.498 -0.2854 -0.1046  0.2778
 5975W        W21784  17.681  13.197   4.623 -0.1181  0.0273 -0.0238
 5976W        W21785   5.070  11.340   3.431  0.1387 -0.0744 -0.1548
 5977W        W21786   4.660  10.075  11.755  0.1181 -0.2863  0.1511
 5978W        W21787   7.952   4.437  11.340 -0.0100 -0.0244  0.1993
 5979W        W21788   7.092   8.004  14.333 -0.0563 -0.1709 -0.0654
 5980W        W21789  15.945   3.347   5.877  0.0182  0.1535 -0.1540
 5981W        W21790   4.442  13.106  14.937 -0.1368  0.0070  0.1192
 5982W        W21791   8.189   6.360   3.121 -0.0233  0.1389  0.0526
 5983W        W21792   0.915   8.274   4.866 -0.2932  0.0881  0.1533
 5984W        W21793  18.218  14.365   1.549  0.0046  0.1737  0.0286
 5985W        W21794   9.586  15.646   1.593  0.0634  0.0170  0.1745
 5986W        W21795  18.014  17.900   5.250 -0.0655 -0.2011 -0.2208
 5987W        W21796   8.775   4.046  15.561 -0.0865 -0.2635 -0.3253
 5988W        W21797  15.317   9.228  10.114 -0.2018  0.0009 -0.1153
 5989W        W21798   9.689  14.687   6.481  0.0690  0.0366 -0.0921
 5990W        W21799   0.207  10.759  14.064 -0.1090 -0.0084 -0.1765
 5991W        W21800  15.043   4.073  13.951 -0.1420 -0.0719  0.1549
 5992W        W21801  11.672   1.826   2.304  0.0704 -0.4078  0.1605
 5993W        W21802  11.785  16.879   3.463  0.0024 -0.2823  0.0198
 5994W        W21803  11.447   8.801   2.075  0.3155  0.1619 -0.4089
 5995W        W21804   1.587  11.477   0.300  0.1236 -0.2761  0.1161
 5996W        W21805  15.391  13.387  13.153 -0.3236  0.2716  0.1349
 5997W        W21806   8.418   1.009  14.765  0.3881  0.1052  0.0377
 5998W        W21807  14.175   6.877  14.016  0.3835  0.1682  0.2728
 5999W        W21808   9.175  15.883  12.928  0.4021 -0.2278  0.1606
 6000W        W21809   6.512   1.690  10.740 -0.1686  0.0614  0.2459
 6001W        W21810  11.529  11.855  13.565  0.0055  0.2049 -0.1190
 6002W        W21811  12.448  13.965  11.181  0.1449  0.3254 -0.3731
 6003W        W21812  16.932   1.393  11.848  0.1266  0.1978  0.2137
 6004W        W21813   8.496   4.993   2.277  0.1040 -0.2179  0.2493
 6005W        W21814  14.416   5.689   3.772 -0.0452 -0.1738  0.2015
 6006W        W21815  15.042   8.633   2.277  0.1087 -0.1122 -0.0026
 6007W        W21816  13.711  13.013   5.215 -0.0087  0.0836 -0.1186
 6008W        W21817  15.878   0.918  10.743  0.1003 -0.2069  0.1698
 6009W        W21818   2.422   7.404  11.801 -0.1718  0.0164 -0.0632
 6010W        W21819   6.130  12.840   5.396  0.2214 -0.0802  0.2470
 6011W        W21820  17.097  17.420   2.328  0.2963 -0.0731  0.2017
 6012W        W21821   0.820   3.535   3.774 -0.1007 -0.2994  0.1049
 6013W        W21822   8.230   2.639  15.673 -0.3447  0.0706 -0.0391
 6014W        W21823   6.597  12.785  14.305  0.0044  0.4379 -0.0333
 6015W        W21824  17.298  16.219  12.668  0.4648  0.2143  0.1614
 6016W        W21825   9.289   8.801   1.842 -0.0077 -0.2177 -0.0733
 6017W        W21826   2.668  13.774   5.233 -0.3308 -0.2333 -0.0757
 6018W        W21827   5.117   7.463  15.747 -0.1317  0.0751  0.0968
 6019W        W21828  11.738   1.594  16.278  0.1289 -0.0005 -0.2307
 6020W        W21829   0.539  17.850   3.356  0.0018  0.2650 -0.1127
 6021W        W21830  10.747   0.189  14.087 -0.3122 -0.2166  0.0112
 6022W        W21831   4.669  17.649  14.163 -0.0935 -0.0230  0.3696
 6023W        W21832  13.225   1.400   2.007 -0.2190  0.0134 -0.0294
 6024W        W21833  11.511  13.800  13.471 -0.2196  0.1564 -0.2082
 6025W        W21834  12.046   4.240   0.942 -0.1439 -0.0041 -0.0642
 6026W        W21835  11.185   8.843   1.504 -0.0624  0.2992 -0.0605
 6027W        W21836   6.071  16.818  14.047  0.2715 -0.1066 -0.3779
 6028W        W21837  14.170  12.157  11.402 -0.2398 -0.1303  0.0752
 6029W        W21838  18.211  17.750   1.880 -0.3787  0.0093 -0.2977
 6030W        W21839   2.896  11.199  11.486 -0.0815 -0.1434 -0.0058
 6031W        W21840  17.444  12.514   2.407 -0.0793 -0.0875 -0.2159
 6032W        W21841   5.038  15.957   5.536  0.1048  0.0478 -0.2979
 6033W        W21842  15.228   8.957  14.172 -0.2581  0.0184 -0.4202
 6034W        W21843   7.177   1.571  14.958  0.0443  0.0324  0.1260
 6035W        W21844   7.734   4.398  14.644 -0.0805  0.0189 -0.1560
 6036W        W21845   1.376  15.833  14.839  0.0403 -0.0314  0.1427
 6037W        W21846  11.954  10.347  12.825  0.0049  0.2261 -0.0463
 6038W        W21847  16.489  15.745   0.123 -0.3132 -0.0854  0.3612
 6039W        W21848   0.036   7.381   2.480  0.2066  0.1020  0.1647
 6040W        W21849   4.655   9.157   0.457 -0.0983 -0.1655  0.0727
 6041W        W21850   7.719  17.201   5.969 -0.0375 -0.0304 -0.2081
 6042W        W21851   4.779  17.691  13.069 -0.4240  0.0378 -0.0777
 6043W        W21852   5.435   2.928  15.436 -0.0165  0.0673 -0.2225
 6044W        W21853  14.674   4.978   0.624  0.1835 -0.1349 -0.1138
 6045W        W21854  12.887  14.125   6.012  0.0820 -0.2261  0.1188
 6046W        W21855  11.146  11.772   2.699 -0.0309 -0.0415 -0.1578
 6047W        W21856   3.009  11.515   0.485 -0.0042 -0.0753  0.1410
 6048W        W21857   0.992  14.966  15.352 -0.1045 -0.2381  0.1061
 6049W        W21858  14.498   8.509   4.720 -0.1797  0.5437  0.1378
 6050W        W21859   3.087   4.866   3.042  0.1831 -0.0020 -0.0336
 6051W        W21860  13.025   6.120  15.971  0.2804  0.0229  0.0601
 6052W        W21861   6.469  13.403   0.248 -0.2080 -0.0172 -0.0112
 6053W        W21862   7.269   4.945   4.340  0.1233  0.0291  0.0526
 6054W        W21863  17.757   0.640   4.157 -0.0212 -0.0151  0.0414
 6055W        W21864  12.787  14.424   2.212 -0.1061  0.0987  0.1110
 6056W        W21865  16.669  14.671   3.763 -0.1313 -0.0711  0.3513
 6057W        W21866   5.283   1.604   1.782 -0.1863  0.1239 -0.0934
 6058W        W21867   6.666  15.633  16.036 -0.3011 -0.0009 -0.0614
 6059W        W21868  11.252  11.581   3.272 -0.0542 -0.1482  0.2468
 6060W        W21869   4.433  15.313  13.197 -0.4006  0.0603 -0.3893
 6061W        W21870   6.051  14.700  15.598 -0.4529 -0.0893 -0.2014
 6062W        W21871   4.172  17.588  12.383 -0.0945 -0.0075  0.1145
 6063W        W21872  14.353   9.063   4.846  0.2478 -0.0823 -0.0481
 6064W        W21873   0.190   9.254  16.058  0.2378  0.0072  0.0021
 6065W        W21874  11.480  14.305   0.879 -0.4327  0.0819 -0.0484
 6066W        W21875   9.083   8.292  13.888  0.1043 -0.1100 -0.2069
 6067W        W21876   1.916  10.605   0.457 -0.0380  0.1465  0.1466
 6068W        W21877  12.936  17.485  15.797  0.0936 -0.0026 -0.1423
 6069W        W21878  17.722   1.743  11.605 -0.0249  0.1767 -0.2957
 6070W        W21879   8.696  17.863  13.354  0.0321 -0.2053 -0.1366
 6071W        W21880  11.074   0.132  14.691 -0.1503 -0.0636  0.0402
 6072W        W21881   3.356   4.232   2.632 -0.0371 -0.0994 -0.0738
 6073W        W21882  10.142   4.170   4.283 -0.2227  0.1571 -0.0603
 6074W        W21883   5.031  12.897  15.991  0.0266 -0.0652 -0.1542
 6075W        W21884   3.087  17.545   3.760  0.2135  0.1992  0.1313
 6076W        W21885  10.426  14.244   3.544 -0.0928 -0.1035 -0.0237
 6077W        W21886   6.602   9.347  12.547 -0.1764  0.2740  0.0692
 6078W        W21887  12.582  17.934   1.705 -0.2546 -0.1538 -0.0127
 6079W        W21888  18.082  17.380  12.270  0.1173  0.0111  0.1281
 6080W        W21889   2.399  18.118   6.043 -0.1860  0.0389 -0.2807
 6081W        W21890  17.541  17.646  12.159  0.3618 -0.3503  0.1323
 6082W        W21891  12.069  12.920  11.901  0.1649 -0.2445  0.2738
 6083W        W21892   3.267   6.335   4.634 -0.0849 -0.0958 -0.3088
 6084W        W21893   6.139  13.420   3.723  0.2173  0.0121 -0.2202
 6085W        W21894  15.211   2.340   3.786  0.1657  0.2885  0.0133
 6086W        W21895   8.566   2.508   1.166 -0.1023  0.3125 -0.1135
 6087W        W21896   2.297   7.982   3.479 -0.0269  0.3950  0.0096
 6088W        W21897  15.011  16.863  12.982  0.1384  0.1869 -0.2923
 6089W        W21898  17.991  15.549   1.304  0.0461  0.3724 -0.1903
 6090W        W21899  17.583   7.054  16.255 -0.0881 -0.0626 -0.0054
 6091W        W21900   7.240   0.251  14.950  0.1066  0.0461  0.1448
 6092W        W21901  14.409   7.249   4.395  0.0453  0.1667 -0.3116
 6093W        W21902   0.453  12.379  14.395  0.0087 -0.2390 -0.2128
 6094W        W21903  14.936   9.959  13.242 -0.0153 -0.3307 -0.3054
 6095W        W21904  13.026   2.868   2.879  0.0794  0.4241 -0.1637
 6096W        W21905  12.467  12.072  14.678  0.0482  0.0996 -0.0617
 6097W        W21906  10.054  12.962   2.728 -0.1467 -0.2822 -0.0560
 6098W        W21907   2.649   5.946   0.870  0.1052 -0.0419 -0.2421
 6099W        W21908   8.125  10.638   0.943 -0.0115 -0.4037 -0.0910
 6100W        W21909  14.395   9.874  14.025 -0.1228  0.2072 -0.0240
 6101W        W21910  11.726   8.241  12.300  0.0248 -0.0681  0.0934
 6102W        W21911   0.803  12.705   4.782 -0.3860  0.2732  0.0744
 6103W        W21912  12.881  14.039  11.507  0.2496 -0.3332 -0.1382
 6104W        W21913   4.501   4.559  13.573  0.0796 -0.0992 -0.0723
 6105W        W21914   8.578   0.257  12.041  0.2599  0.0675 -0.1358
 6106W        W21915   3.903   1.101   2.813  0.2505 -0.0174  0.0283
 6107W        W21916   3.103   7.463  12.421  0.1043 -0.0264  0.1513
 6108W        W21917   6.735   6.066  13.904 -0.1100 -0.0571  0.1836
 6109W        W21918  13.213   8.001  15.274  0.2383 -0.0414 -0.2737
 6110W        W21919   8.470   1.261   4.458 -0.0212  0.0024 -0.1191
 6111W        W21920  15.047   7.867  14.919 -0.1333 -0.0344 -0.3030
 6112W        W21921   1.933   1.526   5.369  0.3265 -0.2559 -0.0156
 6113W        W21922  13.201   6.511  15.802  0.0570 -0.0457  0.1204
 6114W        W21923  16.011  14.620  15.270  0.1312 -0.1720 -0.0399
 6115W        W21924   5.448   0.521   1.220  0.1400 -0.1741  0.3095
 6116W        W21925  16.125  12.780  12.574 -0.0089  0.1392  0.3748
 6117W        W21926   4.616  13.660   2.511  0.0127  0.2364  0.2477
 6118W        W21927  13.989   6.729  15.637  0.1520  0.0327  0.0144
 6119W        W21928  15.230   3.731   5.251  0.1427  0.3266 -0.0822
 6120W        W21929   1.400   6.645   0.743 -0.1371 -0.0869  0.0685
 6121W        W21930  16.495  15.846  15.486 -0.1908  0.0529 -0.2419
 6122W        W21931   0.593  15.342  12.450  0.0566 -0.2258  0.1062
 6123W        W21932   3.466  11.477  12.892 -0.2092  0.2778  0.2539
 6124W        W21933  17.567   7.942   4.972  0.0376  0.0530  0.0416
 6125W        W21934  10.134  13.245   4.137 -0.0780 -0.0702  0.4197
 6126W        W21935   7.366   9.488   3.501  0.0228  0.1018  0.0898
 6127W        W21936   3.508   0.590  12.161 -0.2390 -0.2277 -0.0340
 6128W        W21937   9.826  17.815   5.092 -0.2973 -0.0410  0.1807
 6129W        W21938   8.746  18.058   2.022  0.1996 -0.0089  0.0823
 6130W        W21939   5.227   7.549   1.451 -0.0237  0.2053 -0.1420
 6131W        W21940   4.515   3.199  15.516 -0.0317  0.1085 -0.3050
 6132W        W21941   0.047   8.062  14.796  0.1923 -0.0788  0.4247
 6133W        W21942  11.086   4.055   0.193  0.0076  0.0352 -0.1178
 6134W        W21943   9.199   6.197  12.455 -0.0760 -0.1257  0.0483
 6135W        W21944  15.871   9.969   1.729 -0.1237 -0.0960  0.1374
 6136W        W21945   1.252   6.931  13.308  0.1972 -0.1946  0.1598
 6137W        W21946   0.575   5.619  16.096 -0.5895 -0.2947  0.0310
 6138W        W21947   4.685  12.017  15.317 -0.0619  0.3574 -0.0354
 6139W        W21948  15.686   3.267  14.457 -0.0576  0.0308  0.4083
 6140W        W21949   1.916   4.576   4.744 -0.0689 -0.0720 -0.0249
 6141W        W21950  18.126   9.550   5.443 -0.2128 -0.0011 -0.0135
 6142W        W21951   4.394  10.119   4.906  0.1206 -0.0420 -0.1797
 6143W        W21952  10.578  15.392   1.778 -0.2155  0.3188  0.1321
 6144W        W21953   8.491   4.413  12.165  0.3154 -0.1603 -0.0830
 6145W        W21954   2.276  15.633  14.237 -0.0261  0.0238  0.1177
 6146W        W21955  12.086   0.488  13.658  0.1238  0.0235  0.1421
 6147W        W21956   0.184   4.637  14.509  0.1956  0.1219 -0.1495
 6148W        W21957   5.093   2.159   4.280  0.3507  0.1387 -0.0144
 6149W        W21958   3.127   2.709  12.726 -0.0289 -0.0539  0.1509
 6150W        W21959  10.368  11.033   5.157  0.0491 -0.1788 -0.0757
 6151W        W21960   6.043  16.092  12.906 -0.1161  0.0958  0.1318
 6152W        W21961   0.020  17.842   1.365  0.0370 -0.2857 -0.0104
 6153W        W21962   5.112   3.092  11.368  0.2305  0.2053  0.1654
 6154W        W21963  15.860   8.965  13.572  0.1440 -0.0182 -0.0080
 6155W        W21964   8.402  14.293   5.533 -0.3372 -0.1456  0.2155
 6156W        W21965  15.406  16.963  12.229  0.0412 -0.1167  0.0738
 6157W        W21966   2.156   6.027  10.709 -0.4194  0.0046  0.3111
 6158W        W21967  18.032   3.637   4.726  0.2158 -0.0047 -0.4561
 6159W        W21968   7.559  14.287   5.526 -0.4137  0.1262  0.0778
 6160W        W21969   8.790   0.539  14.861  0.2278 -0.0844  0.0307
 6161W        W21970  15.804  13.436   0.320  0.0076  0.2388  0.0650
 6162W        W21971  15.307   1.570  11.722  0.1719  0.0404  0.0258
 6163W        W21972   7.574  14.563   2.921 -0.1759 -0.2987 -0.1108
 6164W        W21973   4.219   4.270  14.120  0.0200  0.1268  0.2928
 6165W        W21974  11.783  15.819   3.731  0.0974 -0.0551  0.2380
 6166W        W21975   6.764   8.496  14.253 -0.0297 -0.0461 -0.1753
 6167W        W21976   6.576  11.196   1.958 -0.0132 -0.0621 -0.0063
 6168W        W21977   5.205   0.943  12.254 -0.3274 -0.2200  0.2512
 6169W        W21978  13.752   3.682   5.104  0.2403  0.0932 -0.1933
 6170W        W21979   7.928  15.971  16.361 -0.1551 -0.1796 -0.1361
 6171W        W21980   2.211   3.464   4.333 -0.0702 -0.1094 -0.1038
 6172W        W21981   8.983  17.608   0.922  0.1991 -0.0856  0.0386
 6173W        W21982  15.615  14.653  16.172  0.0494  0.0555  0.2466
 6174W        W21983  14.203  12.620  14.105  0.1479 -0.0974  0.0883
 6175W        W21984   0.030   9.108  15.130  0.3920  0.0670  0.5592
 6176W        W21985   3.533   8.585   3.583  0.1317  0.3700  0.1112
 6177W        W21986   0.924   7.420   1.214  0.1479 -0.2084  0.1727
 6178W        W21987   2.012  14.729   3.359 -0.1824 -0.0699 -0.0367
 6179W        W21988   3.025  10.535   1.847 -0.0382 -0.0072 -0.1842
 6180W        W21989   7.810  13.954  16.272  0.0205  0.1779 -0.2027
 6181W        W21990   2.362  10.653   2.724 -0.2925  0.0455 -0.0034
 6182W        W21991  14.732  12.897   3.764  0.3756 -0.0219  0.3798
 6183W        W21992   5.336   6.904   4.406  0.0809 -0.2319 -0.1186
 6184W        W21993  12.968  10.222   3.110 -0.0112 -0.2612 -0.1513
 6185W        W21994  14.235   4.681  12.005  0.0132 -0.2187 -0.2279
 6186W        W21995   7.217  13.559   4.322  0.1297 -0.2220  0.0620
 6187W        W21996   7.146  13.434  13.894  0.1237  0.1270  0.1684
 6188W        W21997  13.960   4.902   5.318 -0.1607  0.2748 -0.3527
 6189W        W21998  13.034  14.478   1.600 -0.3863  0.3854 -0.2859
 6190W        W21999   2.159   8.845   1.766  0.0338  0.0571 -0.0071
 6191W        W22000   1.671  13.189   3.837 -0.1364  0.0535  0.1231
 6192W        W22001   9.081  13.259   3.247 -0.0350  0.1904  0.1032
 6193W        W22002  11.961   6.119   0.622  0.1597 -0.1066 -0.0623
 6194W        W22003   8.090  16.087  13.747 -0.0356 -0.2528 -0.0711
 6195W        W22004   3.831   3.118   0.341 -0.2570 -0.0464  0.4042
 6196W        W22005   0.563   9.160  14.477  0.0903 -0.0097  0.2144
 6197W        W22006   1.440  11.238   1.655  0.1072 -0.0860  0.2695
 6198W        W22007  12.115  10.062  16.056 -0.1432 -0.3440  0.2614
 6199W        W22008   7.427   4.131   4.390  0.1959 -0.3498  0.3092
 6200W        W22009  13.597  11.332   0.655  0.1753  0.0769 -0.1490
 6201W        W22010   2.965   8.454   1.132 -0.5262  0.0302 -0.2881
 6202W        W22011   5.065   9.060   2.657 -0.2506 -0.3919 -0.1743
 6203W        W22012  11.371  12.059   0.258 -0.1774  0.1050 -0.0168
 6204W        W22013  12.415   5.937  16.204  0.4338  0.3052 -0.3176
 6205W        W22014   9.805   6.938   0.105 -0.0063 -0.1202  0.1099
 6206W        W22015   1.689   5.613  15.423  0.2699 -0.0038  0.0371
 6207W        W22016   7.289   5.924   4.046 -0.0696 -0.2174  0.1855
 6208W        W22017   6.188  15.496  13.940 -0.2842  0.0746  0.2136
 6209W        W22018  10.766  15.829   1.439 -0.1819 -0.0683  0.2075
 6210W        W22019  12.083   7.789   3.336 -0.1005 -0.0783  0.1757
 6211W        W22020  10.724   6.563   1.202  0.3501 -0.2081 -0.0776
 6212W        W22021   4.815   0.138  16.061  0.1359  0.2265  0.0599
 6213W        W22022  18.023   0.935   4.497 -0.3374  0.3665 -0.2105
 6214W        W22023  12.790  17.912   5.144  0.0125 -0.2021 -0.1407
 6215W        W22024   9.341  15.652  16.165  0.4369 -0.1669 -0.0458
 6216W        W22025  10.870   3.970   0.621  0.2052  0.1887  0.0311
 6217W        W22026  15.462   7.650   4.115  0.1448  0.0645 -0.0075
 6218W        W22027   1.639   8.395   3.572  0.3381  0.3524 -0.2361
 6219W        W22028   0.178  12.372  13.591  0.0977 -0.1648  0.2410
 6220W        W22029   9.802   1.611  14.789 -0.0053  0.1850 -0.1583
 6221W        W22030  15.136  16.854  15.811  0.1294 -0.3730 -0.0475
 6222W        W22031  17.380   6.560   4.744 -0.0368 -0.1846  0.0714
 6223W        W22032  13.157   9.569  10.624 -0.0184 -0.0477 -0.1035
 6224W        W22033  16.134   0.058  12.413  0.0815 -0.1378 -0.1627
 6225W        W22034   9.414  11.299  12.359  0.1118 -0.0343 -0.2087
 6226W        W22035   2.607   4.768   5.748  0.0033  0.0931 -0.0903
 6227W        W22036  14.485   0.294   3.391 -0.0473 -0.2885  0.3194
 6228W        W22037   1.902   0.388  13.179 -0.0748  0.0012 -0.0817
 6229W        W22038  12.498  16.092  14.402  0.1903 -0.1076 -0.2166
 6230W        W22039   1.746  12.135  15.746  0.1299 -0.1015 -0.0169
 6231W        W22040   0.000  15.417   2.163 -0.1454  0.0913  0.0429
 6232W        W22041  14.023   3.059  12.595  0.3440 -0.1216 -0.2272
 6233W        W22042   5.951  12.876  13.736 -0.2478 -0.0444  0.1175
 6234W        W22043  16.796   4.346   3.306 -0.1118  0.0269 -0.0546
 6235W        W22044   4.649  14.676   0.195  0.0057  0.2040 -0.0570
 6236W        W22045   0.022  16.389   3.605 -0.1588 -0.1832 -0.0553
 6237W        W22046   6.318  11.132  13.931 -0.0564  0.1816  0.3703
 6238W        W22047   4.946  17.842   1.226 -0.1336 -0.0296 -0.0371
 6239W        W22048   8.911  11.284  13.381 -0.0026  0.0653 -0.0257
 6240W        W22049  12.682  18.136  11.479  0.2415 -0.1120  0.0215
 6241W        W22050  10.055  10.947   0.287  0.1772 -0.4308 -0.1332
 6242W        W22051  15.070  13.385  16.140 -0.3536  0.1791 -0.1661
 6243W        W22052  15.325  13.047  15.433 -0.0789  0.3280  0.0586
 6244W        W22053   5.144  15.460   5.403 -0.2316  0.0020  0.0190
 6245W        W22054  10.538   2.840   0.194 -0.1306 -0.0889  0.2687
 6246W        W22055   8.192   6.083   1.787  0.1699  0.1866  0.2351
 6247W        W22056  17.485   9.746  15.241 -0.1021 -0.0609  0.0250
 6248W        W22057  13.823  10.209  10.752 -0.0926  0.2643 -0.4960
 6249W        W22058  13.380  11.935   5.243 -0.1062 -0.0209 -0.2358
 6250W        W22059   3.636   8.927   0.764 -0.0812 -0.1964  0.1411
 6251W        W22060  15.131   3.310  11.798 -0.2684  0.0976  0.0445
 6252W        W22061  15.322  13.836  10.298  0.0165  0.4066  0.1853
 6253W        W22062   1.373   8.877   2.948  0.0316 -0.1034 -0.2906
 6254W        W22063  12.711   4.600  11.791  0.1957 -0.0376  0.0194
 6255W        W22064   1.742   1.945  13.248 -0.2138 -0.2033 -0.2854
 6256W        W22065  11.195  18.037  12.395 -0.0822  0.4445 -0.0732
 6257W        W22066  16.107  15.569   2.100 -0.0952 -0.1803  0.1508
 6258W        W22067  17.344  13.830  15.692  0.4375  0.0588  0.0655
 6259W        W22068  14.777  10.546   0.961  0.0021 -0.1259 -0.0366
 6260W        W22069   5.385  14.905  11.373 -0.1500 -0.3680 -0.2616
 6261W        W22070   7.907   1.628  12.957 -0.1405  0.1130  0.1858
 6262W        W22071  10.445   8.834  14.235 -0.0033  0.0399  0.0366
 6263W        W22072   0.615   0.292   0.574  0.1271 -0.1656  0.1253
 6264W        W22073   0.893  15.185  12.862 -0.2373 -0.1844 -0.0937
 6265W        W22074   7.215  14.231  12.706 -0.3154  0.2677 -0.1801
 6266W        W22075  13.229  14.271  11.843 -0.1972 -0.1950  0.0717
 6267W        W22076   6.645  12.453  13.469  0.2061 -0.2393 -0.1270
 6268W        W22077  10.599  13.937  14.404 -0.0058  0.1886 -0.0247
 6269W        W22078   0.110   2.163   0.800 -0.0908 -0.2247 -0.2471
 6270W        W22079  15.780   1.534   1.170  0.2007 -0.1801 -0.0997
 6271W        W22080   6.686  11.164  15.972 -0.1607  0.0108  0.2148
 6272W        W22081   9.846  10.968  14.265 -0.1398 -0.0760 -0.1362
 6273W        W22082  10.384  16.691   1.455  0.1468  0.3103  0.2464
 6274W        W22083   8.639   5.869  10.688  0.1423 -0.2276  0.0475
 6275W        W22084  15.677   6.093   1.087  0.1955  0.1398 -0.1219
 6276W        W22085   6.863   4.261   3.798 -0.1340 -0.4114 -0.4415
 6277W        W22086   7.659   8.297   4.676 -0.0721 -0.0188  0.1820
 6278W        W22087   8.340   9.281  14.604 -0.0163  0.3463  0.0735
 6279W        W22088   7.767   8.655  11.689 -0.0296  0.0028 -0.0389
 6280W        W22089   4.089  13.484   0.238 -0.1245 -0.0584  0.0494
 6281W        W22090  12.107   5.977   4.893 -0.1868  0.0190  0.2017
 6282W        W22091   7.364  10.228  13.246 -0.0364  0.3250 -0.2198
 6283W        W22092   7.289  11.923   5.806 -0.2415 -0.2926  0.1088
 6284W        W22093  12.846   3.352  15.678 -0.2610  0.0177 -0.0471
 6285W        W22094  17.251   0.510   4.455 -0.0585 -0.0866 -0.2134
 6286W        W22095   8.936   3.025   2.290 -0.2350 -0.0139 -0.3280
 6287W        W22096   5.903   6.505  12.394  0.1151  0.4831  0.0922
 6288W        W22097  12.229   0.946   0.121 -0.0951  0.0001 -0.0956
 6289W        W22098  10.618   5.614   4.568  0.0452 -0.0816 -0.1486
 6290W        W22099  13.812   8.644  10.961 -0.2306  0.0609 -0.1204
 6291W        W22100   4.761  18.103  13.838 -0.1722 -0.2020 -0.0870
 6292W        W22101   6.030  11.368   3.650 -0.1081  0.1131  0.1743
 6293W        W22102  12.167  16.505  11.378  0.0454  0.0705  0.2124
 6294W        W22103  15.255  14.371  15.887  0.1390 -0.3761 -0.1165
 6295W        W22104  12.303   7.707  13.031 -0.0426 -0.3753  0.0518
 6296W        W22105  12.562   3.764  12.585 -0.0202 -0.1809 -0.0726
 6297W        W22106   4.688   5.022   0.760 -0.0416  0.2875 -0.1206
 6298W        W22107   4.308   7.782   5.688 -0.1651 -0.0620  0.1420
 6299W        W22108   5.313   0.149   4.894 -0.2535 -0.0032  0.0881
 6300W        W22109  18.149   3.571  11.971  0.4102 -0.1190  0.0745
 6301W        W22110   1.523   5.905   3.936 -0.1538 -0.0380 -0.2514
 6302W        W22111   0.921   1.217   0.638 -0.0033 -0.1860  0.0140
 6303W        W22112  11.144  15.745   3.731  0.0428  0.0581 -0.0265
 6304W        W22113   9.408   3.167  15.477 -0.1686  0.0915  0.0632
 6305W        W22114   2.419   8.788   2.463  0.2525 -0.2547  0.0350
 6306W        W22115   3.889  10.891   2.160  0.2372 -0.2259  0.0574
 6307W        W22116  16.493  11.303  11.144 -0.1731 -0.0585  0.1285
 6308W        W22117   7.134   8.588   3.163  0.0793  0.0865 -0.1034
 6309W        W22118  15.318  10.369  12.074  0.0547 -0.2971  0.1200
 6310W        W22119  10.623   6.259  10.843 -0.0335  0.1668  0.1455
 6311W        W22120   9.799   2.848  11.047 -0.0137 -0.0865  0.0699
 6312W        W22121  10.210  17.955   4.129 -0.1747  0.1665 -0.0411
 6313W        W22122  13.187  11.286  13.237 -0.0260 -0.3749  0.0686
 6314W        W22123  14.727   5.900   0.166  0.1060  0.0780 -0.0043
 6315W        W22124  17.530   3.247   1.867  0.2734  0.3592 -0.1007
 6316W        W22125  11.289  13.529  12.424  0.0190  0.2091  0.0573
 6317W        W22126   1.206  10.965   5.010  0.0266  0.1137 -0.0789
 6318W        W22127   3.966   0.703  11.902 -0.0282  0.0606  0.0804
 6319W        W22128   9.067   5.533   4.991 -0.0908 -0.0959  0.1505
 6320W        W22129   4.950   6.663   1.668 -0.0037 -0.2374 -0.1105
 6321W        W22130   1.190  12.872  14.660  0.0015  0.1176  0.1765
 6322W        W22131  17.208  11.780  12.426  0.0176  0.0662 -0.0365
 6323W        W22132   8.766  11.536   1.651 -0.1451  0.2708 -0.1419
 6324W        W22133  10.210   7.375   4.805 -0.0382 -0.0301  0.2784
 6325W        W22134  13.713  16.335   5.128 -0.0762 -0.0612 -0.1246
 6326W        W22135  11.162   9.207   1.805  0.3080 -0.0289 -0.2192
 6327W        W22136  11.684  13.356   3.858  0.0260  0.1835  0.1009
 6328W        W22137  15.715   1.179   5.425 -0.0977  0.2869 -0.0203
 6329W        W22138  11.520  16.957   0.831 -0.2639 -0.0990 -0.1460
 6330W        W22139   5.213   4.728  15.002 -0.1086 -0.0013  0.1397
 6331W        W22140  18.001  10.715   4.365  0.2179  0.1079  0.1066
 6332W        W22141  14.339   8.544   1.518  0.1248 -0.0812 -0.2890
 6333W        W22142   4.789  10.133   0.628  0.2619  0.2403  0.0323
 6334W        W22143   3.866   8.594  15.329  0.0698  0.1958  0.1581
 6335W        W22144   2.124  16.828   2.399 -0.0329 -0.0053 -0.1194
 6336W        W22145  10.958   4.992   3.562  0.0557 -0.1557  0.0692
 6337W        W22146  15.464   9.254  15.296 -0.0701 -0.3871 -0.0574
 6338W        W22147   2.997  12.637   2.263 -0.0071 -0.4307 -0.0301
 6339W        W22148   9.459   3.391   2.906 -0.0450 -0.0030  0.2128
 6340W        W22149  17.453  11.933   4.737  0.1551 -0.0342  0.2366
 6341W        W22150   1.227  17.949   2.972  0.0848 -0.0186 -0.0622
 6342W        W22151   2.281   4.884   3.917  0.1384  0.0672 -0.1017
 6343W        W22152   6.177  16.305   5.120  0.2950 -0.0607 -0.2893
 6344W        W22153   0.584  16.993   4.493 -0.0027 -0.1179 -0.0598
 6345W        W22154  10.210  13.873  11.724 -0.0285 -0.1001  0.0243
 6346W        W22155   6.792   4.958   0.835  0.0279  0.1448  0.1471
 6347W        W22156   8.978   1.607  12.840  0.5064 -0.0920  0.2526
 6348W        W22157   1.734  15.890   1.159  0.1409  0.0019 -0.0423
 6349W        W22158  15.074  10.326   4.953  0.0761 -0.1598 -0.1928
 6350W        W22159   7.417  17.933  14.682  0.0463  0.1411 -0.1381
 6351W        W22160   7.443   5.447   0.630 -0.1040 -0.0020  0.1495
 6352W        W22161   7.474  13.697  15.480 -0.1646 -0.0523  0.0494
 6353W        W22162  13.285  16.221   0.793 -0.2985  0.0124  0.0566
 6354W        W22163   6.053  10.204  11.332 -0.3125 -0.2614  0.1555
 6355W        W22164   3.382  10.616  13.312  0.0547 -0.0732  0.2353
 6356W        W22165  17.379  10.460  11.455  0.1282 -0.0556  0.0148
 6357W        W22166   5.515  15.683  15.683 -0.0708  0.2102  0.0011
 6358W        W22167   5.784  12.628   0.860  0.2120  0.0866  0.0926
 6359W        W22168   9.635   1.949  15.912  0.0252 -0.2724  0.1849
 6360W        W22169   4.022   2.253   3.716  0.1833 -0.2159  0.1589
 6361W        W22170   6.910   8.805  15.388  0.1019 -0.0741  0.0634
 6362W        W22171  16.562   3.227   4.928 -0.0811 -0.0102  0.1093
 6363W        W22172  16.500   5.126   5.536 -0.0580 -0.1300  0.1945
 6364W        W22173   9.382  11.761   5.178  0.0001 -0.1245  0.3815
 6365W        W22174   7.212  13.719   1.445 -0.1418  0.0231  0.3265
 6366W        W22175  15.605   4.264   4.588 -0.0168 -0.0738 -0.1454
 6367W        W22176  14.336   8.633   0.557 -0.0401 -0.1023 -0.1003
 6368W        W22177   9.264   5.777   2.585 -0.3023  0.1461  0.1480
 6369W        W22178  16.565   5.211   4.152 -0.0655 -0.0552  0.0190
 6370W        W22179  16.851  15.018  15.780  0.0673  0.0315  0.0422
 6371W        W22180   6.401   9.973   1.824 -0.2975 -0.2317 -0.0944
 6372W        W22181   7.964   7.774  16.251  0.1023 -0.0085 -0.1534
 6373W        W22182  13.037   2.173  11.983 -0.1668  0.2313  0.0078
 6374W        W22183  12.427   3.752  15.537  0.1138 -0.3727  0.0361
 6375W        W22184   0.372  12.646   2.073  0.0631  0.0344 -0.0528
 6376W        W22185  16.310   3.960  12.747  0.1289  0.0582  0.2275
 6377W        W22186  16.940   0.917  12.642  0.0914 -0.1796  0.1763
 6378W        W22187   9.706   1.386  14.351  0.0447  0.0259 -0.1067
 6379W        W22188  15.321  17.411   6.351  0.1921  0.1539  0.3524
 6380W        W22189   1.522  10.728  13.291  0.2016 -0.2370 -0.0720
 6381W        W22190  16.277   3.051   0.174  0.1115 -0.3160  0.0474
 6382W        W22191  16.892   7.615  15.018 -0.1000 -0.0676  0.1937
 6383W        W22192   9.014  17.239   0.447 -0.1769  0.0982  0.0682
 6384W        W22193   3.795  13.467   3.001  0.0149  0.1074  0.0956
 6385W        W22194  14.838   1.731  13.524  0.0896 -0.0126  0.1271
 6386W        W22195  15.391   0.141  11.113 -0.3009  0.1220  0.0177
 6387W        W22196  14.533  14.556  11.179 -0.0912  0.5199 -0.0472
 6388W        W22197   9.564   5.779   0.780  0.1825 -0.0120 -0.0268
 6389W        W22198  14.133   3.648  11.410  0.0110 -0.3169 -0.1075
 6390W        W22199  17.970   5.769  13.307 -0.0934 -0.0870  0.1366
 6391W        W22200  14.318   7.766  14.490  0.1256  0.0856  0.0338
 6392W        W22201  18.082   8.400  15.739  0.1482 -0.0524  0.0584
 6393W        W22202  15.462   0.138   3.582 -0.1972  0.1666 -0.0531
 6394W        W22203   4.557   1.452   3.899  0.1378 -0.1065  0.3222
 6395W        W22204  13.402   1.954   4.637  0.3656 -0.1307  0.0793
 6396W        W22205  11.603   4.360  15.257 -0.3419 -0.4376  0.1194
 6397W        W22206  17.384   4.481   0.962 -0.2330 -0.0545 -0.0206
 6398W        W22207   9.792  17.544  13.549 -0.0413 -0.0523 -0.0571
 6399W        W22208   8.841  13.433  11.782 -0.1198 -0.3041  0.2910
 6400W        W22209  17.987  11.513  16.245 -0.0514  0.1488  0.0052
 6401W        W22210  10.688   4.927   4.590  0.1383 -0.4566 -0.0711
 6402W        W22211  11.438  11.365   2.784 -0.1805  0.2459  0.1973
 6403W        W22212  10.192  12.909   1.880 -0.0090 -0.2198  0.0285
 6404W        W22213  11.226   1.778  14.900 -0.3082 -0.0059  0.0205
 6405W        W22214   1.777   8.297  13.658  0.5128  0.2808  0.2696
 6406W        W22215  17.081   0.462   0.854 -0.1564 -0.2763  0.0759
 6407W        W22216  16.330   9.937  11.298  0.1590  0.1034 -0.0382
 6408W        W22217   3.239  12.724   1.830 -0.4142 -0.0337  0.1112
 6409W        W22218   1.430   1.908  12.482  0.4571  0.0531  0.1076
 6410W        W22219   7.349   0.304   1.274  0.2142  0.0592  0.1462
 6411W        W22220   6.457   2.973   0.299 -0.0546 -0.3111 -0.1995
 6412W        W22221  12.463   3.859   2.875 -0.2476 -0.0554 -0.0783
 6413W        W22222   9.240  15.218  14.403 -0.2163 -0.0005  0.2713
 6414W        W22223  15.463  12.804   3.080 -0.0236 -0.3206 -0.2325
 6415W        W22224   1.841  13.510  14.522  0.3935 -0.1889  0.0894
 6416W        W22225   7.550   9.536   2.463 -0.0432 -0.2343  0.0399
 6417W        W22226  15.912  13.593  15.902  0.0786  0.2390 -0.1919
 6418W        W22227  13.858   6.028  16.244 -0.1111  0.1153 -0.2916
 6419W        W22228  12.531   6.219  12.709 -0.0440  0.0776 -0.4515
 6420W        W22229   4.085   6.797  15.228  0.0197  0.0115  0.1936
 6421W        W22230   0.972  17.738   0.885  0.2747 -0.1775  0.1077
 6422W        W22231   1.680   0.296  12.619 -0.0532 -0.1955 -0.0251
 6423W        W22232   8.042   1.049   4.440  0.0065 -0.2496 -0.0633
 6424W        W22233  18.172   2.524  15.845 -0.0859  0.0476 -0.1733
 6425W        W22234   2.988   9.944  10.131 -0.2827  0.0114 -0.1080
 6426W        W22235   2.648   5.903   2.471 -0.0156  0.1988 -0.0316
 6427W        W22236   4.060   7.025   6.173 -0.1967  0.2430 -0.1849
 6428W        W22237   6.017  13.824  13.715  0.1267  0.0105 -0.1268
 6429W        W22238   2.637   6.232  14.560  0.0692 -0.1857 -0.1222
 6430W        W22239   1.555   4.864  13.701 -0.2428  0.1703 -0.2030
 6431W        W22240   0.918   1.847  12.279 -0.0949  0.0661 -0.1837
 6432W        W22241   4.036   8.435  11.670 -0.2475 -0.0432  0.1112
 6433W        W22242   2.072   6.366  14.362  0.1762  0.1828 -0.2394
 6434W        W22243   4.286  17.980  14.001 -0.1593 -0.1227 -0.0567
 6435W        W22244   6.119   1.771   1.091 -0.0970 -0.0471  0.2608
 6436W        W22245   2.662   6.544   4.260  0.1813  0.3720  0.1382
 6437W        W22246   5.278  15.539  13.415  0.0210  0.2638  0.2000
 6438W        W22247   3.886  17.381  10.927 -0.4136  0.1324  0.4106
 6439W        W22248  12.902   0.162   1.761  0.1193 -0.1927  0.0986
 6440W        W22249  14.077  10.020   1.291 -0.2360  0.1395  0.2508
 6441W        W22250  11.799   1.597   0.427 -0.1474 -0.1626 -0.1138
 6442W        W22251  13.224   0.639  15.615  0.1359 -0.0309  0.2504
 6443W        W22252   4.994   6.055   0.518 -0.1891 -0.0272  0.0021
 6444W        W22253  11.748  14.301   1.353  0.2652 -0.1063 -0.0997
 6445W        W22254  10.174   4.625  12.638  0.1401  0.0379 -0.4075
 6446W        W22255   3.224   3.176  12.855 -0.0079 -0.2187 -0.2341
 6447W        W22256  16.507   4.985   1.368 -0.0763  0.2918  0.1078
 6448W        W22257  15.513   4.208   0.111  0.1036 -0.1152 -0.0545
 6449W        W22258   5.586   5.118   5.739  0.1194 -0.0598 -0.1462
 6450W        W22259   2.205   8.371  14.876  0.0289  0.0462 -0.0761
 6451W        W22260  11.135  11.560  14.041 -0.0415 -0.0427 -0.2742
 6452W        W22261   2.455   5.380   3.829 -0.0264 -0.0325 -0.3203
 6453W        W22262   6.222   3.310  15.262 -0.0200  0.0188  0.0395
 6454W        W22263  14.761   6.137   4.986 -0.0685  0.0212 -0.1290
 6455W        W22264  18.131   3.844   1.379 -0.0475 -0.0164 -0.1421
 6456W        W22265  11.714  13.351  14.821  0.0598  0.2347  0.2221
 6457W        W22266   0.526  11.617   3.587  0.1975 -0.0936  0.2328
 6458W        W22267   9.509   5.390   4.678 -0.1142 -0.0002  0.1722
 6459W        W22268   0.983   4.027   3.656 -0.3133  0.1307  0.0746
 6460W        W22269  11.927   5.603  15.453  0.3064 -0.0253 -0.1019
 6461W        W22270  17.075  10.811  11.281  0.1322 -0.0921  0.1058
 6462W        W22271   3.992  14.697  11.439  0.0622 -0.0824  0.2067
 6463W        W22272   4.553  15.983   5.343  0.4910  0.1503 -0.1002
 6464W        W22273  15.847  16.481   1.661  0.2880  0.4065  0.2355
 6465W        W22274  15.126   9.316   5.113  0.0150  0.1710  0.2521
 6466W        W22275  13.022   9.840  10.085 -0.0497 -0.0951 -0.1087
 6467W        W22276   9.297   7.770  13.212 -0.1436  0.0728  0.0800
 6468W        W22277  15.667   2.221   5.968  0.3031  0.0404  0.1072
 6469W        W22278   6.356   9.333   5.451  0.0935 -0.0828 -0.1096
 6470W        W22279  16.330   4.557   2.421  0.5082 -0.1806 -0.0758
 6471W        W22280   1.152  12.152  11.387 -0.2228 -0.0650 -0.1696
 6472W        W22281   9.866   4.583   5.725 -0.2687  0.0444 -0.0021
 6473W        W22282  11.488   5.181   3.444  0.0134  0.1415  0.3087
 6474W        W22283  14.836  12.822  16.132 -0.0620  0.0821  0.0518
 6475W        W22284   7.950  18.039   3.300 -0.2909  0.0235  0.0808
 6476W        W22285   7.278  14.559  14.517 -0.0492  0.1845  0.0613
 6477W        W22286   3.010  16.650  15.373 -0.1593 -0.0356 -0.0504
 6478W        W22287  10.552   4.647  12.190 -0.4535 -0.2436  0.0374
 6479W        W22288   9.058   1.995  12.487 -0.3788  0.1099 -0.2721
 6480W        W22289   2.900   0.086   5.231  0.0636  0.2716  0.1852
 6481W        W22290   6.251   7.549   3.109 -0.0234 -0.3374 -0.2119
 6482W        W22291   3.751   1.883  14.020 -0.0954  0.2299 -0.0061
 6483W        W22292   8.049  13.170  13.004 -0.2794 -0.3007  0.3696
 6484W        W22293  15.854  15.078  15.984 -0.2237  0.0731  0.0395
 6485W        W22294   5.592   2.405  15.903 -0.1419  0.0258 -0.2547
 6486W        W22295  17.727   3.074  12.846 -0.6603  0.0413  0.1836
 6487W        W22296   0.465  10.871   2.307  0.1219  0.3715 -0.3227
 6488W        W22297  10.760   7.616  10.911 -0.4004 -0.0859 -0.0648
 6489W        W22298   0.102   1.215  15.936 -0.1935 -0.0817  0.1507
 6490W        W22299   6.240  13.633   2.595  0.0411  0.0694 -0.0595
 6491W        W22300   7.928  11.431  13.904 -0.1923  0.1648  0.2339
 6492W        W22301   3.753  12.228   2.222 -0.1888  0.1844  0.1354
 6493W        W22302  15.055  12.214  14.935  0.0767  0.0554  0.1561
 6494W        W22303  10.396   9.756  12.397  0.1180  0.2804 -0.0266
 6495W        W22304  17.143   0.525  13.509  0.1050  0.0394 -0.0993
 6496W        W22305   1.112  16.007   2.991  0.1858 -0.0293  0.2459
 6497W        W22306   4.915   8.034  15.039  0.4101  0.2557  0.1599
 6498W        W22307  17.613   6.871   5.168  0.1571  0.1811 -0.1794
 6499W        W22308   9.798  10.015  14.034 -0.3475 -0.1048  0.4155
 6500W        W22309  14.863   6.816  14.546  0.0307  0.0230  0.1285
 6501W        W22310   2.719   0.942  12.436  0.1591  0.3074 -0.2097
 6502W        W22311  11.688   5.669  10.816  0.0197 -0.1242 -0.1698
 6503W        W22312  15.217  18.087  13.729 -0.3385  0.1582 -0.1718
 6504W        W22313  17.102   3.940  12.147 -0.0993  0.1028 -0.0379
 6505W        W22314   1.166   3.742   5.962  0.0058  0.2014 -0.1408
 6506W        W22315   9.082  11.195   1.826 -0.0277  0.0070 -0.1495
 6507W        W22316  14.938   8.364   4.873 -0.1315 -0.0511  0.0178
 6508W        W22317   8.256  17.593  16.310 -0.1582  0.2643 -0.1727
 6509W        W22318  14.452  14.937  11.898 -0.0572  0.2513 -0.2030
 6510W        W22319  11.468  11.541  11.786 -0.1102  0.3389  0.1696
 6511W        W22320   3.001   6.337  13.277 -0.1007 -0.3769  0.3164
 6512W        W22321   6.167   1.317   4.745  0.0040  0.0075 -0.3145
 6513W        W22322  11.823   0.423   0.242 -0.1545  0.1561 -0.1457
 6514W        W22323   0.380  18.019   4.052 -0.0218 -0.2726  0.2453
 6515W        W22324   3.076  10.231   2.275 -0.0701 -0.1159 -0.3551
 6516W        W22325  16.029   5.727   5.185  0.0832  0.2201  0.2497
 6517W        W22326   4.982  15.342   2.110  0.1149  0.1026 -0.0020
 6518W        W22327  17.241   4.159   3.531  0.1695  0.0663 -0.0850
 6519W        W22328  15.944  13.350  13.936 -0.1744 -0.0332  0.1174
 6520W        W22329   3.150  13.095   2.373 -0.0936 -0.1926  0.2731
 6521W        W22330  13.672  12.688  13.917  0.0122  0.1217  0.0947
 6522W        W22331  16.395  14.316  11.262 -0.2595 -0.2394 -0.1213
 6523W        W22332   8.260  13.652  12.070  0.2529  0.0568  0.2287
 6524W        W22333   0.189  14.165  11.508 -0.0739  0.1928  0.0890
 6525W        W22334  14.019   4.820   3.432  0.0349 -0.2185 -0.0414
 6526W        W22335   0.482   2.639   3.788 -0.3351  0.2479 -0.2221
 6527W        W22336   2.964  10.439  13.675  0.0919 -0.2686 -0.1010
 6528W        W22337   5.102  16.997  13.795  0.1291  0.1210  0.2835
 6529W        W22338   5.135  17.961  14.169  0.0899 -0.2296  0.0472
 6530W        W22339   4.814   8.825   5.351  0.1433  0.0721  0.0540
 6531W        W22340   8.675  14.819   0.293 -0.1242  0.1388  0.3002
 6532W        W22341   4.224   1.206   3.607 -0.0779  0.0552 -0.0119
 6533W        W22342  17.276  11.255   0.382 -0.2802  0.0270  0.0082
 6534W        W22343   3.225   9.306   0.612  0.0543  0.2481 -0.0525
 6535W        W22344   1.539  16.682   1.751  0.1171 -0.3287  0.1732
 6536W        W22345  17.291  10.100   4.908 -0.2665 -0.0816  0.0597
 6537W        W22346  10.491   4.691   4.991  0.1406  0.0888  0.1942
 6538W        W22347   4.893   6.372  10.223 -0.0023  0.1852  0.1164
 6539W        W22348  13.038  14.713  12.058 -0.0750  0.1493 -0.1621
 6540W        W22349  12.975   9.178  12.006 -0.4644 -0.1982  0.3329
 6541W        W22350   0.078   9.121   2.013  0.1526 -0.0556  0.0390
 6542W        W22351  10.607   9.842   5.225  0.1195  0.2322  0.2172
 6543W        W22352  17.950   9.616  11.705 -0.0784 -0.1510 -0.0719
 6544W        W22353   9.672   9.659  11.075  0.2759 -0.0460  0.2198
 6545W        W22354  12.057  18.089  12.090 -0.0966 -0.0637  0.2517
 6546W        W22355  17.045   9.455  15.973 -0.0291 -0.3846  0.1716
 6547W        W22356  17.456   6.461   0.145 -0.0607  0.1621 -0.4502
 6548W        W22357   2.593   6.992  15.988  0.2806  0.1493 -0.0568
 6549W        W22358  12.138   9.132   1.293  0.0180 -0.0455  0.0469
 6550W        W22359  12.376   1.391  11.515  0.0639  0.0820 -0.1918
 6551W        W22360   5.737  15.236  13.276 -0.0566 -0.0341 -0.2123
 6552W        W22361  10.555   3.517   5.701  0.0454  0.2877 -0.2078
 6553W        W22362   0.723   1.107   5.203  0.1862  0.1570  0.0317
 6554W        W22363   1.440  13.206   5.489  0.2993  0.1138 -0.5940
 6555W        W22364  15.465  11.904   0.741  0.0058  0.0668 -0.0735
 6556W        W22365  18.022  11.107  11.424  0.0332 -0.0448  0.1136
 6557W        W22366   4.696  11.738  14.699  0.3388  0.0213  0.1397
 6558W        W22367   5.849   5.619   0.950  0.2695  0.0588  0.1606
 6559W        W22368   0.468  13.620   6.134  0.2390  0.0745  0.0428
 6560W        W22369  16.282   8.168  10.170 -0.1560  0.2868  0.1793
 6561W        W22370   2.913   0.900   1.880 -0.4392  0.0731 -0.0086
 6562W        W22371  17.957   5.819   2.351  0.4033  0.0056 -0.0868
 6563W        W22372   7.500   6.252  11.085  0.0013  0.3921  0.1469
 6564W        W22373   8.820   7.888  14.677 -0.1223  0.0534  0.0001
 6565W        W22374   2.351   9.986  16.148  0.4508  0.4724 -0.0748
 6566W        W22375  17.264   8.052   2.247  0.1104  0.3926  0.1283
 6567W        W22376  10.561  11.141   0.271 -0.2211 -0.0362 -0.1277
 6568W        W22377  11.751  13.045   2.840 -0.0882 -0.2446  0.0628
 6569W        W22378   1.827   1.945   1.299  0.1469 -0.0764  0.2263
 6570W        W22379  15.430  10.400  14.031 -0.2099 -0.2719 -0.0312
 6571W        W22380  15.453  11.558  15.797  0.0548 -0.2521 -0.0315
 6572W        W22381  17.858   8.638   1.849 -0.3580  0.0768 -0.1093
 6573W        W22382  12.754   7.876  13.084  0.2208  0.0554 -0.1749
 6574W        W22383  14.660  14.384   4.479  0.0613 -0.3234 -0.2451
 6575W        W22384   5.382   2.235  14.794 -0.0234  0.2021  0.4108
 6576W        W22385  11.857   4.951   2.697 -0.0311 -0.3285 -0.0334
 6577W        W22386   8.082  13.664   2.711  0.1355 -0.1147 -0.1590
 6578W        W22387   9.645   5.958   9.949 -0.2923  0.0344 -0.3307
 6579W        W22388   0.668   8.968   4.175 -0.1958 -0.0001  0.0321
 6580W        W22389  13.806  16.907   4.991 -0.0449  0.0439  0.0338
 6581W        W22390   3.412  16.122   5.002  0.0635 -0.0086 -0.1216
 6582W        W22391  14.000  10.416   0.574 -0.1727  0.0688 -0.2234
 6583W        W22392  11.096   6.850  12.389 -0.1136  0.1157  0.4598
 6584W        W22393   1.597   7.213   2.883  0.1976  0.0561 -0.2898
 6585W        W22394  10.392  14.636  12.134 -0.0656  0.0946  0.1185
 6586W        W22395   0.509  10.459   6.100 -0.1086  0.0235 -0.1142
 6587W        W22396  13.210   3.783  13.532 -0.0276 -0.1366  0.1874
 6588W        W22397   8.567   1.781  13.675 -0.1175  0.3225 -0.0555
 6589W        W22398   1.404  18.052  13.833  0.0988  0.1944 -0.1335
 6590W        W22399   9.316   1.081  14.439  0.0051  0.4111  0.1508
 6591W        W22400  16.106  11.966   1.280  0.0528  0.3030 -0.0052
 6592W        W22401   2.125   0.628   3.655  0.0511 -0.2991 -0.1066
 6593W        W22402   5.304  10.398  14.252  0.1301  0.1828 -0.1829
 6594W        W22403   2.148   0.757  15.430  0.1455  0.3289 -0.3478
 6595W        W22404   8.735   8.779  12.254  0.0086  0.3233 -0.0513
 6596W        W22405  15.416   8.021  12.704 -0.0205  0.0492 -0.2829
 6597W        W22406  15.094  16.451   1.282  0.3094 -0.2165  0.1015
 6598W        W22407   1.147   1.014   0.262  0.1072  0.2727 -0.0562
 6599W        W22408  14.160   4.459  12.457  0.1608 -0.1536 -0.0134
 6600W        W22409   6.544  16.682   2.393 -0.0146 -0.0486 -0.0916
 6601W        W22410  16.671   2.602   1.802  0.2936 -0.1783 -0.0426
 6602W        W22411   1.260   2.639  15.859  0.1446  0.0497 -0.1258
 6603W        W22412  15.033   5.803   0.727 -0.1514  0.2821  0.0493
 6604W        W22413  15.982   4.876   2.924 -0.2741 -0.0559 -0.0312
 6605W        W22414   5.618  11.494   1.736 -0.0280  0.1037 -0.2972
 6606W        W22415   6.923  11.150  13.861 -0.3974  0.0058 -0.2166
 6607W        W22416  12.768   6.782   5.141 -0.3566 -0.3279 -0.1498
 6608W        W22417   6.794   2.100   4.525 -0.0223  0.1040 -0.1052
 6609W        W22418  18.057   5.875   1.291 -0.1835  0.3256  0.1961
 6610W        W22419  13.563   3.201  14.359 -0.3349  0.1021 -0.1052
 6611W        W22420  10.591  12.593  10.968  0.3014 -0.0084  0.0630
 6612W        W22421  15.787  17.552   3.860 -0.1614 -0.0676 -0.0556
 6613W        W22422  18.009  10.555  15.459  0.0168  0.0484 -0.1189
 6614W        W22423   0.463   6.288   2.596 -0.0348  0.1405  0.1822
 6615W        W22424  14.329   5.555  11.859 -0.1356  0.2112  0.1227
 6616W        W22425  16.085   6.563  15.776 -0.3655 -0.0057  0.2187
 6617W        W22426  17.228   8.963   3.664  0.1782 -0.0846 -0.0237
 6618W        W22427   0.832  17.422   4.450 -0.0616  0.0568  0.1371
 6619W        W22428   6.597  17.981  14.076  0.1413 -0.0038  0.0734
 6620W        W22429  17.082  17.952  14.357  0.3301  0.2341  0.2353
 6621W        W22430   9.200   7.758   5.982  0.2444 -0.1066  0.0615
 6622W        W22431   8.241   1.488   1.199 -0.0744 -0.1849 -0.0475
 6623W        W22432  15.637   2.111   3.568 -0.1124  0.1114 -0.3169
 6624W        W22433   2.870   0.678  11.227  0.1333  0.1085 -0.0116
 6625W        W22434  12.676  16.088  13.309  0.0319 -0.1375 -0.2211
 6626W        W22435  16.851   3.865   2.228  0.5421 -0.0870 -0.1680
 6627W        W22436  10.052  14.902  12.412 -0.1382 -0.0372  0.4778
 6628W        W22437  13.827   4.995   1.766  0.1261 -0.0780 -0.3565
 6629W        W22438   7.424   9.689  14.518  0.0895  0.3151  0.0409
 6630W        W22439  10.120   2.410  15.571  0.0637 -0.0756  0.2098
 6631W        W22440  16.678   4.885   0.101 -0.0189  0.0327  0.1847
 6632W        W22441  13.556  14.341  14.170 -0.2739  0.1137  0.1584
 6633W        W22442  12.023   5.956  14.168 -0.0460  0.1658  0.0223
 6634W        W22443   6.109  18.125  12.792  0.0317  0.0783 -0.4487
 6635W        W22444   5.849   7.847  12.595 -0.1305 -0.0573  0.0368
 6636W        W22445   6.150   9.777   5.341 -0.2980 -0.0552 -0.0838
 6637W        W22446  10.647  13.035  12.920  0.0874  0.1671  0.0915
 6638W        W22447  12.581   4.405  13.231 -0.3491  0.0200 -0.3175
 6639W        W22448  13.962   7.450   5.099 -0.1388  0.1184  0.1699
 6640W        W22449  10.297  10.853   3.249 -0.2269 -0.0421  0.3101
 6641W        W22450  13.077  14.799   0.812 -0.0715  0.2600  0.1548
 6642W        W22451  16.545   2.833  13.333  0.0134  0.2023  0.0146
 6643W        W22452   0.750   0.711   4.273  0.1738  0.1494 -0.2806
 6644W        W22453   0.685   6.880  14.447 -0.1322  0.1127 -0.0011
 6645W        W22454  12.128  14.916   3.239 -0.1254 -0.0237 -0.2986
 6646W        W22455  15.195  15.006   0.081  0.1422 -0.0121  0.2080
 6647W        W22456   9.414   5.948  12.866 -0.1244 -0.0788 -0.2140
 6648W        W22457  14.225  16.383   5.122 -0.0009  0.0974  0.0565
 6649W        W22458   4.723   9.048   2.088  0.0209 -0.0413 -0.1089
 6650W        W22459   9.656   0.062   4.183  0.0303 -0.0376 -0.1530
 6651W        W22460  12.549  16.932  12.021 -0.0761  0.2089  0.0266
 6652W        W22461  15.521   9.871   1.288 -0.0009 -0.0868 -0.3137
 6653W        W22462  17.881  16.723   3.237  0.4862 -0.0227  0.1865
 6654W        W22463   6.459   7.897   0.933  0.1341  0.1627 -0.2531
 6655W        W22464   3.128   8.313   6.294 -0.1071  0.1231 -0.2297
 6656W        W22465   2.979   1.252   4.843  0.0262  0.1568 -0.0917
 6657W        W22466   1.557   2.113  14.907 -0.3339 -0.0504  0.1635
 6658W        W22467  13.788   3.348   2.024  0.0438  0.2264  0.1798
 6659W        W22468   3.204   3.132  11.559 -0.1626  0.0221 -0.1390
 6660W        W22469   1.225   3.172   1.615  0.2219  0.1929 -0.1834
 6661W        W22470   0.975   0.144  14.749 -0.0283 -0.0314 -0.0795
 6662W        W22471  10.171  17.626   6.045 -0.0158  0.0805 -0.1005
 6663W        W22472   2.627   1.615  13.288  0.1693 -0.3014  0.0311
 6664W        W22473   7.790   0.034  11.239 -0.0515 -0.1397 -0.1400
 6665W        W22474   3.466   9.255   5.279 -0.0959  0.0700  0.1739
 6666W        W22475   3.348   8.881   4.462  0.0995 -0.2625  0.0377
 6667W        W22476   5.817   8.663  14.913 -0.1600 -0.4219  0.1087
 6668W        W22477   1.948  15.955   3.426  0.1232  0.0669  0.3555
 6669W        W22478   1.614   2.915   5.433 -0.3588 -0.0479 -0.0788
 6670W        W22479   3.146   3.861   5.564  0.0117  0.0465  0.1961
 6671W        W22480  11.887  10.487  15.954  0.1547 -0.0277 -0.0292
 6672W        W22481  14.182   6.496   3.772  0.1919  0.0977  0.1994
 6673W        W22482   5.518  10.117   2.915 -0.0054 -0.1109 -0.0080
 6674W        W22483  15.291   3.631   1.280 -0.5022 -0.1130  0.1717
 6675W        W22484  13.771   7.707  12.541  0.1622  0.0211  0.0432
 6676W        W22485  15.318   0.799  15.277  0.0019 -0.3466 -0.2041
 6677W        W22486   7.793   3.959  15.829 -0.0447 -0.1464  0.2273
 6678W        W22487   8.901   6.823   3.822  0.0599  0.0304  0.0671
 6679W        W22488   1.401   8.605  14.725  0.3866 -0.4118  0.1297
 6680W        W22489   6.131   5.547  16.290 -0.1671 -0.0787 -0.2153
 6681W        W22490  11.748   4.237  12.275 -0.1611 -0.2679 -0.3272
 6682W        W22491   3.942   9.435   4.167 -0.0233  0.0642  0.1099
 6683W        W22492  16.512   6.851  15.992 -0.1588  0.2154  0.1664
 6684W        W22493   7.689  10.522  15.985  0.3348 -0.0181  0.2478
 6685W        W22494  13.265  13.890  16.205 -0.4324 -0.1381 -0.0760
 6686W        W22495  15.009  14.519  11.256 -0.0538  0.0462 -0.1832
 6687W        W22496   7.328  10.647  16.317  0.1327 -0.2510 -0.2060
 6688W        W22497  13.871   1.833   4.040 -0.5178 -0.0870  0.1571
 6689W        W22498  12.403  10.862  16.205  0.3169 -0.1129  0.1845
 6690W        W22499  10.427   0.443   4.972 -0.0093  0.0409 -0.4757
 6691W        W22500  14.346   2.681  14.478  0.1536  0.0756 -0.0022
 6692W        W22501  15.131  10.075  15.441  0.0441 -0.0568 -0.0639
 6693W        W22502  12.879  12.890   3.476 -0.0171 -0.0640  0.1862
 6694W        W22503   7.203  14.326   0.998  0.0498  0.2303  0.2684
 6695W        W22504   5.863   2.780  11.708 -0.0837  0.0731 -0.0416
 6696W        W22505  18.074   7.582  14.541  0.1363 -0.2521 -0.1560
 6697W        W22506   2.160   9.824  13.373  0.0943 -0.0777  0.0728
 6698W        W22507   4.269   0.760  14.378 -0.4155  0.1753 -0.0700
 6699W        W22508   0.907  17.104   6.076 -0.1508  0.2133 -0.1860
 6700W        W22509   5.204   3.449  14.724 -0.0406 -0.0306  0.3247
 6701W        W22510  16.604  12.355   0.742  0.0890  0.5074  0.0556
 6702W        W22511  13.361   9.749   0.861  0.1198 -0.1341  0.0989
 6703W        W22512  14.802   4.755   5.222  0.2399 -0.0924 -0.0889
 6704W        W22513   2.112  15.319   3.317  0.0492 -0.0651  0.0788
 6705W        W22514   2.030   3.777   3.467 -0.0633  0.1356 -0.1617
 6706W        W22515   5.910   9.053   0.716  0.3252  0.0133 -0.4411
 6707W        W22516   5.015   3.372  11.848 -0.1322 -0.0914  0.0290
 6708W        W22517   4.452  10.567  10.995 -0.0970  0.2390  0.1058
 6709W        W22518   2.996   5.799  15.352 -0.2475  0.0863 -0.1372
 6710W        W22519  12.375   6.753   0.240  0.1898  0.1129  0.0406
 6711W        W22520   8.586   2.085   2.509 -0.1202  0.1215 -0.0401
 6712W        W22521  15.314  11.035  15.018 -0.1175 -0.0600  0.2615
 6713W        W22522   6.432   2.422   0.364  0.1709 -0.0480  0.0673
 6714W        W22523   1.598   8.725  12.345 -0.0372  0.0504 -0.0688
 6715W        W22524  15.311  17.534  12.480  0.0903  0.1458  0.1353
 6716W        W22525   1.292   8.748  12.868  0.0482 -0.0412  0.0042
 6717W        W22526   1.403   0.594   0.037  0.1394  0.0708 -0.0451
 6718W        W22527  13.033  11.700  10.763 -0.4209 -0.1499 -0.2432
 6719W        W22528   0.909  18.193   1.115  0.0396 -0.0015  0.0166
 6720W        W22529   9.144   7.160  14.519 -0.0627  0.0549 -0.0442
 6721W        W22530  16.289   2.915   4.660 -0.0417  0.0918  0.0731
 6722W        W22531   6.654   8.313   2.481  0.0828 -0.1271  0.1344
 6723W        W22532  16.147  13.717  12.708  0.1050  0.0746 -0.2320
 6724W        W22533  11.683  17.003   4.126 -0.1700 -0.0304 -0.1122
 6725W        W22534  17.864   8.518   0.063 -0.0750 -0.5069  0.1312
 6726W        W22535  17.121  15.118   1.172 -0.4370 -0.0278  0.0077
 6727W        W22536   7.418   1.204  14.580  0.2033 -0.0174 -0.0863
 6728W        W22537   2.958   8.808   2.345  0.0250  0.1426  0.0774
 6729W        W22538   3.970  17.808  16.103 -0.0670  0.1552 -0.3678
 6730W        W22539   8.371   0.069  13.460  0.2201  0.3710  0.1885
 6731W        W22540   7.883  13.038   1.407 -0.0699  0.2569  0.1382
 6732W        W22541   3.389  10.481  11.253  0.0097 -0.1244 -0.0739
 6733W        W22542  15.774  16.349  12.668  0.3230  0.2281  0.3377
 6734W        W22543   9.718  11.136  14.756  0.0713  0.0639 -0.2626
 6735W        W22544   9.466   7.238  15.101 -0.5429 -0.1565 -0.0755
 6736W        W22545  14.533   5.096   6.045 -0.1959  0.4384  0.1500
 6737W        W22546  13.555   8.976  14.900 -0.3878  0.2736 -0.1182
 6738W        W22547   8.987  14.802   4.320 -0.1582 -0.0137  0.0893
 6739W        W22548   9.610   8.733   3.972 -0.0285  0.0855  0.4835
 6740W        W22549  15.964   8.079   1.873 -0.0784 -0.4954  0.0408
 6741W        W22550   6.741   3.586  11.867 -0.0992  0.1619 -0.0118
 6742W        W22551   2.845   7.069   4.321  0.5959  0.0492  0.0301
 6743W        W22552   8.472   3.188   1.975 -0.1818 -0.1822  0.1514
 6744W        W22553   8.654   0.156  16.336 -0.2545 -0.1169 -0.1994
 6745W        W22554   6.842  16.805   5.655 -0.2237  0.1137  0.1464
 6746W        W22555  17.411   3.870  14.034 -0.1665 -0.1745  0.2460
 6747W        W22556   1.281   4.497   5.463  0.0913  0.0724 -0.1109
 6748W        W22557  10.532  12.903   3.325  0.4373  0.1276  0.0354
 6749W        W22558   4.497   0.948   2.645 -0.2017 -0.0573 -0.2885
 6750W        W22559  18.214  13.517   1.954 -0.3585  0.3379  0.3154
 6751W        W22560   7.567  10.208  16.360  0.1050  0.2023 -0.0972
 6752W        W22561   5.014   7.215   1.776  0.2410  0.0462 -0.0480
 6753W        W22562   2.673   1.493  15.619 -0.0313 -0.0046 -0.1060
 6754W        W22563  10.354   1.770  15.244  0.1635  0.1878  0.0523
 6755W        W22564   4.685   0.300  13.092 -0.0193  0.3355 -0.1797
 6756W        W22565   6.768   0.911  15.598 -0.3426  0.1719  0.0770
 6757W        W22566   8.295  11.985   4.426 -0.0683  0.0738 -0.3259
 6758W        W22567  12.936  12.169  14.459  0.0301  0.2207  0.1965
 6759W        W22568   7.843   7.035  12.759 -0.1717 -0.3165 -0.0695
 6760W        W22569   9.199  14.323  13.515  0.1042  0.1504 -0.1033
 6761W        W22570  12.958  16.831  11.221  0.0247 -0.1249  0.0730
 6762W        W22571  11.474  10.031  11.693  0.1027 -0.1440 -0.2978
 6763W        W22572   2.987  12.535   0.175  0.0341  0.3890 -0.4133
 6764W        W22573  17.343   7.030  13.456 -0.0324  0.3002 -0.1135
 6765W        W22574  12.936  16.362  14.184  0.1856  0.2459 -0.0560
 6766W        W22575  11.074   0.917   3.225 -0.2935  0.5594 -0.1702
 6767W        W22576   1.443   1.793  14.517  0.2142  0.1419 -0.0740
 6768W        W22577  12.054   6.207   2.107 -0.2066 -0.3474  0.0254
 6769W        W22578  13.508  13.953  13.425  0.2104 -0.1111  0.0158
 6770W        W22579  12.230  12.837   4.821 -0.1234 -0.1546  0.3020
 6771W        W22580   0.616  11.416  11.198 -0.2814  0.2710  0.2939
 6772W        W22581   2.440   3.749   3.956 -0.0185 -0.1411  0.1000
 6773W        W22582   0.400   3.885   1.484 -0.2036  0.0935  0.0425
 6774W        W22583   5.980   0.263   0.579 -0.2075 -0.0825 -0.0142
 6775W        W22584  10.060   2.796   0.372  0.0551  0.0967 -0.1679
 6776W        W22585   3.810   4.797   3.363  0.1590  0.0371 -0.1193
 6777W        W22586   9.222   2.720   0.567 -0.1716  0.0152  0.2163
 6778W        W22587   3.261   4.870   0.580 -0.4895  0.1275  0.2166
 6779W        W22588   0.218  11.287   4.096  0.0816 -0.2443  0.0343
 6780W        W22589   3.033  17.355  10.030  0.2365 -0.3023 -0.2586
 6781W        W22590  16.688  14.217  12.181  0.2006  0.0359  0.1781
 6782W        W22591   2.155   4.767   6.559 -0.1981 -0.3575 -0.0983
 6783W        W22592   3.462  10.353  12.418  0.3649 -0.0203  0.1159
 6784W        W22593  11.176   9.587   1.371  0.1393  0.1640  0.1656
 6785W        W22594   3.664  12.941   4.903 -0.2514  0.1403  0.0004
 6786W        W22595   4.003  11.310  13.215 -0.0416  0.0630  0.0905
 6787W        W22596   9.792  12.774   0.476 -0.1283 -0.1706 -0.1583
 6788W        W22597  17.574  12.436  11.846  0.2217  0.0418  0.1941
 6789W        W22598   1.901  15.807   4.486  0.1905 -0.0397  0.2391
 6790W        W22599   1.210   4.143  15.930  0.2514  0.1217 -0.0763
 6791W        W22600   7.334   8.624   4.080 -0.3277 -0.1420 -0.4710
 6792W        W22601   2.961  10.061  11.463 -0.3060  0.1482 -0.3061
 6793W        W22602   0.184  15.682  14.184  0.0719  0.2602  0.2155
 6794W        W22603   7.200   8.568   4.748  0.3073 -0.1757  0.0668
 6795W        W22604   4.239  16.595  13.549  0.0853  0.0476 -0.1564
 6796W        W22605  10.937  10.926  15.295 -0.0287 -0.0286 -0.0140
 6797W        W22606  11.474  10.466  12.653 -0.3328  0.1851  0.0992
 6798W        W22607   3.408   2.923  13.250  0.1138  0.0068 -0.0954
 6799W        W22608  14.595   2.039  10.608  0.1879 -0.2652 -0.3631
 6800W        W22609  15.552   4.869  13.726 -0.1342 -0.0352  0.1696
 6801W        W22610   8.583   8.694   3.279  0.1917  0.0296  0.2896
 6802W        W22611   9.049   1.981  14.729  0.1338 -0.0624 -0.5036
 6803W        W22612  17.916  12.234  12.270 -0.0451  0.0268 -0.1592
 6804W        W22613  15.783   2.967   5.532  0.0704  0.0025 -0.2432
 6805W        W22614   0.663   1.991   0.798 -0.1232  0.0624 -0.1759
 6806W        W22615   1.687   2.651  15.086 -0.2198  0.0684 -0.4723
 6807W        W22616   4.955   7.664  14.012  0.1144 -0.0459 -0.0151
 6808W        W22617   9.358  15.696   3.651 -0.1838 -0.0748  0.2511
 6809W        W22618   7.336   0.085   0.308  0.1451 -0.1256 -0.0351
 6810W        W22619   9.195  15.097   2.833 -0.1465 -0.0783 -0.1533
 6811W        W22620  16.777   4.247  11.940 -0.3654 -0.5877  0.0445
 6812W        W22621  14.996   6.423  13.727 -0.3322  0.0985  0.0501
 6813W        W22622   8.712  13.838   1.533  0.0923  0.2824  0.1398
 6814W        W22623   8.355  10.400   4.843 -0.1710 -0.0241  0.1733
 6815W        W22624   3.325   2.040  15.769  0.1640  0.1148 -0.1490
 6816W        W22625   5.966   2.946   0.322 -0.2389 -0.1174 -0.0167
 6817W        W22626  17.990   0.031   0.165  0.2035 -0.2282 -0.0054
 6818W        W22627   7.785   4.182   3.737 -0.0737 -0.0057  0.0207
 6819W        W22628   9.247   9.336  11.164 -0.1673 -0.0758  0.1332
 6820W        W22629  11.094  16.712   1.131 -0.5341 -0.2435  0.1164
 6821W        W22630  10.922   7.072  11.453  0.0810  0.0444 -0.2596
 6822W        W22631  14.668   1.289   1.913 -0.0482 -0.0572 -0.1987
 6823W        W22632  16.018   0.318  15.699  0.0733 -0.2838  0.0666
 6824W        W22633   2.987  15.762  15.607 -0.1576 -0.1126 -0.1294
 6825W        W22634   5.649   1.161   0.674 -0.1869 -0.0625 -0.3347
 6826W        W22635  11.193   6.812   1.269  0.2410 -0.3273  0.3296
 6827W        W22636   7.055   5.384   4.172  0.0280  0.2527 -0.0157
 6828W        W22637  14.357  16.676   3.049  0.2470 -0.2363  0.0141
 6829W        W22638   6.098   9.766  12.681  0.0244 -0.1671 -0.0533
 6830W        W22639   8.067   8.742   5.826  0.0388 -0.0312  0.0167
 6831W        W22640   0.485   9.122  15.433 -0.0681  0.0227  0.0785
 6832W        W22641  18.180   4.154   5.608 -0.2734 -0.1497 -0.3772
 6833W        W22642   2.688  17.885  16.262  0.3794 -0.1670  0.1611
 6834W        W22643   2.615  11.633  15.319 -0.1229 -0.0449  0.0974
 6835W        W22644  11.519   1.000   5.659  0.4496  0.2662  0.1259
 6836W        W22645  11.856   2.663  11.351 -0.0090  0.2507 -0.1165
 6837W        W22646   7.200   1.847   1.321 -0.0703  0.1287 -0.0240
 6838W        W22647  16.194   9.847   2.581 -0.0248 -0.1429 -0.1837
 6839W        W22648  15.223   1.618  15.375  0.1705 -0.0677  0.2694
 6840W        W22649   1.203   6.438  11.509  0.1166  0.3055  0.1223
 6841W        W22650  16.139   7.399  14.809  0.0504  0.0338 -0.1755
 6842W        W22651   0.561  13.807   5.690 -0.0312  0.0019  0.2188
 6843W        W22652  11.787   1.908   4.705 -0.1347  0.2534  0.2617
 6844W        W22653   9.344   1.524   5.394  0.0282  0.1671 -0.1472
 6845W        W22654   6.131  16.570  15.628  0.0824  0.0668 -0.0695
 6846W        W22655   6.129   3.955   0.910 -0.0582  0.0970 -0.3248
 6847W        W22656   1.644  14.588  11.277 -0.2375  0.0153 -0.3327
 6848W        W22657  14.538  16.487  16.255  0.1349 -0.1920  0.1415
 6849W        W22658  12.586  12.684   3.047  0.2167 -0.0616 -0.2087
 6850W        W22659  14.421   7.302   2.376 -0.0010 -0.1320  0.0963
 6851W        W22660   1.736  17.123   1.521 -0.1119 -0.2386  0.1311
 6852W        W22661  17.951   2.667  15.022  0.0233 -0.1488  0.2879
 6853W        W22662  13.983  17.451  15.320 -0.2602 -0.0981  0.0504
 6854W        W22663  10.088   1.403   3.118  0.4159 -0.2103  0.1367
 6855W        W22664  11.293   2.178  13.960 -0.1880 -0.1245 -0.0982
 6856W        W22665  17.214   5.579   1.678  0.1550 -0.1652 -0.1927
 6857W        W22666   3.475   5.114   4.797  0.1259  0.0652  0.0415
 6858W        W22667  12.442   4.837   4.887  0.0529 -0.2050 -0.1236
 6859W        W22668  10.004   1.192  11.699  0.0141 -0.1177  0.1117
 6860W        W22669   6.236   8.985  15.027  0.2229 -0.2948 -0.1098
 6861W        W22670   0.354  15.585   5.022  0.0748 -0.0426  0.1927
 6862W        W22671  11.361   2.235   5.833 -0.0589 -0.1923 -0.0196
 6863W        W22672  11.121  10.988   1.137  0.1393  0.0325 -0.3070
 6864W        W22673   1.889   3.604   4.689  0.0549 -0.1049  0.0945
 6865W        W22674   3.641  18.041   5.971 -0.2118 -0.4287 -0.1081
 6866W        W22675   7.246   8.043   1.171  0.1706 -0.3006  0.1549
 6867W        W22676  13.006   2.895  14.426 -0.1136  0.1479 -0.0486
 6868W        W22677   6.283   1.076  11.469  0.1688 -0.3364 -0.2323
 6869W        W22678  11.061   8.684  11.579 -0.0156  0.4368  0.2602
 6870W        W22679  13.087   0.027   0.834 -0.0770 -0.1423 -0.2648
 6871W        W22680   3.617  13.380  11.642 -0.3854 -0.1130  0.0825
 6872W        W22681   3.566   6.205  15.612  0.2830 -0.3214 -0.1120
 6873W        W22682  12.014  11.360  14.316  0.2452  0.0003  0.1987
 6874W        W22683   3.180   3.695  13.037 -0.1083 -0.0503 -0.1355
 6875W        W22684   8.437  13.777   5.455 -0.0208  0.0194 -0.1017
 6876W        W22685  16.776   7.069   0.106  0.1756 -0.1178 -0.2637
 6877W        W22686   5.506   6.916   2.165 -0.0466  0.1418 -0.0290
 6878W        W22687   9.362  11.978  13.598 -0.0295  0.3783  0.0787
 6879W        W22688  14.829   3.530   1.625 -0.0574 -0.0309 -0.2186
 6880W        W22689   4.389   7.657   2.892 -0.0702 -0.1820 -0.0418
 6881W        W22690   6.578  11.840  14.416 -0.0566  0.0399 -0.0603
 6882W        W22691   5.529   8.332  12.577  0.3012  0.0897  0.2693
 6883W        W22692  16.642   9.833  13.438  0.0047 -0.0813  0.1537
 6884W        W22693   8.932  11.873   5.212 -0.1708 -0.0232 -0.1755
 6885W        W22694   5.352  17.969   4.184  0.2077  0.0251  0.2811
 6886W        W22695  14.415  10.311   2.652 -0.3794  0.0013 -0.0787
 6887W        W22696  10.242  13.105  14.205  0.0446 -0.0718 -0.3137
 6888W        W22697  16.868  15.908   5.449 -0.2312 -0.2838 -0.2665
 6889W        W22698   3.488   0.698   1.672  0.1368 -0.1184 -0.0309
 6890W        W22699  11.039  10.997   0.134  0.2140  0.0782  0.1330
 6891W        W22700  10.268   3.747  14.026  0.1016 -0.1797  0.2379
 6892W        W22701  16.428   1.947  12.406  0.0026  0.2589  0.3194
 6893W        W22702   6.804   8.882  12.913 -0.0210  0.1035  0.1020
 6894W        W22703  12.962   9.864   1.185  0.1774 -0.1640  0.2735
 6895W        W22704   3.295   1.949  10.423  0.0897  0.3436  0.0996
 6896W        W22705  13.779  11.696  11.275  0.0550 -0.2284 -0.0252
 6897W        W22706   4.399   4.235  14.619 -0.0788  0.1256  0.0360
 6898W        W22707   1.131  11.719   0.600 -0.1001 -0.0182 -0.0903
 6899W        W22708   4.507   9.140  13.029  0.2835  0.1984 -0.1148
 6900W        W22709   8.893   2.394   0.382 -0.0226  0.0751 -0.1507
 6901W        W22710  15.459   3.315  15.228  0.3105  0.2485  0.0239
 6902W        W22711  11.327   8.947   4.720  0.3036 -0.2249 -0.1844
 6903W        W22712  17.464  13.024  14.958  0.1072 -0.2388  0.0998
 6904W        W22713  16.731  10.448   0.102 -0.3588 -0.0612 -0.2585
 6905W        W22714   4.152   3.846  13.266 -0.1483 -0.1837 -0.0722
 6906W        W22715   3.551   8.050  11.098 -0.1239  0.1513 -0.1254
 6907W        W22716   2.909   0.827   5.424  0.2044  0.1432  0.0746
 6908W        W22717   8.187  17.674   4.412  0.4402  0.0807  0.0290
 6909W        W22718   1.766   9.356   1.322 -0.1085  0.1643  0.2399
 6910W        W22719   3.278  17.700   5.744  0.1346  0.1032 -0.1909
 6911W        W22720  12.447  14.886  13.682  0.1224  0.4166 -0.4278
 6912W        W22721   8.456   6.537   0.462 -0.3364  0.1301 -0.0548
 6913W        W22722   0.630  11.567  12.809  0.0305  0.2390  0.4026
 6914W        W22723  13.635   9.456  15.143 -0.2169  0.1810 -0.1201
 6915W        W22724  12.616  13.381   3.288 -0.0624 -0.3222 -0.2320
 6916W        W22725  15.470   4.265   2.245 -0.2938 -0.0554  0.6608
 6917W        W22726   3.561   1.431   0.275  0.1817  0.1965  0.0124
 6918W        W22727  17.309   6.380   1.264  0.2149  0.1338  0.0888
 6919W        W22728   8.466   6.760   1.118 -0.0313 -0.0390 -0.0868
 6920W        W22729  10.282  11.237  14.483 -0.0830  0.0947 -0.2495
 6921W        W22730   9.589   7.600   2.347  0.0077  0.1254 -0.1665
 6922W        W22731  16.248   2.882   0.998  0.0892 -0.2797  0.0450
 6923W        W22732  12.933  12.111  13.892  0.2138 -0.0501 -0.2026
 6924W        W22733  14.860   3.864   0.261 -0.4335 -0.0702 -0.0919
 6925W        W22734   7.795   2.598  14.334 -0.0487 -0.0890  0.0904
 6926W        W22735  12.506   7.199   5.377  0.0899 -0.1721  0.1851
 6927W        W22736  13.197   8.486   5.566 -0.1337 -0.1467  0.0175
 6928W        W22737   3.090   2.559   0.123 -0.0603  0.1605 -0.0374
 6929W        W22738   6.227   6.137  13.182  0.2324 -0.1891 -0.0852
 6930W        W22739  10.053   6.428   0.136  0.2665 -0.2321  0.0308
 6931W        W22740  18.079   0.370   4.523 -0.0166  0.1414  0.3061
 6932W        W22741   5.867  15.959   0.438 -0.0219 -0.3090  0.1367
 6933W        W22742  18.005  11.113   3.421  0.1832  0.0176  0.4215
 6934W        W22743   2.044   6.940  16.314  0.3195 -0.0103 -0.2062
 6935W        W22744  14.724   3.872  14.829 -0.0973 -0.2535  0.2546
 6936W        W22745  17.986   7.375  15.854  0.2670  0.2900 -0.2282
 6937W        W22746  13.634  12.870   4.720 -0.1273 -0.0059 -0.3236
 6938W        W22747  15.718   5.657   1.447  0.0820  0.1611  0.0590
 6939W        W22748   8.502  10.008  12.734 -0.1115  0.0767  0.0139
 6940W        W22749   8.573  14.663   3.584 -0.0925 -0.1322  0.2275
 6941W        W22750   5.342   4.901  11.836 -0.0519  0.2288 -0.1806
 6942W        W22751   6.747   2.777  14.659  0.2705 -0.0353  0.2115
 6943W        W22752   8.398   4.454   1.881  0.0870 -0.4281 -0.0799
 6944W        W22753   5.577   3.480   4.179  0.0603 -0.0847 -0.0105
 6945W        W22754   7.717   0.756  13.724 -0.2229  0.0031  0.0682
 6946W        W22755   1.874  11.881  12.068  0.1292  0.3653  0.2367
 6947W        W22756   6.971   9.644  12.451 -0.2110 -0.0274 -0.0539
 6948W        W22757   3.100  12.644  14.025  0.1598 -0.0957  0.1189
 6949W        W22758   4.352   6.097   5.136 -0.2354 -0.1054  0.0581
 6950W        W22759  14.660  16.253  14.056 -0.1161 -0.0787 -0.0580
 6951W        W22760  13.778  11.004   1.033  0.2767  0.2446 -0.0175
 6952W        W22761  10.108  14.086  13.474  0.1341  0.3397 -0.0660
 6953W        W22762  13.833   0.563  16.209 -0.0462  0.1930 -0.1446
 6954W        W22763   0.981   6.645   1.603  0.4292  0.0489  0.0282
 6955W        W22764  14.085  12.626   4.589 -0.2070  0.1916  0.0649
 6956W        W22765   1.915   4.250   2.318  0.0270 -0.0447 -0.2595
 6957W        W22766  10.508  13.950  11.327  0.2773  0.4046 -0.0999
 6958W        W22767  16.981   1.871   4.945  0.1759 -0.2275  0.1141
 6959W        W22768  15.860   7.380   3.842  0.0918  0.0883  0.2646
 6960W        W22769   8.501   6.596  15.812 -0.1384  0.1323  0.2365
 6961W        W22770  16.840  15.950   4.963  0.1029  0.2581 -0.1796
 6962W        W22771  17.505   2.282  12.389  0.0965  0.1723 -0.4016
 6963W        W22772   4.395   4.504  15.168  0.0194 -0.1135  0.1943
 6964W        W22773   7.844   7.993  14.307  0.1043  0.2027 -0.1349
 6965W        W22774  10.498   9.220  12.505 -0.0723 -0.0071  0.1422
 6966W        W22775  16.665   9.207  12.598  0.0651 -0.3447  0.0130
 6967W        W22776  16.898  12.025   2.597  0.2496  0.1666 -0.0155
 6968W        W22777  11.596   7.551  13.707  0.3496  0.0643  0.1021
 6969W        W22778   8.176   9.723   6.141  0.2139  0.1404  0.0446
 6970W        W22779  12.946   6.170   5.304  0.0391  0.0795  0.0138
 6971W        W22780  13.697  17.040  15.294  0.1240  0.1487  0.1099
 6972W        W22781  13.291  13.035   2.135 -0.0997  0.0736  0.0407
 6973W        W22782  13.391  17.433  12.535  0.3621  0.0479 -0.0451
 6974W        W22783   9.073  13.859  13.272 -0.3945  0.0026 -0.1907
 6975W        W22784   3.275  13.565   4.451 -0.1505 -0.1468  0.2778
 6976W        W22785  17.397   0.602  14.140  0.1766  0.2090 -0.1141
 6977W        W22786  14.009  16.030  12.695 -0.2391  0.1275  0.1069
 6978W        W22787   0.109   1.847  15.376 -0.1560  0.1073  0.3382
 6979W        W22788   3.353   8.633  15.409  0.0027  0.1947 -0.1470
 6980W        W22789  15.500   5.687  12.814 -0.0942  0.1169 -0.1688
 6981W        W22790   5.592  12.084   2.936  0.2108  0.0540 -0.2111
 6982W        W22791  11.629  11.820  10.888  0.1653 -0.1914 -0.0997
 6983W        W22792  14.097  14.569  13.377 -0.2298 -0.0565  0.0410
 6984W        W22793   7.127  17.027  12.943 -0.4505 -0.0850  0.1364
 6985W        W22794  15.277  10.827  12.862  0.1046  0.1834  0.0924
 6986W        W22795  17.033  13.108  12.528 -0.0534 -0.2413 -0.2435
 6987W        W22796   1.371   0.116  16.033 -0.2038 -0.0370 -0.0408
 6988W        W22797  17.352  16.889   0.921  0.2728  0.1078 -0.2356
 6989W        W22798   9.081   3.166  13.835  0.2743  0.4173 -0.1248
 6990W        W22799  10.240   3.715   3.076  0.2360 -0.1115 -0.0275
 6991W        W22800   6.106   5.676   4.469 -0.0277  0.0569 -0.1162
 6992W        W22801   7.400  18.137   5.748 -0.0137  0.0278 -0.0098
 6993W        W22802   4.251   3.283   4.656  0.0199  0.3533 -0.1041
 6994W        W22803  16.465  15.736  12.651 -0.2862  0.1046  0.2098
 6995W        W22804   2.560   0.099   4.728  0.2390  0.1523 -0.2025
 6996W        W22805   9.556   7.237   1.836 -0.0590  0.2359 -0.0621
 6997W        W22806  13.396  12.804   3.550 -0.0079  0.2505  0.1961
 6998W        W22807  18.149   7.295  11.309  0.0925 -0.0215  0.1524
 6999W        W22808   2.712  15.898  14.221  0.3751  0.1370  0.2395
 7000W        W22809  14.854  12.206  16.346  0.0257  0.2421 -0.2625
 7001W        W22810  11.150   2.329   4.385 -0.0639 -0.2954 -0.2311
 7002W        W22811   1.738  15.225  13.418 -0.3222  0.3805 -0.2216
 7003W        W22812  13.648   1.905  11.440 -0.3452 -0.0597  0.2071
 7004W        W22813   1.086   1.654   2.829 -0.0150  0.2600 -0.0620
 7005W        W22814   1.297   0.848   0.789  0.3430 -0.0672  0.1115
 7006W        W22815   3.670  12.913   5.490  0.1968 -0.2185  0.1862
 7007W        W22816  13.865  10.031  14.945 -0.3575  0.0587  0.1093
 7008W        W22817   2.755  17.372  16.166 -0.3252  0.0788 -0.1416
 7009W        W22818   7.048  15.641  10.394  0.2920 -0.0021 -0.0404
 7010W        W22819   7.528   9.308   1.746  0.0967 -0.1308  0.0849
 7011W        W22820   7.233  12.858   0.901  0.0113 -0.0446  0.3112
 7012W        W22821   7.143  10.390   1.957 -0.3229  0.1244  0.0656
 7013W        W22822  14.854   4.293   5.349  0.0441 -0.1955  0.3026
 7014W        W22823  13.874   3.713   2.428  0.0906  0.2304  0.1498
 7015W        W22824  15.612  14.145   1.040  0.2684  0.0706  0.1754
 7016W        W22825   6.479  12.067  16.005  0.0238 -0.2669 -0.1088
 7017W        W22826  15.913   1.924   2.007 -0.1713  0.0264  0.0415
 7018W        W22827   3.520   0.788   2.887  0.2959  0.0528 -0.2973
 7019W        W22828   8.410  16.265   0.745 -0.1321  0.0183  0.2274
 7020W        W22829  15.745   2.852   1.948 -0.1398 -0.0009  0.0015
 7021W        W22830   1.585   2.067   1.807  0.2926  0.0796 -0.3567
 7022W        W22831  12.140   4.817   2.248 -0.2285  0.2797  0.4340
 7023W        W22832   9.372  15.442   3.201  0.2579  0.0904 -0.1977
 7024W        W22833   7.513  11.249   1.993 -0.1112 -0.3636  0.1483
 7025W        W22834  17.150   4.252  14.200 -0.0549  0.0792  0.0863
 7026W        W22835  14.458  10.192   0.258  0.1083 -0.2821 -0.1141
 7027W        W22836   8.403   2.428  10.865 -0.0766 -0.1355 -0.0022
 7028W        W22837  14.152  13.725  11.536 -0.2281  0.0344  0.1538
 7029W        W22838  16.196  14.278  12.528 -0.2361  0.2444 -0.2017
 7030W        W22839   8.294  16.525  14.562 -0.0436  0.1476 -0.0283
 7031W        W22840   4.606   6.594   4.757  0.0973 -0.1710 -0.2529
 7032W        W22841  14.236   0.716   5.563  0.1092  0.6830 -0.0326
 7033W        W22842  17.038   3.053  13.534  0.2776 -0.1522  0.0712
 7034W        W22843  11.869  16.501   3.828  0.0220 -0.2559 -0.1057
 7035W        W22844   3.092  15.433  14.876  0.1301 -0.0277  0.0195
 7036W        W22845  12.800  10.574  11.442  0.2130  0.0693  0.0723
 7037W        W22846   8.941  18.079   4.604 -0.1600 -0.0280 -0.1808
 7038W        W22847   9.301  17.321  13.640 -0.0077 -0.2488  0.1050
 7039W        W22848  17.124  14.533   3.448 -0.0825 -0.1721  0.0144
 7040W        W22849   4.061  14.012   4.729 -0.0291 -0.3165 -0.1775
 7041W        W22850  13.081   3.080   2.420  0.0844  0.0294 -0.1917
 7042W        W22851  17.416  17.726   2.083  0.2091  0.1255  0.3037
 7043W        W22852   4.802   8.836   4.046 -0.1095  0.3167  0.0123
 7044W        W22853   7.181   6.707   4.622 -0.0657  0.0895 -0.1923
 7045W        W22854   0.057  16.893  15.803  0.0605  0.0811  0.0857
 7046W        W22855   2.823  16.037   4.466 -0.1436  0.3798  0.1468
 7047W        W22856   6.702  14.972  12.772  0.0993 -0.1348  0.1240
 7048W        W22857  15.662   8.759   0.325 -0.1254  0.0846 -0.1420
 7049W        W22858  10.104  15.996  14.786 -0.2867 -0.0008  0.2672
 7050W        W22859  15.057   6.915   0.209 -0.1208  0.1454 -0.4621
 7051W        W22860  17.225  13.474   4.119  0.0177  0.1132 -0.0556
 7052W        W22861   4.818  12.406  11.301 -0.1543 -0.2195  0.0374
 7053W        W22862   0.344   2.010   3.708 -0.0656 -0.2524 -0.1354
 7054W        W22863   4.869  16.653  14.218 -0.0964  0.1426  0.2541
 7055W        W22864   4.519  17.636   0.887  0.2513 -0.2075  0.2728
 7056W        W22865  17.355   0.946   3.261  0.2195  0.0883  0.1281
 7057W        W22866   9.825  15.678  12.767 -0.2519  0.1635  0.1945
 7058W        W22867  10.514  17.113  13.986 -0.2475 -0.3275 -0.1237
 7059W        W22868  16.730   2.587  12.927 -0.0112  0.1842 -0.2250
 7060W        W22869   7.123  15.663  14.519  0.1492  0.1358 -0.0643
 7061W        W22870   7.214   5.698   5.445  0.2013  0.0758  0.2594
 7062W        W22871   1.479   1.487   1.952 -0.1761 -0.0086 -0.1467
 7063W        W22872  12.979  16.582   2.060 -0.2001 -0.1845 -0.2073
 7064W        W22873  11.127   6.273   0.432  0.1597  0.3192 -0.2676
 7065W        W22874  18.031   4.468   2.096 -0.1372  0.0695 -0.3307
 7066W        W22875  14.144   8.803   1.948 -0.1760  0.0660  0.0879
 7067W        W22876  10.696  10.979   3.578 -0.0538  0.0509  0.1381
 7068W        W22877  12.219   1.307   0.442 -0.1841  0.0680  0.1204
 7069W        W22878   4.710   9.230   0.968 -0.2814 -0.0701  0.5506
 7070W        W22879  13.015   2.140   4.403  0.3347  0.1423 -0.1470
 7071W        W22880  14.784   6.423   2.119 -0.0007  0.1192 -0.2200
 7072W        W22881   8.493  11.454  12.465  0.1339 -0.2169 -0.1601
 7073W        W22882  13.730   8.758   1.556 -0.1227 -0.0941 -0.0223
 7074W        W22883   1.222  14.831   0.605 -0.0669 -0.1523 -0.0440
 7075W        W22884   8.630   4.052   0.864 -0.2815  0.1055  0.1312
 7076W        W22885   9.171   9.224   3.069  0.1435  0.2163  0.3994
 7077W        W22886   1.389   1.633   5.550  0.0035  0.0241 -0.0048
 7078W        W22887   5.365   0.685  12.646  0.1509  0.0856 -0.1370
 7079W        W22888   2.068   8.281   5.317  0.2360 -0.0727 -0.2726
 7080W        W22889   0.095   9.058   0.499  0.0950 -0.1010 -0.2649
 7081W        W22890   2.796  13.732   3.168  0.2294  0.2663 -0.1718
 7082W        W22891   5.844  16.748   6.095 -0.0801 -0.0924 -0.0279
 7083W        W22892   8.301   8.603  15.184  0.1970 -0.2005  0.2794
 7084W        W22893   1.703  15.463  15.088 -0.1208 -0.1904 -0.1551
 7085W        W22894  15.623   7.128   4.296 -0.0222  0.2417 -0.3628
 7086W        W22895   5.102  18.137  10.795  0.1844 -0.2440 -0.1104
 7087W        W22896  13.292   0.898  13.991 -0.0349 -0.1000  0.3360
 7088W        W22897   8.005  12.738   4.816  0.0304  0.1492 -0.0296
 7089W        W22898  16.630  16.535  13.198 -0.0286  0.1861 -0.0023
 7090W        W22899  13.921   4.808  15.140  0.0919  0.0819 -0.3171
 7091W        W22900  15.636   9.953   3.143 -0.0724  0.0241 -0.1628
 7092W        W22901   8.017   8.548   5.343  0.0698  0.0222 -0.2745
 7093W        W22902   9.160  15.060  12.498  0.0976 -0.1516  0.1297
 7094W        W22903  16.241   4.207  14.020  0.0880 -0.0289  0.2632
 7095W        W22904   1.259  16.176  12.153  0.0335  0.3397  0.0412
 7096W        W22905   6.419  16.108   1.997 -0.1246  0.0593  0.2370
 7097W        W22906  13.994   5.098   6.163 -0.1178 -0.0342 -0.1006
 7098W        W22907  16.345  14.940  14.772  0.2111 -0.0129  0.2596
 7099W        W22908  14.212   0.761   3.525  0.0069  0.0212  0.0835
 7100W        W22909   3.964   5.627  14.564  0.0658 -0.0978  0.0462
 7101W        W22910   0.201   7.132   3.991  0.0249  0.1285 -0.0618
 7102W        W22911   0.113  11.356  14.189  0.0715 -0.2734 -0.0641
 7103W        W22912   3.268  16.191   0.476  0.0123  0.1327  0.1522
 7104W        W22913   9.560   0.171   3.165 -0.1291 -0.1933  0.0881
 7105W        W22914  15.867  15.511   0.394  0.1214 -0.0163  0.3725
 7106W        W22915   1.395  16.140  13.052  0.0537  0.0965 -0.0867
 7107W        W22916  16.633   7.316  12.747 -0.0628 -0.1437 -0.1639
 7108W        W22917   3.652  16.381  13.702  0.0780 -0.3650 -0.0043
 7109W        W22918   8.007   5.625   1.926  0.3608 -0.0655 -0.2439
 7110W        W22919   8.112   7.381  12.153  0.0480  0.1195  0.0488
 7111W        W22920   3.368  11.577  13.494  0.0484 -0.1436 -0.1807
 7112W        W22921  11.164  15.735  15.229  0.0237  0.2626 -0.0751
 7113W        W22922  14.948   2.143  12.399  0.1320 -0.1523 -0.3109
 7114W        W22923   1.993   0.362   1.177 -0.0650  0.1655  0.3141
 7115W        W22924  10.365  14.785   5.978  0.0848 -0.0536 -0.4989
 7116W        W22925  17.731  11.651   2.043  0.0333 -0.2198  0.1807
 7117W        W22926  13.474   7.029  11.788  0.0510 -0.0399  0.3746
 7118W        W22927  16.298  11.470  12.786 -0.0346 -0.1667  0.1958
 7119W        W22928   8.131   7.894  12.881  0.1033  0.2716 -0.0237
 7120W        W22929   2.476  17.059   3.001  0.0659  0.3052 -0.0756
 7121W        W22930  11.241   9.932  13.908  0.1133 -0.0004 -0.1088
 7122W        W22931   5.967  15.441   0.300  0.3057  0.0889 -0.0569
 7123W        W22932  10.384  13.969  12.951  0.0327 -0.1282 -0.0951
 7124W        W22933   6.969  10.305   5.950  0.1554 -0.2149 -0.0240
 7125W        W22934  11.702   1.751   3.591 -0.4196 -0.0176 -0.2883
 7126W        W22935   4.693  14.198   2.640  0.1830 -0.3522  0.1168
 7127W        W22936  14.569   4.461  16.184  0.1412  0.0580  0.3528
 7128W        W22937   7.024   4.138  13.649  0.3648  0.1577 -0.0848
 7129W        W22938  17.791   0.894   3.616  0.2644 -0.0573 -0.1360
 7130W        W22939   4.842   8.609  12.817 -0.2391 -0.0493 -0.2107
 7131W        W22940  10.690  14.783  14.066 -0.0832  0.4509  0.0496
 7132W        W22941  11.874  16.974   0.318 -0.0524  0.2071 -0.0230
 7133W        W22942  10.133  17.322  14.888 -0.0098 -0.1351  0.1058
 7134W        W22943  10.512   9.961  11.909  0.1602  0.2375 -0.0134
 7135W        W22944   9.690  17.794   2.504 -0.1808 -0.1823 -0.1592
 7136W        W22945   9.520  12.308  10.782  0.1362 -0.2746  0.1094
 7137W        W22946   9.406   3.753   4.787  0.0479  0.0729  0.1729
 7138W        W22947  13.652  12.245  11.675  0.1566 -0.1622  0.0235
 7139W        W22948   2.067  10.103   0.656 -0.0951  0.1796  0.0700
 7140W        W22949  15.195   7.103  11.599  0.0048 -0.1324  0.2038
 7141W        W22950   6.022   3.928   2.344 -0.3278 -0.1518 -0.0882
 7142W        W22951  10.221  12.869   4.813  0.1740  0.0669  0.1778
 7143W        W22952   1.671   3.447   1.489  0.0630 -0.2643  0.0064
 7144W        W22953  10.233   9.785   5.563 -0.0781 -0.3383 -0.0712
 7145W        W22954   6.132   0.529  13.828 -0.1371 -0.0517 -0.3119
 7146W        W22955  14.450   5.994   4.616  0.0974 -0.2852  0.3509
 7147W        W22956   6.453  13.112  15.253 -0.0371  0.1311 -0.2637
 7148W        W22957  14.388  13.886   0.651 -0.0282 -0.0521  0.0681
 7149W        W22958  14.369   1.922   0.136 -0.0744 -0.1304  0.1865
 7150W        W22959  13.017  16.141  11.685 -0.2893  0.1730  0.1882
 7151W        W22960   9.781  14.871  15.034  0.2696 -0.0076 -0.2015
 7152W        W22961   7.349  15.608  12.753 -0.0338  0.4109 -0.1673
 7153W        W22962   0.126  16.931   3.591 -0.1006  0.1752  0.2429
 7154W        W22963  12.594   6.512   5.542 -0.0253  0.3453  0.2064
 7155W        W22964  14.648  16.708  14.402  0.0225 -0.1501 -0.0079
 7156W        W22965  13.210   5.157   0.697  0.0384  0.0106 -0.0472
 7157W        W22966   0.571  10.948   2.820 -0.2090 -0.0882 -0.1802
 7158W        W22967   6.314   0.048   0.145 -0.1092  0.1004  0.1089
 7159W        W22968   9.814  14.034   3.190 -0.3935  0.3333  0.0108
 7160W        W22969  16.471  11.324  13.259 -0.0479  0.2639 -0.2448
 7161W        W22970  12.637   1.369   1.090  0.0290  0.2343  0.0682
 7162W        W22971  13.001   5.452   4.781 -0.0556 -0.0694  0.0122
 7163W        W22972  11.713  14.093  15.617 -0.2344 -0.1943 -0.1208
 7164W        W22973   5.581  17.147  14.041 -0.0314  0.1389 -0.0135
 7165W        W22974  11.388   4.916   0.981  0.0851  0.3564 -0.4665
 7166W        W22975   0.410   4.759   4.466  0.4237 -0.3080  0.2240
 7167W        W22976  11.718  18.187  11.229  0.0751  0.3031 -0.1035
 7168W        W22977   1.986  10.573   5.121  0.0271  0.1319 -0.0963
 7169W        W22978   5.132  10.548   4.699 -0.1767  0.0144 -0.0512
 7170W        W22979   0.625   5.236   5.697 -0.0176  0.1824 -0.0457
 7171W        W22980  13.463  13.862   2.607 -0.0505 -0.0562 -0.2194
 7172W        W22981  16.766   2.014   0.831 -0.2152 -0.1128  0.0023
 7173W        W22982  13.147  13.706  13.197  0.2697 -0.1793  0.2405
 7174W        W22983   0.435   2.496   5.660  0.2165  0.1402 -0.3551
 7175W        W22984   4.293  15.327   2.834  0.2322 -0.2874 -0.1250
 7176W        W22985   9.245   4.160   4.585 -0.4185 -0.2018 -0.1929
 7177W        W22986  10.554   4.205   0.096 -0.1617  0.0696  0.3406
 7178W        W22987  13.749   2.427   3.974 -0.0891  0.2370 -0.2074
 7179W        W22988   5.782  15.336  14.294  0.0853  0.0858  0.2314
 7180W        W22989  12.744  16.603   5.393 -0.2935  0.1504 -0.3676
 7181W        W22990  17.610  13.068   1.532  0.1270 -0.1129 -0.0115
 7182W        W22991  16.982  10.655  16.086 -0.1385 -0.1176 -0.1301
 7183W        W22992  14.679   2.903   1.086 -0.1458  0.0863 -0.3524
 7184W        W22993   2.507  16.775   1.753 -0.2418  0.1530 -0.0032
 7185W        W22994   7.135   2.115   4.135 -0.0975  0.2925 -0.2116
 7186W        W22995   6.719  10.768   5.374 -0.3598 -0.2794 -0.1366
 7187W        W22996   7.788  13.413   3.586  0.0980  0.2866 -0.1803
 7188W        W22997  14.336  13.890   2.254 -0.1000 -0.2436  0.1852
 7189W        W22998  14.061  17.119  14.014 -0.0553 -0.0942  0.0239
 7190W        W22999   3.798  12.331  13.250 -0.0474 -0.0852  0.1997
 7191W        W23000   6.175   9.599   1.498  0.0278  0.3028  0.2717
 7192W        W23001   2.277   6.389   4.564 -0.1453  0.0462  0.0018
 7193W        W23002  10.338   6.235   0.532  0.0515  0.0201  0.1412
 7194W        W23003  16.545  11.088   6.253  0.0759  0.0686 -0.1616
 7195W        W23004   8.041   3.027  15.906 -0.1445  0.0185 -0.2592
 7196W        W23005  15.697   7.513  14.150 -0.1109 -0.0105  0.2023
 7197W        W23006   9.735   3.175   3.697  0.1460 -0.1245 -0.2471
 7198W        W23007   7.803   2.335  10.947  0.1120 -0.1436  0.0548
 7199W        W23008  16.173   0.625  11.483  0.3675  0.0888  0.0943
 7200W        W23009   5.187   8.725   4.352  0.0689 -0.1114 -0.0937
 7201W        W23010   9.541  10.364   5.051  0.0990 -0.0911  0.4914
 7202W        W23011   9.149  10.002   3.553  0.1015 -0.0667 -0.0164
 7203W        W23012  11.618  12.861   4.030 -0.0575 -0.1005 -0.2242
 7204W        W23013   7.171   8.750  14.121  0.1979  0.3221 -0.1733
 7205W        W23014  15.155  14.312  12.900 -0.1336  0.2639 -0.0033
 7206W        W23015   4.093   7.429  13.597 -0.0526  0.0907  0.1754
 7207W        W23016  10.834  10.730   4.469 -0.5969 -0.0946  0.0567
 7208W        W23017   2.308  17.636  11.185  0.2338 -0.3889  0.0283
 7209W        W23018   2.548  10.301  11.460  0.0535 -0.0818 -0.0270
 7210W        W23019  15.179  14.405   1.082 -0.0189  0.4531  0.2006
 7211W        W23020  13.353   6.000  13.736  0.2284  0.0527 -0.1192
 7212W        W23021   4.464   0.954   4.031 -0.3748 -0.2937  0.0260
 7213W        W23022  13.937   1.718   3.428 -0.1400  0.1662  0.1172
 7214W        W23023   5.870   6.348  13.534 -0.0130 -0.4379  0.0185
 7215W        W23024  16.040   0.615  12.893  0.0350 -0.2064 -0.1673
 7216W        W23025   0.612   5.164   0.943  0.0303  0.0840  0.1830
 7217W        W23026   2.546  16.404  14.120 -0.0710 -0.2021 -0.0931
 7218W        W23027   2.715  14.125  13.994 -0.2070 -0.1113  0.2779
 7219W        W23028   6.647   1.012   3.563 -0.0202  0.0677  0.0026
 7220W        W23029  14.902  10.389  10.788 -0.1236  0.0764 -0.0559
 7221W        W23030   3.522  15.945  14.098 -0.0444 -0.1509  0.1747
 7222W        W23031   0.105  13.605  14.225 -0.0693 -0.0687 -0.0866
 7223W        W23032  16.753   5.923  14.750 -0.3194 -0.0552 -0.0418
 7224W        W23033  10.770   6.626   4.497 -0.2399  0.0103 -0.3260
 7225W        W23034   5.664  15.960   0.889  0.1015 -0.1049 -0.0851
 7226W        W23035   0.889  15.772   2.461 -0.2113  0.0112 -0.4866
 7227W        W23036  15.547   6.554  13.862  0.2178  0.3878  0.1152
 7228W        W23037  11.621  12.998  11.566 -0.0148 -0.0395  0.2155
 7229W        W23038  14.636   9.000   0.717 -0.3364  0.0049 -0.1497
 7230W        W23039   9.884   2.850   4.048  0.0651  0.1408  0.3305
 7231W        W23040   0.496   8.430   4.638 -0.1365  0.1693 -0.0325
 7232W        W23041  16.004  13.977  13.125 -0.0037 -0.0586 -0.1161
 7233W        W23042   5.982   0.464   3.594  0.2235  0.1763  0.0671
 7234W        W23043   9.835   2.441   3.124 -0.3402  0.1159  0.0758
 7235W        W23044  11.026  12.552   2.077  0.0654  0.1106  0.0538
 7236W        W23045   2.577   1.209   2.873  0.3223 -0.0127  0.0411
 7237W        W23046   6.180  10.397   5.487 -0.1289 -0.0887 -0.0308
 7238W        W23047   5.651   8.218   0.756  0.0399 -0.6348  0.1547
 7239W        W23048   8.352   5.011   1.730  0.0396  0.0222 -0.1247
 7240W        W23049   0.589   5.246   4.452  0.4053 -0.2542  0.0775
 7241W        W23050   6.574   9.723   5.078  0.0031  0.0274 -0.0824
 7242W        W23051  11.468   3.020  10.727  0.0303 -0.2695  0.1855
 7243W        W23052   3.229   1.429  15.497 -0.0854 -0.1434 -0.2532
 7244W        W23053   3.120  15.729   2.533  0.0350  0.0565  0.0906
 7245W        W23054   6.253  11.748   1.398  0.0248  0.1745  0.1028
 7246W        W23055   8.749   9.016  14.114  0.0544 -0.2820 -0.4604
 7247W        W23056  14.674   2.843  16.177  0.1914 -0.0202  0.1497
 7248W        W23057  12.479  10.397  16.331  0.2093 -0.1940  0.0488
 7249W        W23058  13.332   1.087   3.931 -0.0737  0.0815 -0.2112
 7250W        W23059   8.989   1.847   1.206 -0.1203 -0.2618  0.2549
 7251W        W23060  14.004   2.538   0.816 -0.0540 -0.0877 -0.1632
 7252W        W23061  14.080  15.426   4.923  0.0820  0.3412  0.0976
 7253W        W23062   3.490   3.432   3.128 -0.3091  0.0220  0.1032
 7254W        W23063   3.173  10.517  16.174 -0.1741  0.0580 -0.0488
 7255W        W23064   7.056   6.496  11.600 -0.2363  0.1818 -0.4110
 7256W        W23065   8.658   6.611  15.071  0.3776 -0.3238  0.1895
 7257W        W23066  14.342  17.219  13.562  0.0271 -0.1521  0.0784
 7258W        W23067  15.541   4.432   2.886  0.2436  0.1553  0.2838
 7259W        W23068   8.709   9.842   3.352 -0.1188  0.1063 -0.2636
 7260W        W23069   3.401  10.214   1.861 -0.0138 -0.1638 -0.1931
 7261W        W23070   5.983  12.167   0.525  0.1753  0.0394 -0.0842
 7262W        W23071  11.438   3.263   2.895 -0.2031 -0.0823 -0.2344
 7263W        W23072   2.597  16.624   4.657 -0.0460 -0.1857  0.2306
 7264W        W23073  16.271   2.440   4.837  0.1215  0.0989  0.0892
 7265W        W23074   3.283   4.771   1.689  0.0470  0.1172 -0.0826
 7266W        W23075   2.013  15.760  11.697 -0.1376  0.1745 -0.4094
 7267W        W23076  16.509   5.953   1.105 -0.0198 -0.2762  0.1419
 7268W        W23077   4.504   7.650   6.610  0.3041  0.0935  0.0076
 7269W        W23078  14.577   8.020   4.094  0.0300  0.0008  0.1372
 7270W        W23079  16.476  15.187  12.904 -0.0691  0.0028  0.1374
 7271W        W23080  10.086  10.608  15.473 -0.0277  0.1034  0.1808
 7272W        W23081  17.120   1.386   1.181 -0.0286  0.0011  0.0064
 7273W        W23082  14.751   4.431  13.708  0.5372 -0.0466  0.2904
 7274W        W23083   6.446   6.454  15.412 -0.0298 -0.1465 -0.2178
 7275W        W23084   1.032  15.422   1.904 -0.0590  0.2795  0.0463
 7276W        W23085  11.256  17.728   2.355  0.0416 -0.1418  0.2578
 7277W        W23086   8.163  15.642   3.116 -0.0687 -0.2870  0.0017
 7278W        W23087  11.226  14.753  14.361 -0.0563  0.2306 -0.3315
 7279W        W23088  16.720   7.846  12.630  0.0011  0.4857  0.0025
 7280W        W23089  10.872  12.096  12.691 -0.4255  0.0435 -0.1408
 7281W        W23090   5.722  17.658  15.967  0.0284  0.0086 -0.0086
 7282W        W23091   7.822   9.265  14.451  0.1565  0.1804 -0.2832
 7283W        W23092   9.176   4.601   4.413  0.3921 -0.0665  0.2578
 7284W        W23093   1.608   8.544  14.032 -0.1525  0.0149 -0.0656
 7285W        W23094  12.424  11.273  12.717 -0.0444  0.1075 -0.0924
 7286W        W23095   8.756   7.466   0.960  0.0716  0.0353  0.1358
 7287W        W23096   1.602  12.593   4.905 -0.0324  0.0541  0.0482
 7288W        W23097   1.265   5.290  15.578 -0.0059  0.0657  0.3857
 7289W        W23098   8.895   4.485   1.106  0.5412  0.0387 -0.1461
 7290W        W23099   3.372  17.135  13.243 -0.1817  0.1977  0.4982
 7291W        W23100  17.682   2.519   0.785  0.0118  0.0792 -0.0158
 7292W        W23101  14.423  18.182  14.141 -0.1081 -0.2231  0.2437
 7293W        W23102   5.642   8.971   1.154 -0.1260 -0.0824 -0.0328
 7294W        W23103   6.847   0.549  14.699  0.0915 -0.0365  0.0782
 7295W        W23104   9.891  15.149   1.529 -0.0019  0.1602  0.2888
 7296W        W23105  14.842  17.365  15.473 -0.0513 -0.1044 -0.4783
 7297W        W23106  13.326   4.694   0.480 -0.0724  0.1321  0.1506
 7298W        W23107   7.266   7.246  10.486  0.2224 -0.3068 -0.4136
 7299W        W23108  11.943  11.066  15.334  0.0512  0.1603  0.2446
 7300W        W23109  12.732  12.810  15.626  0.0313  0.0474  0.0969
 7301W        W23110  16.956   7.288   4.503 -0.2840  0.1781  0.2116
 7302W        W23111   9.803   4.664  13.813  0.1481  0.0182  0.3158
 7303W        W23112   6.869   7.823  16.300  0.1805 -0.0888  0.3763
 7304W        W23113   2.951  11.166   4.170  0.0391 -0.0221  0.0750
 7305W        W23114   1.888  16.717   3.580 -0.1361  0.0505 -0.2895
 7306W        W23115  16.840  10.473  14.932 -0.0976 -0.0380 -0.1799
 7307W        W23116  16.214   6.207   0.279 -0.0917  0.2077 -0.1233
 7308W        W23117   2.089   5.324   4.443  0.0431  0.3333 -0.1574
 7309W        W23118  10.888  14.672  13.519 -0.0028 -0.2658  0.1809
 7310W        W23119   2.224  17.600   3.040 -0.1617  0.2988 -0.1807
 7311W        W23120   8.228   9.963   3.915  0.0703 -0.1031  0.2671
 7312W        W23121   0.081  16.157  13.915 -0.0762 -0.2180  0.0421
 7313W        W23122  12.977  16.468   1.123  0.3328 -0.0356 -0.1055
 7314W        W23123   1.178   2.255   6.092 -0.2278 -0.2102  0.2872
 7315W        W23124  16.103   3.092  13.069  0.3262 -0.1693 -0.0810
 7316W        W23125  14.397  14.406  13.843 -0.2385  0.0151 -0.1390
 7317W        W23126  14.352  10.915  11.845 -0.0325  0.0828 -0.0737
 7318W        W23127  12.135  14.615   5.392 -0.2725  0.2317 -0.2255
 7319W        W23128   6.527   7.501   1.210 -0.0174  0.0475  0.0750
 7320W        W23129   3.647  13.316  13.383  0.1037 -0.1132  0.0338
 7321W        W23130  10.217  12.822  15.417 -0.0836 -0.0218 -0.0764
 7322W        W23131  17.520   3.473  14.297  0.0057 -0.3255 -0.1080
 7323W        W23132  16.314   1.061  13.098  0.1290 -0.3344 -0.0713
 7324W        W23133   8.168  15.068  13.865 -0.1645  0.3223 -0.2788
 7325W        W23134  17.301   8.391  11.557 -0.0675  0.3557  0.0026
 7326W        W23135  12.033  15.482   5.255  0.2966 -0.2480  0.0842
 7327W        W23136   4.332  17.844   0.471  0.2352  0.2255 -0.1849
 7328W        W23137   4.739   1.317   2.898  0.3411  0.2017  0.1432
 7329W        W23138  12.498   1.485   2.483  0.0363 -0.0815  0.1794
 7330W        W23139  13.457  10.763  15.744  0.0727 -0.0838  0.1696
 7331W        W23140  16.739  14.319  14.603  0.4413  0.2249 -0.0070
 7332W        W23141   2.051   0.393  14.058 -0.0871 -0.2957 -0.0472
 7333W        W23142   2.527  16.013  12.791 -0.0462  0.2409 -0.1176
 7334W        W23143   4.645  16.109   0.544 -0.0743  0.2472  0.2718
 7335W        W23144  13.907   2.923  13.470 -0.0819 -0.0177 -0.4471
 7336W        W23145  11.392  10.350  10.558 -0.2281 -0.1484  0.2357
 7337W        W23146  15.741  17.316  12.421 -0.4051 -0.0972 -0.0532
 7338W        W23147   9.284   4.146  12.533 -0.2222 -0.1805  0.0938
 7339W        W23148   0.684   8.134  14.150  0.1635 -0.1478 -0.2784
 7340W        W23149   3.442   5.858  14.457  0.1253  0.0274 -0.1791
 7341W        W23150  13.757  14.735  12.988 -0.1923  0.2734 -0.0120
 7342W        W23151   1.030  10.710  13.398  0.1766  0.1087  0.0407
 7343W        W23152   0.657   9.883   3.519  0.0764 -0.1002  0.0705
 7344W        W23153  15.313  10.281  12.969 -0.0135 -0.2581 -0.2142
 7345W        W23154  14.468   3.940  11.636  0.2635  0.0371  0.2922
 7346W        W23155   5.336   3.543  13.190 -0.2343 -0.0623 -0.2393
 7347W        W23156   1.189   1.445   4.097 -0.2464  0.1084  0.0240
 7348W        W23157  15.082  12.407  12.106 -0.3265 -0.0579 -0.0683
 7349W        W23158  14.087  13.719  13.190 -0.2339 -0.1749  0.0675
 7350W        W23159   2.465  10.242  15.673 -0.0371  0.1098 -0.2677
 7351W        W23160  10.147   6.293  11.633  0.0002 -0.1171 -0.0821
 7352W        W23161   3.461   3.177  12.042  0.1201  0.3956 -0.2979
 7353W        W23162   4.172   3.649   3.208  0.0426  0.2246  0.1498
 7354W        W23163   9.882   2.516  11.988  0.1586 -0.2000 -0.1534
 7355W        W23164  11.776   3.616   3.032  0.0948 -0.2634  0.0339
 7356W        W23165  11.318  13.888   1.650 -0.0325  0.1583 -0.1033
 7357W        W23166  17.585  17.892  12.627  0.1457  0.2561 -0.0423
 7358W        W23167   9.418   6.862  15.519 -0.0932 -0.0642 -0.2567
 7359W        W23168   6.988   3.091  11.238 -0.0192  0.0814  0.2532
 7360W        W23169  14.729   6.038  15.306  0.2143  0.1405 -0.1404
 7361W        W23170  14.623   4.715  10.828  0.0564 -0.1658 -0.0163
 7362W        W23171  15.534  16.140   1.439 -0.0161  0.0022  0.2164
 7363W        W23172   5.875   0.040  13.757 -0.5285  0.3003  0.1318
 7364W        W23173  15.182   1.100   2.882 -0.1337 -0.2425 -0.2776
 7365W        W23174   1.921   4.159  14.043 -0.0345  0.1550 -0.0756
 7366W        W23175  17.098   6.182   3.546  0.0900  0.1966 -0.1256
 7367W        W23176   6.177   2.970  13.146  0.2251  0.0294 -0.1078
 7368W        W23177   7.667   6.344  15.844  0.0935 -0.2249 -0.1829
 7369W        W23178   4.553  11.741  12.041 -0.1189  0.0246  0.0104
 7370W        W23179  12.756   3.598  11.604  0.0275  0.2472  0.0403
 7371W        W23180  14.891  14.529   2.763  0.0423 -0.0797 -0.2297
 7372W        W23181  10.138   6.113  11.004 -0.0310 -0.5465  0.1284
 7373W        W23182   4.293  11.708  15.018  0.0299 -0.3321  0.2723
 7374W        W23183   5.562  15.178   3.918  0.1478 -0.2309  0.0851
 7375W        W23184   8.943   0.867   3.030  0.0988 -0.2078  0.3194
 7376W        W23185   1.580   2.374  12.480  0.1724 -0.2518  0.2161
 7377W        W23186   0.514   3.955  13.453  0.0608 -0.2991  0.3100
 7378W        W23187  17.942  13.481  12.071 -0.1416  0.0194  0.1378
 7379W        W23188   6.500   7.662   4.665  0.2352  0.0677  0.1253
 7380W        W23189  17.113  17.118   2.674  0.0608  0.1393  0.0752
 7381W        W23190  14.567   6.613  12.503 -0.3127  0.2297 -0.0030
 7382W        W23191   5.375   3.475  13.725  0.2994  0.1319  0.3388
 7383W        W23192  11.238   8.965  13.658  0.0878  0.0045  0.1439
 7384W        W23193  16.800  10.804  12.031  0.1013 -0.1121 -0.0914
 7385W        W23194   1.110   6.078  11.212 -0.0634  0.0977  0.2428
 7386W        W23195   6.093   5.020   0.227 -0.1553  0.1546  0.3168
 7387W        W23196   6.257  16.456  15.063 -0.0571 -0.2635  0.1040
 7388W        W23197   2.753   9.594  11.396  0.3910  0.0598  0.1677
 7389W        W23198   6.724   6.961   2.651  0.0303  0.2049 -0.0420
 7390W        W23199   1.351  10.652  15.570  0.1780  0.0004 -0.0054
 7391W        W23200   7.805   6.821   0.707 -0.2534  0.0469 -0.1288
 7392W        W23201   2.328   4.057  15.542 -0.1881 -0.1553  0.0334
 7393W        W23202   9.717   7.361  13.149 -0.0215 -0.1710  0.2082
 7394W        W23203   2.802  17.864  11.133 -0.1884  0.3556  0.0480
 7395W        W23204  17.188   2.895  13.061  0.5188 -0.2685 -0.0069
 7396W        W23205  10.590   1.074   5.549 -0.0723 -0.0615  0.0714
 7397W        W23206  15.244   1.803   3.705 -0.0486  0.3496  0.2985
 7398W        W23207  13.044  17.191   3.226  0.0260  0.0428  0.1167
 7399W        W23208  16.176  11.856   2.215 -0.3503  0.0155 -0.0468
 7400W        W23209   9.572  17.215   0.358  0.1498 -0.0656 -0.0472
 7401W        W23210  14.238   2.109  15.989  0.2285  0.1412 -0.0225
 7402W        W23211  16.277  12.040   1.750  0.0582  0.0377 -0.0114
 7403W        W23212   3.536   9.041  14.561  0.1433 -0.0555  0.0070
 7404W        W23213  11.827   8.076   2.891  0.0120 -0.0041 -0.1139
 7405W        W23214   1.317  12.166  13.742  0.1301  0.0377  0.0494
 7406W        W23215   1.548  17.805   3.349 -0.1932 -0.1206  0.1575
 7407W        W23216  16.060   6.524  11.768 -0.0461 -0.1867  0.0769
 7408W        W23217  13.772  14.264   3.401 -0.0477 -0.0761  0.2280
 7409W        W23218   9.649  15.767  14.848  0.1673 -0.2677 -0.0798
 7410W        W23219  14.631  14.583  13.346 -0.0037 -0.1946  0.1180
 7411W        W23220   2.877  17.489   4.286  0.3519 -0.1521 -0.0323
 7412W        W23221  13.192   7.311   3.945 -0.0066 -0.0252 -0.2055
 7413W        W23222   5.498   6.048   1.693 -0.1453  0.0281 -0.0316
 7414W        W23223  17.193   3.216   0.900  0.0220  0.0398  0.0199
 7415W        W23224   1.875   4.195  11.828 -0.0309 -0.0790 -0.0688
 7416W        W23225  12.360  12.443  15.159 -0.4867 -0.1194  0.2725
 7417W        W23226  16.128  12.947  14.321  0.0668  0.4936  0.0468
 7418W        W23227  16.741  12.510   2.562 -0.0315 -0.1388 -0.1147
 7419W        W23228   6.417   2.630   1.259  0.0048 -0.0410 -0.2763
 7420W        W23229   1.221   3.646   1.362 -0.2943  0.0672  0.3853
 7421W        W23230   8.231   7.870  11.368  0.1617  0.0446  0.1810
 7422W        W23231   3.114  14.473  12.286  0.3593 -0.1871 -0.2650
 7423W        W23232   1.979   9.300   3.686 -0.0326  0.0273  0.1733
 7424W        W23233   2.040   4.216   1.130 -0.0229  0.0115  0.1956
 7425W        W23234   1.889   4.861  13.019  0.0393 -0.1595 -0.1182
 7426W        W23235   8.759  12.640   3.816 -0.0665  0.1096  0.2831
 7427W        W23236  10.867   0.290  10.803  0.2263 -0.1592  0.1768
 7428W        W23237  11.001  13.779   1.308  0.0387  0.1228  0.1052
 7429W        W23238   1.580   8.042   5.013 -0.0141 -0.1019  0.0505
 7430W        W23239   9.746  15.459  13.180  0.1091  0.0960  0.1686
 7431W        W23240   4.062   0.232  12.105 -0.0652 -0.2891  0.0730
 7432W        W23241   8.234  11.477  12.031  0.1655  0.0173  0.2981
 7433W        W23242   7.354   0.935  12.385  0.3268 -0.2807  0.1407
 7434W        W23243   9.094   7.118   4.147 -0.2510 -0.0874  0.0617
 7435W        W23244   7.182   8.716   3.625 -0.2955  0.1177  0.1368
 7436W        W23245  11.291  13.571  13.892 -0.2068  0.1092  0.1554
 7437W        W23246   7.783   0.985   1.213  0.1165  0.3069  0.0772
 7438W        W23247   3.866   8.979   0.307  0.0172 -0.0496 -0.0123
 7439W        W23248   8.632   3.878  13.540 -0.1526 -0.1685 -0.1677
 7440W        W23249  14.117  13.230  16.064  0.1359  0.0414 -0.0446
 7441W        W23250  14.885   1.484   5.070  0.0195  0.1246 -0.2817
 7442W        W23251   2.045   2.053   2.047 -0.1225  0.0929 -0.1059
 7443W        W23252   6.056  17.376  14.912  0.2481  0.2030  0.0805
 7444W        W23253   0.788  14.051   2.913  0.0400 -0.3186 -0.1188
 7445W        W23254   4.040   1.716   1.264  0.1464  0.5041 -0.1730
 7446W        W23255  16.137  12.753  12.016  0.0084 -0.2835 -0.0127
 7447W        W23256   8.161   0.232  12.997 -0.1808 -0.3320 -0.0327
 7448W        W23257   5.360   4.223   4.344  0.1304 -0.0513 -0.2937
 7449W        W23258   5.871  14.807   4.141  0.0190  0.1863 -0.1479
 7450W        W23259   4.819   9.782  15.004 -0.2071 -0.0441  0.2854
 7451W        W23260  13.181   5.829  12.149 -0.2290  0.2623  0.1102
 7452W        W23261  11.707   0.394   2.780  0.1221 -0.1072 -0.1284
 7453W        W23262  11.163  10.622   1.703  0.3466  0.0042 -0.0178
 7454W        W23263   0.838   5.035  15.555  0.0173 -0.2258 -0.1210
 7455W        W23264  15.716  13.027   5.674 -0.0398 -0.1982 -0.0203
 7456W        W23265  17.534  16.455   2.285 -0.1990  0.2942  0.3003
 7457W        W23266   1.311  14.261   3.932  0.1096  0.0718  0.0101
 7458W        W23267  15.625  16.088  13.080  0.2704 -0.0890  0.3587
 7459W        W23268  15.541   5.999   2.383 -0.5291 -0.1885 -0.0108
 7460W        W23269  10.747   8.427   2.760 -0.1464  0.1808  0.0141
 7461W        W23270   7.209  11.638   4.488 -0.0193  0.1607  0.1724
 7462W        W23271  12.173   1.047   2.570 -0.2668 -0.1375  0.2871
 7463W        W23272   3.876  15.301  11.436 -0.1326 -0.0172 -0.0676
 7464W        W23273  10.268   9.168   4.575  0.2722 -0.0464  0.0695
 7465W        W23274   3.842  17.178  14.291 -0.1997 -0.0733  0.0995
 7466W        W23275   7.460   9.866   1.376  0.0161 -0.2557 -0.1324
 7467W        W23276  14.187   1.256   3.497  0.1590 -0.1732  0.1081
 7468W        W23277   5.306  10.627  12.602 -0.2653  0.3415 -0.2150
 7469W        W23278   8.062  16.750  10.434 -0.1329  0.1827 -0.1592
 7470W        W23279   0.091  10.869   6.020  0.1160 -0.2483  0.3105
 7471W        W23280  16.251   7.524   5.462 -0.1025  0.3798  0.1994
 7472W        W23281   3.046   9.738   2.431 -0.2015  0.1251  0.0834
 7473W        W23282   2.884   8.734  15.319  0.0167  0.1730 -0.1077
 7474W        W23283   4.696   0.637  16.049 -0.0629 -0.0903 -0.2341
 7475W        W23284   0.812   0.481  13.645 -0.2619  0.1731  0.2699
 7476W        W23285  13.252   5.980  13.201  0.0075 -0.0832  0.1679
 7477W        W23286   2.733   6.045   4.543 -0.2000 -0.1591  0.1729
 7478W        W23287   9.896   0.635  14.385 -0.3684  0.0530  0.1169
 7479W        W23288  11.126  15.871  12.041 -0.0468  0.0790 -0.1727
 7480W        W23289  10.076   4.183   0.447 -0.3307 -0.2193  0.0688
 7481W        W23290  12.536   8.952  12.223  0.1697 -0.3840  0.0557
 7482W        W23291   4.856   9.529   1.366  0.2422  0.2004 -0.0684
 7483W        W23292   9.617  11.959   0.561  0.0874  0.2557 -0.1088
 7484W        W23293   7.224   4.430  12.766 -0.2501 -0.0715  0.1302
 7485W        W23294   7.466   2.696  10.855  0.1286  0.0035  0.2256
 7486W        W23295   6.745   8.891   4.534 -0.3570  0.1472  0.0208
 7487W        W23296   1.787   9.079   0.815 -0.2401  0.0760 -0.2211
 7488W        W23297   3.963  14.202   4.273  0.1535  0.0432  0.0404
 7489W        W23298   8.137   2.104   1.133  0.0474 -0.0711 -0.0338
 7490W        W23299  10.207  13.493   5.024 -0.2442 -0.0483 -0.1481
 7491W        W23300   1.187  14.523   3.467  0.1488 -0.2791  0.1107
 7492W        W23301   4.400   6.759  12.372 -0.1164 -0.1250 -0.0896
 7493W        W23302  12.854  17.971   4.178  0.0446  0.0031  0.0768
 7494W        W23303   3.018  12.232  12.729 -0.0517 -0.1857 -0.3489
 7495W        W23304  12.501   7.331   0.926  0.0839  0.0719  0.0360
 7496W        W23305  17.837  14.388  13.058  0.1820  0.1039 -0.0819
 7497W        W23306  17.146  14.147   3.083 -0.0926  0.1479  0.3468
 7498W        W23307   6.311  18.096   5.761 -0.2547  0.0651 -0.0794
 7499W        W23308  12.720   9.873   3.507 -0.0929 -0.0973  0.0789
 7500W        W23309   7.585   7.676   4.561 -0.1299  0.0165  0.2200
 7501W        W23310  10.817  16.963  11.041  0.1014 -0.0461 -0.1913
 7502W        W23311  14.007  10.841   4.508 -0.1022 -0.0975 -0.1493
 7503W        W23312  17.259   4.993   6.383  0.2483 -0.0093  0.0159
 7504W        W23313   0.867   2.565  15.325 -0.4012  0.5453  0.3837
 7505W        W23314   9.182  11.404  10.911  0.2781  0.2424  0.3557
 7506W        W23315   9.242  14.437   4.069 -0.2945  0.0346  0.2937
 7507W        W23316   6.402   1.400  16.259 -0.1497 -0.2616 -0.0520
 7508W        W23317  17.904  13.150   1.928  0.0479  0.2526 -0.0853
 7509W        W23318   5.239   7.323   3.394 -0.0542 -0.1873 -0.0973
 7510W        W23319  12.941  10.197  13.922 -0.1683  0.1039 -0.0420
 7511W        W23320  14.345   9.843   3.245 -0.3224 -0.0244 -0.0937
 7512W        W23321   8.225   7.804   0.309 -0.1034 -0.0373 -0.0035
 7513W        W23322  11.542  13.320  13.503  0.0564 -0.1283  0.1983
 7514W        W23323  16.909   5.246  13.336 -0.3186 -0.2403 -0.0222
 7515W        W23324   9.956   8.761   0.494  0.0407  0.1221  0.1497
 7516W        W23325   5.474  12.376   1.440 -0.0207  0.0861  0.1588
 7517W        W23326   1.605   5.228  12.706  0.4508  0.0863 -0.2834
 7518W        W23327  16.636  12.152   4.188  0.0672  0.2817 -0.0849
 7519W        W23328   0.110  17.840   3.659  0.2156  0.0592 -0.1323
 7520W        W23329   2.456   5.108  11.283 -0.2008 -0.1942  0.0052
 7521W        W23330   2.688  11.133  15.394  0.1020 -0.1264  0.2300
 7522W        W23331  12.633  10.140  10.257 -0.0188  0.0308 -0.2149
 7523W        W23332  16.026   6.687   0.346 -0.0511  0.2941 -0.1964
 7524W        W23333   4.019   3.893  16.287 -0.0896  0.0432 -0.1384
 7525W        W23334   2.791  10.313   6.396  0.0164 -0.2950 -0.1856
 7526W        W23335   5.446  17.441  16.316  0.1486  0.0553 -0.0766
 7527W        W23336  16.575   2.693  12.220  0.0299 -0.3744 -0.2998
 7528W        W23337   2.795   2.180   4.793 -0.0274 -0.1596  0.1331
 7529W        W23338   9.142  17.446  12.943 -0.0090  0.0271  0.1644
 7530W        W23339  13.618   1.539   0.742 -0.0699  0.0995  0.0484
 7531W        W23340   6.040  15.157   1.709  0.1027  0.1927 -0.1199
 7532W        W23341   8.107  15.849   5.307 -0.3586  0.0852  0.0249
 7533W        W23342   1.933  10.972   3.981  0.0836  0.0341  0.1640
 7534W        W23343   4.989   4.517   3.207  0.1572 -0.0053  0.1521
 7535W        W23344  15.769   0.966  14.993 -0.2793  0.1334  0.0230
 7536W        W23345  11.401  16.615   3.207 -0.0104 -0.1587  0.1163
 7537W        W23346   8.494   7.063  11.588  0.0054 -0.0492  0.2768
 7538W        W23347   0.673  17.665   3.890 -0.1629 -0.3562 -0.3005
 7539W        W23348  10.604  12.088  15.190  0.0276  0.0508 -0.4368
 7540W        W23349  12.526   4.488   2.199  0.0591 -0.3192 -0.4237
 7541W        W23350  15.952   3.666  12.589 -0.2440  0.0982  0.4899
 7542W        W23351   7.020   8.130   0.723  0.4938  0.1586 -0.3798
 7543W        W23352   3.379   1.946  13.177  0.2024 -0.1003  0.3688
 7544W        W23353  13.236  16.988  10.761 -0.0442 -0.0311  0.0943
 7545W        W23354  16.906   0.929   4.561 -0.2763  0.1855 -0.1421
 7546W        W23355   9.360  15.234  12.978 -0.2739  0.2630 -0.0219
 7547W        W23356   6.776  13.991  13.475  0.2022 -0.1642 -0.0969
 7548W        W23357   7.765   7.539   2.488  0.0706 -0.2020 -0.0198
 7549W        W23358   9.504  13.556  13.881  0.0008  0.1401 -0.1296
 7550W        W23359   1.077   8.232  15.608  0.0495 -0.1005 -0.0129
 7551W        W23360   8.049  17.413   1.189 -0.1143  0.1471 -0.0762
 7552W        W23361   6.559  10.552   3.838 -0.1226  0.3132 -0.0428
 7553W        W23362   0.119   4.909   2.116 -0.0279 -0.3022  0.2016
 7554W        W23363   6.363   2.069   1.853 -0.0612 -0.1634 -0.2815
 7555W        W23364  15.837   1.444  12.801 -0.0498  0.4081  0.0248
 7556W        W23365   3.965   4.430   0.198  0.1119  0.1351 -0.2130
 7557W        W23366  11.211   6.567   4.721  0.2266 -0.2123 -0.0674
 7558W        W23367   2.943  13.805  11.332  0.0412  0.0565  0.0216
 7559W        W23368  18.056  10.016   5.607 -0.0231 -0.1234 -0.0926
 7560W        W23369  11.783   3.087  12.401  0.1667  0.1583 -0.3075
 7561W        W23370   6.955  14.984   3.573  0.1780  0.0079 -0.0197
 7562W        W23371   6.881  13.089  14.589 -0.2017  0.0367  0.1403
 7563W        W23372   1.363   8.647  13.575 -0.1835  0.0067 -0.1691
 7564W        W23373  15.057   8.984  13.395 -0.0994  0.0099 -0.0698
 7565W        W23374  16.182  18.021   4.874  0.0312  0.0588  0.0767
 7566W        W23375  12.115  10.026  14.158 -0.0027 -0.0661  0.3170
 7567W        W23376   0.920   9.961   1.232  0.1921 -0.0345 -0.0388
 7568W        W23377  11.034  15.451  11.119  0.1293 -0.1117 -0.1651
 7569W        W23378  12.563   8.562   2.845  0.1256  0.0996  0.2266
 7570W        W23379   9.462   9.871  12.635 -0.2882 -0.0463  0.2965
 7571W        W23380   2.888   0.701   2.471 -0.3741 -0.3455  0.0794
 7572W        W23381   4.241  15.718  10.622  0.0690 -0.3018  0.0794
 7573W        W23382   2.467  15.629  11.105  0.2303  0.2778 -0.1070
 7574W        W23383   5.232  18.191   3.583 -0.1767 -0.2640  0.1293
 7575W        W23384   0.254   8.780   5.325  0.0783  0.2263  0.0471
 7576W        W23385  11.586   4.166   9.725 -0.0738  0.0625  0.3794
 7577W        W23386  16.396   0.612  15.552 -0.3095 -0.2187 -0.1260
 7578W        W23387   9.171   3.693  14.651  0.0538 -0.1303  0.2159
 7579W        W23388   7.576   3.037   3.398 -0.1185  0.2165 -0.0629
 7580W        W23389   9.771   0.988  14.756 -0.1076  0.0986 -0.0808
 7581W        W23390   0.555  16.531  11.040  0.1402  0.1035 -0.0565
 7582W        W23391  10.037   3.937   1.016 -0.1175 -0.0685  0.3257
 7583W        W23392   1.594  12.346  16.309  0.0056  0.4622  0.3329
 7584W        W23393  10.155  16.964  16.168  0.0486 -0.2634  0.3906
 7585W        W23394  13.204   7.497  16.009  0.0422  0.0868 -0.0710
 7586W        W23395   9.551   4.888   4.567  0.1216 -0.0146 -0.0031
 7587W        W23396  14.642   3.088   5.394  0.0964  0.2598  0.0471
 7588W        W23397  10.295   6.635   2.986 -0.3628  0.1608 -0.0760
 7589W        W23398  11.666  10.194   4.631 -0.1448 -0.1920  0.0283
 7590W        W23399  16.740  17.860   4.834  0.1236  0.1452 -0.1628
 7591W        W23400  13.679  16.201  13.015 -0.2477  0.0891  0.0343
 7592W        W23401  15.445   6.536   5.016  0.0394  0.1464 -0.1507
 7593W        W23402   5.740   8.384  14.518  0.1578 -0.1724 -0.2920
 7594W        W23403  15.519   6.514  11.535  0.1417  0.1955  0.2084
 7595W        W23404  10.177  16.485  16.032  0.0951  0.1363  0.1443
 7596W        W23405   5.926   7.243   2.141  0.1155  0.0786  0.3148
 7597W        W23406   3.716  15.696  11.976 -0.2093 -0.2259 -0.3182
 7598W        W23407  16.493  13.810   4.835  0.1066  0.0832 -0.1340
 7599W        W23408   8.193  16.921  16.211  0.4711  0.1460  0.0163
 7600W        W23409   3.096  17.077  11.481  0.2505 -0.1008 -0.0859
 7601W        W23410  13.988   0.725   2.210 -0.0817  0.0524  0.1083
 7602W        W23411  14.206   7.841  15.317 -0.0584 -0.2057  0.0756
 7603W        W23412  17.666   8.502   2.353  0.1443  0.1183 -0.1804
 7604W        W23413  11.018   1.494  15.210  0.0136  0.0244  0.0530
 7605W        W23414  14.211   9.439  11.919  0.0350 -0.0536  0.2618
 7606W        W23415  12.369   8.959   2.223 -0.0695 -0.3717  0.0576
 7607W        W23416  13.527   0.579   2.321 -0.1039 -0.2224  0.1606
 7608W        W23417  10.194   1.233  16.295 -0.2638 -0.0440  0.0026
 7609W        W23418  16.684   2.007  15.397  0.0751 -0.0026 -0.2937
 7610W        W23419   5.441  18.060  14.912 -0.0184  0.2113  0.1490
 7611W        W23420   3.394   7.550  14.080  0.3172 -0.0241 -0.3584
 7612W        W23421   5.593  15.090   0.071 -0.2642  0.0048  0.1704
 7613W        W23422   7.939  16.908  11.490  0.0161  0.4852  0.0037
 7614W        W23423  12.446   9.788  11.200  0.0530  0.0238 -0.1987
 7615W        W23424   8.718   9.007   3.728  0.0664 -0.1619 -0.1859
 7616W        W23425  17.416   1.840   0.874  0.0349 -0.3346  0.3141
 7617W        W23426  16.848   2.759  15.641  0.0721  0.0170 -0.0082
 7618W        W23427  17.674  16.479   5.903 -0.0663  0.0996  0.0787
 7619W        W23428  16.015  14.782   0.556  0.4172 -0.0420  0.1828
 7620W        W23429  13.499   8.536   2.518 -0.3687  0.0211 -0.1695
 7621W        W23430   3.956   3.507   5.685  0.2660  0.2378 -0.3262
 7622W        W23431   9.833  10.174  15.558  0.0472 -0.1919 -0.1529
 7623W        W23432  12.358   8.194   0.802  0.3059 -0.0499 -0.1842
 7624W        W23433   7.745  12.930   3.002 -0.0052  0.1212  0.1474
 7625W        W23434  17.308   9.799   5.866  0.2396 -0.0442  0.1128
 7626W        W23435   8.618   0.804  11.261 -0.3073  0.0318  0.1141
 7627W        W23436   8.425  15.455  14.186 -0.0140  0.1366  0.0568
 7628W        W23437  11.545  17.398   0.480 -0.1350 -0.1007  0.1389
 7629W        W23438  11.180   2.643  15.856 -0.0271  0.1201 -0.1191
 7630W        W23439  15.332   3.544   3.924 -0.1590  0.2504  0.0607
 7631W        W23440  15.550  14.583  15.112 -0.1151 -0.1159  0.2306
 7632W        W23441  13.781  12.915   1.308  0.0583  0.1598  0.0541
 7633W        W23442   9.758  18.064   2.070  0.0375 -0.1731  0.1174
 7634W        W23443  11.853  14.556   4.985 -0.3130 -0.1609  0.1526
 7635W        W23444  11.780  10.154   2.402  0.0986 -0.2610  0.3477
 7636W        W23445  14.676   1.342  14.594  0.0454  0.2996 -0.0299
 7637W        W23446   7.277   2.984  12.855 -0.0382  0.1632 -0.1501
 7638W        W23447   9.226   0.475  13.755  0.1112 -0.0934 -0.1196
 7639W        W23448  13.859   6.093   6.024  0.2740 -0.1563  0.1878
 7640W        W23449   2.460   5.072   2.350 -0.2675  0.3808 -0.3243
 7641W        W23450   0.641   3.747   5.119 -0.0559  0.3479 -0.0713
 7642W        W23451  16.211   7.795   2.306  0.0471 -0.3502 -0.1446
 7643W        W23452   8.169   4.132  11.692  0.0322 -0.0824  0.2422
 7644W        W23453   1.250   6.966  11.312  0.3533  0.0897  0.0895
 7645W        W23454  13.715   6.490   0.183  0.2223  0.1756 -0.0929
 7646W        W23455  16.654  12.095   0.045  0.1558 -0.1362  0.0225
 7647W        W23456   0.248   7.933   3.784  0.0973 -0.0375  0.0262
 7648W        W23457   9.284   7.147   2.245 -0.2259  0.2314 -0.2472
 7649W        W23458   3.367   7.837  13.186 -0.1915 -0.0149 -0.0850
 7650W        W23459   5.064  16.212  11.966 -0.1817 -0.2236  0.0591
 7651W        W23460   2.558   6.724  11.440  0.3830  0.1030 -0.0457
 7652W        W23461  17.010   2.294   3.374 -0.0287 -0.1451 -0.0208
 7653W        W23462   9.156   9.142  15.839 -0.3497 -0.0504 -0.2039
 7654W        W23463   8.049   2.991  12.428  0.1969 -0.1680 -0.2358
 7655W        W23464   2.063   0.752  13.626  0.1718  0.0520 -0.1069
 7656W        W23465   9.639   5.895  13.288  0.2004  0.0999 -0.0044
 7657W        W23466  11.571  17.351   5.550 -0.2934  0.2336 -0.1322
 7658W        W23467   2.587  14.011   1.213  0.0609  0.1840 -0.2696
 7659W        W23468  12.523   2.681  14.639  0.4881 -0.2062 -0.1671
 7660W        W23469  10.952  11.989   3.112  0.1439  0.1072  0.0390
 7661W        W23470   4.535   0.101   6.138 -0.1341 -0.0634  0.2670
 7662W        W23471  14.913   9.223   9.712  0.1733  0.1191 -0.1003
 7663W        W23472   3.397  12.506  14.378 -0.0207  0.1035 -0.1032
 7664W        W23473   0.857   6.322  13.022 -0.1051 -0.1335 -0.0875
 7665W        W23474   8.279   0.991  10.554  0.4125 -0.3117 -0.4710
 7666W        W23475   5.647   0.751   3.961  0.0232  0.1405 -0.0439
 7667W        W23476   7.716   4.486  13.095  0.2595 -0.1269 -0.0711
 7668W        W23477   2.714  17.940  14.326 -0.1425  0.0797  0.1308
 7669W        W23478   9.755   0.850   0.999  0.0624 -0.2216 -0.2098
 7670W        W23479  11.007   5.129  15.495 -0.2347  0.2376  0.1106
 7671W        W23480   3.435   1.704   1.956  0.4752 -0.0769  0.1311
 7672W        W23481  13.451  15.554   4.859  0.0783 -0.0183  0.1789
 7673W        W23482  13.030  13.890   3.985 -0.0476 -0.2382 -0.1899
 7674W        W23483  16.534  15.392   3.299  0.3432  0.0207  0.1047
 7675W        W23484   6.322  10.271   2.287  0.0983  0.2226  0.2905
 7676W        W23485  13.520  12.444   4.492 -0.1124  0.0598 -0.0679
 7677W        W23486  12.340   3.829  12.134  0.1289 -0.1819 -0.1771
 7678W        W23487   8.216   6.091   0.623 -0.0263  0.1721  0.2582
 7679W        W23488  17.895   5.384  12.230  0.2777  0.1163  0.0519
 7680W        W23489  10.471   4.920   0.195  0.1348 -0.1698 -0.0650
 7681W        W23490   2.624   7.883  11.921  0.2995  0.1101 -0.1354
 7682W        W23491   4.662   8.127   2.870  0.1228  0.0747 -0.2808
 7683W        W23492  10.062   3.982  14.446 -0.4651 -0.0948 -0.1111
 7684W        W23493   2.455   3.512  15.331  0.0133 -0.0355 -0.0965
 7685W        W23494  18.038   0.655   5.539  0.0128  0.0797 -0.1617
 7686W        W23495   7.184   7.367  11.387 -0.3517 -0.1187 -0.0835
 7687W        W23496   7.610   7.530  15.916 -0.0424 -0.3270 -0.2485
 7688W        W23497  17.524  11.496   2.579  0.0971  0.2135  0.0862
 7689W        W23498   9.927   2.985   2.761  0.0602  0.1187  0.0822
 7690W        W23499   0.641  10.189   2.114  0.2079  0.0107 -0.1497
 7691W        W23500   0.274  12.832  14.881  0.1701  0.0840  0.1929
 7692W        W23501   1.446  13.865  14.590 -0.2930  0.2486 -0.0077
 7693W        W23502   3.809  17.425   2.863  0.0116  0.1591  0.1060
 7694W        W23503   4.578   4.695   4.114 -0.1882  0.2646 -0.1377
 7695W        W23504   0.196  13.039   5.341 -0.0672 -0.0630 -0.5179
 7696W        W23505   7.645   3.290   0.098  0.0559  0.2477  0.0584
 7697W        W23506  17.501   8.690  14.994 -0.0065 -0.0532  0.1629
 7698W        W23507  12.758   8.012   0.030  0.0948 -0.0418  0.1317
 7699W        W23508  11.545   9.175  12.221 -0.0971 -0.0535 -0.2287
 7700W        W23509  12.301  12.662  14.360 -0.1074  0.1632 -0.0179
 7701W        W23510  18.034   1.958   3.714  0.1324  0.2954 -0.0369
 7702W        W23511   3.756   7.035   1.334 -0.2175  0.0487 -0.0691
 7703W        W23512   6.782   1.365   3.115 -0.5304 -0.3089  0.0113
 7704W        W23513   1.735   4.626   0.418 -0.3007 -0.0517  0.2342
 7705W        W23514   9.965   7.241   2.189  0.1540 -0.0556 -0.2903
 7706W        W23515   2.032  16.571  12.695 -0.0396  0.0569  0.1384
 7707W        W23516   3.991   6.550   6.183 -0.0409  0.0475  0.2339
 7708W        W23517  13.715   9.106   2.841  0.0865 -0.2881  0.1933
 7709W        W23518   2.622  15.505  16.212  0.0304  0.0856 -0.0478
 7710W        W23519  13.885   7.837  14.042 -0.0400  0.0252 -0.0595
 7711W        W23520  11.763  17.352   2.538  0.1203 -0.1680  0.2385
 7712W        W23521  17.267  16.013   2.408  0.0512 -0.1695  0.0308
 7713W        W23522  14.142  17.185  11.796  0.1980 -0.1828 -0.1469
 7714W        W23523  11.062  11.254   4.134 -0.0856  0.1611  0.2324
 7715W        W23524  14.969  12.971  14.185 -0.3164 -0.0828  0.0333
 7716W        W23525   0.490  16.450  10.509 -0.1156  0.1062  0.0118
 7717W        W23526   3.528   2.114  14.457  0.2493 -0.4667  0.0697
 7718W        W23527   5.779   3.564   5.711  0.3068 -0.0745 -0.2465
 7719W        W23528   0.324   5.427  13.992 -0.0261 -0.1721 -0.2135
 7720W        W23529  17.026  15.965   4.030  0.0703  0.1100 -0.1201
 7721W        W23530  11.567  12.802  13.486 -0.1632  0.3651  0.1665
 7722W        W23531  10.757   0.711  12.074 -0.1229 -0.1415  0.0520
 7723W        W23532   5.843   8.595   2.476  0.3688 -0.0954 -0.0038
 7724W        W23533   4.153  14.652   5.493 -0.0164 -0.0321  0.3676
 7725W        W23534   5.033   7.012   4.878  0.2623  0.0579 -0.0645
 7726W        W23535   2.341   0.950  15.914 -0.1231  0.0716  0.0607
 7727W        W23536  17.875  14.342   5.130 -0.0441 -0.1132  0.2609
 7728W        W23537   2.276   4.387  13.758  0.2613 -0.1824 -0.1773
 7729W        W23538   9.072   7.468  14.939  0.1197 -0.0684 -0.2038
 7730W        W23539   1.789  14.821   1.774  0.2901 -0.2239 -0.0787
 7731W        W23540   0.760   3.255   5.950 -0.5676  0.0349 -0.3250
 7732W        W23541  10.543   2.018  15.646 -0.1273 -0.0205 -0.2033
 7733W        W23542  16.572  10.483   1.363 -0.2084  0.2067 -0.2669
 7734W        W23543   9.412  15.868  11.260  0.1337  0.1557 -0.2655
 7735W        W23544   8.491   5.629   0.391 -0.0597  0.0309 -0.0583
 7736W        W23545   9.137  15.873   5.513 -0.1325  0.1392  0.2625
 7737W        W23546  11.413   0.402   5.600  0.0206  0.0275  0.0691
 7738W        W23547   0.992   6.927  15.149  0.1607  0.1262  0.1218
 7739W        W23548  17.767   4.046  15.466 -0.1205  0.2313 -0.2888
 7740W        W23549   1.410   3.981   5.572 -0.0443  0.0901  0.2619
 7741W        W23550  10.193   5.836  13.066  0.0962  0.0018  0.1955
 7742W        W23551   3.918   4.418  14.564 -0.0988 -0.0314  0.0356
 7743W        W23552   0.486   1.711  12.454 -0.1763  0.3893 -0.4307
 7744W        W23553  17.155   2.376  13.847  0.0097  0.1441  0.0882
 7745W        W23554   6.571   1.234  11.121 -0.0551  0.2275 -0.1471
 7746W        W23555  10.872   7.763   2.143 -0.1120 -0.3622  0.0209
 7747W        W23556   9.586   6.329  12.183 -0.1063 -0.0403 -0.3500
 7748W        W23557   7.696   9.637  11.819  0.3141 -0.1001  0.2738
 7749W        W23558   4.855   9.160   4.976  0.1869 -0.1808 -0.0725
 7750W        W23559  17.846  14.489   0.384  0.0794 -0.0182  0.1768
 7751W        W23560  14.004  13.125   4.440 -0.0244 -0.0234 -0.0554
 7752W        W23561  17.437  15.942   0.935  0.1204 -0.0492 -0.0111
 7753W        W23562   3.447  13.901  11.094  0.2577  0.1931 -0.1547
 7754W        W23563  16.718  17.673   0.046 -0.3025 -0.1648 -0.2154
 7755W        W23564   6.544  14.208   3.414 -0.2001 -0.1966 -0.0620
 7756W        W23565   5.535   9.056  13.778  0.1983 -0.2182  0.1813
 7757W        W23566   6.004   7.424  14.362  0.1131 -0.1819  0.0345
 7758W        W23567   7.465   1.322  11.531 -0.2338 -0.1499  0.2779
 7759W        W23568   7.375   4.983   0.779 -0.2474  0.1650  0.1125
 7760W        W23569  14.035   8.719   3.731  0.0805  0.1186  0.0302
 7761W        W23570   3.647   4.144   4.276  0.0554  0.3024 -0.0190
 7762W        W23571   8.420  12.478   4.518  0.0863 -0.0018 -0.0382
 7763W        W23572   5.348   9.405  15.652  0.3398 -0.2583 -0.1334
 7764W        W23573  13.050   4.928  11.514  0.0645 -0.1674 -0.0633
 7765W        W23574  11.330   7.318  16.291 -0.1802 -0.1594 -0.2530
 7766W        W23575   8.119   9.318   0.273 -0.0072 -0.1599 -0.0375
 7767W        W23576   4.447   5.119   4.512 -0.1047  0.1043  0.0591
 7768W        W23577   2.663   3.685  11.862 -0.1249 -0.0565  0.2819
 7769W        W23578  13.003  15.560   3.318  0.1357  0.0049  0.0573
 7770W        W23579  11.503  12.030   3.189  0.0096  0.1408 -0.1869
 7771W        W23580   7.342  14.551   1.767  0.4338 -0.0038  0.2492
 7772W        W23581   4.570   6.424   3.236  0.0552 -0.0267  0.0925
 7773W        W23582   7.419   6.089  10.328 -0.0825 -0.0187  0.1394
 7774W        W23583   4.111  10.659  15.901  0.0522 -0.1697 -0.0688
 7775W        W23584   5.916   5.024   4.692  0.1160 -0.1414 -0.1755
 7776W        W23585   8.049   4.045  15.388  0.2043  0.1289  0.3815
 7777W        W23586  14.135   9.300   2.623 -0.3730 -0.2954 -0.1868
 7778W        W23587  13.440   7.524   0.558  0.1534 -0.1869  0.0469
 7779W        W23588   7.354   5.028   6.022  0.0694  0.3545 -0.2924
 7780W        W23589  12.873   9.959  11.270 -0.3120  0.0387 -0.2562
 7781W        W23590   9.303   1.536  14.659 -0.1855  0.0378  0.1201
 7782W        W23591   3.842  12.143  15.795 -0.1157  0.1615  0.1411
 7783W        W23592   6.504   8.394  12.954  0.0482  0.0253  0.0300
 7784W        W23593   1.415  10.258   4.940 -0.2511  0.2385 -0.0270
 7785W        W23594  17.777  16.224  13.886  0.3238 -0.0770 -0.0544
 7786W        W23595   1.622  17.080   2.090  0.4641  0.0424 -0.2008
 7787W        W23596   5.647  10.812  13.293 -0.3616 -0.2083 -0.0894
 7788W        W23597   3.600  13.930  14.671 -0.0056 -0.0218 -0.3619
 7789W        W23598  11.491  18.106   3.150 -0.0358 -0.0971 -0.1407
 7790W        W23599  12.983   4.146   1.088  0.3115  0.0761 -0.0101
 7791W        W23600  16.913   0.751  15.706  0.1082  0.3249  0.0603
 7792W        W23601  17.262   7.861  13.494 -0.1198 -0.2063  0.0977
 7793W        W23602   3.737   5.182   3.065  0.0970 -0.0325  0.1813
 7794W        W23603   4.992  15.563  13.023  0.0930  0.3539 -0.0047
 7795W        W23604   7.425   2.963  14.137 -0.3397 -0.2936  0.0074
 7796W        W23605   2.485   3.103  13.409  0.4274 -0.0709 -0.1540
 7797W        W23606  11.968  12.284  15.491  0.1001 -0.0980  0.0225
 7798W        W23607   0.962   5.100   4.108 -0.3742 -0.4218  0.2175
 7799W        W23608  15.982   0.438  14.770  0.2996 -0.0908  0.2887
 7800W        W23609  15.372   8.063  11.386  0.3138 -0.1216  0.3352
 7801W        W23610  14.204  15.854   2.332 -0.1140 -0.0241 -0.1785
 7802W        W23611  17.291   7.587   2.429  0.0567  0.2871  0.1660
 7803W        W23612   0.111  15.927  16.095 -0.0584  0.2579 -0.2724
 7804W        W23613   1.592  17.735   0.698 -0.0410  0.0373  0.0751
 7805W        W23614  16.306  16.159   2.264 -0.0976 -0.0533 -0.1642
 7806W        W23615   9.254   8.547  11.605  0.1561  0.1174  0.3145
 7807W        W23616   5.303   6.472  13.537 -0.1312 -0.2864  0.0821
 7808W        W23617  15.241   9.109  12.953 -0.0058  0.0456  0.3240
 7809W        W23618  16.381   3.274   0.629 -0.0557  0.1724  0.0893
 7810W        W23619   6.898   0.089  13.832  0.1725  0.0951  0.0259
 7811W        W23620   3.750   0.108   3.875  0.0580 -0.1237  0.0845
 7812W        W23621   5.930   1.228   1.110 -0.3970  0.2567 -0.1434
 7813W        W23622   3.497   2.052   2.492  0.2412 -0.1996  0.0559
 7814W        W23623   7.244   6.176   0.521  0.0108  0.0822 -0.1007
 7815W        W23624   0.259   3.671  14.213 -0.0721 -0.1706  0.0935
 7816W        W23625   3.405   7.520  12.825 -0.3680 -0.2381  0.1731
 7817W        W23626   4.878   8.623   4.825 -0.3326 -0.1156  0.2305
 7818W        W23627   1.111   6.222   1.900  0.3770  0.0738 -0.1636
 7819W        W23628   0.346   5.541   6.058  0.2989  0.1537 -0.2232
 7820W        W23629   2.934  15.982   6.066  0.0366 -0.0586  0.2172
 7821W        W23630   6.385   5.568   0.396  0.0430 -0.0439  0.7826
 7822W        W23631   2.455   1.239  13.971 -0.0747  0.1843 -0.0179
 7823W        W23632  12.046  16.099  15.257 -0.0284 -0.1183  0.0574
 7824W        W23633   4.916   4.855  12.206 -0.2807  0.0847 -0.0076
 7825W        W23634   8.134  10.492   5.330  0.3340 -0.0019  0.1044
 7826W        W23635  17.326  15.081  13.708  0.1247 -0.2635  0.0021
 7827W        W23636  11.087  15.714   2.801  0.2229  0.0294 -0.0943
 7828W        W23637  17.085   6.658   6.275 -0.1333  0.0043 -0.0684
 7829W        W23638   1.528   8.149  15.965  0.3023  0.1692 -0.3108
 7830W        W23639   9.709   2.692   3.576  0.1582 -0.1653  0.0059
 7831W        W23640   8.847   9.319  14.535  0.1771 -0.0396 -0.0035
 7832W        W23641  15.983   4.465  12.557 -0.1757 -0.0935  0.2067
 7833W        W23642  17.451   7.706  12.842 -0.0775  0.3272  0.2869
 7834W        W23643   8.077  10.923   3.696 -0.1207 -0.0733  0.0642
 7835W        W23644  10.289   5.179   3.345  0.0762 -0.3237 -0.0516
 7836W        W23645  12.847   6.386   0.265  0.3478  0.2047 -0.2842
 7837W        W23646  16.905   3.983   5.080 -0.2122 -0.0548  0.0133
 7838W        W23647  16.426  13.368  14.123 -0.0732  0.0172  0.3050
 7839W        W23648   1.994   5.965   5.587 -0.3224  0.3475  0.0414
 7840W        W23649  15.240   9.189  14.865  0.2403  0.0057 -0.0316
 7841W        W23650  17.852  11.576  14.027  0.0782  0.4484  0.0482
 7842W        W23651   5.592  11.642  12.457 -0.0653  0.0038 -0.1738
 7843W        W23652  14.368   6.760  12.081 -0.2516  0.1596  0.1873
 7844W        W23653   2.496  15.387   4.197  0.0434  0.1806  0.0438
 7845W        W23654   3.498   6.925  13.518  0.0019  0.0000  0.1076
 7846W        W23655   1.280  16.655  11.474 -0.0135 -0.1433  0.2277
 7847W        W23656  14.472   5.820   0.688 -0.0107 -0.0078  0.0841
 7848W        W23657  13.772   7.440   1.835  0.1946 -0.0745  0.1441
 7849W        W23658   7.743  11.809   2.213  0.0848  0.2556 -0.0110
 7850W        W23659   4.932  12.777  10.384 -0.0501 -0.0707 -0.1275
 7851W        W23660  17.716   4.448   4.848  0.1817 -0.2704 -0.2215
 7852W        W23661  14.023   4.267  15.940 -0.1478 -0.0106 -0.0156
 7853W        W23662  10.578   2.230   3.569 -0.0871  0.0981 -0.2485
 7854W        W23663  12.618  14.053  14.028 -0.0869  0.0663 -0.2694
 7855W        W23664   1.484   1.108  14.785 -0.0869  0.4227 -0.2284
 7856W        W23665   0.295  15.524  14.622 -0.1362  0.3229  0.1334
 7857W        W23666   7.473  11.995  14.620  0.2115 -0.1131 -0.2678
 7858W        W23667   5.848   2.046  11.054  0.2216  0.1952 -0.0779
 7859W        W23668  13.273  15.518  12.620 -0.0889  0.1218  0.1191
 7860W        W23669   2.892   8.815  12.066  0.1560  0.0076 -0.2699
 7861W        W23670   3.045  18.138  14.931  0.1858  0.1072 -0.1206
 7862W        W23671  11.035  17.297  13.422 -0.2406  0.5098  0.0151
 7863W        W23672   9.459  15.980   1.211 -0.1039 -0.1472  0.3117
 7864W        W23673  11.399  14.731  11.633 -0.1524  0.0573 -0.1811
 7865W        W23674  17.350  17.138   4.808  0.0325  0.2476  0.1410
 7866W        W23675  17.191  16.733   5.174  0.1395 -0.2618 -0.0176
 7867W        W23676   8.412   6.148   2.695 -0.0030 -0.0400 -0.0147
 7868W        W23677   3.631  17.548   6.040  0.2705  0.0255 -0.1746
 7869W        W23678   0.991  13.182   1.922  0.1341 -0.2230 -0.0924
 7870W        W23679  11.305  15.279   2.977 -0.1410 -0.1273  0.2195
 7871W        W23680  14.015  12.655   0.421  0.0845  0.0773  0.1687
 7872W        W23681   0.587   7.230   0.882 -0.1694 -0.0187  0.0488
 7873W        W23682   3.256   0.835   5.015  0.0634 -0.0586 -0.1603
 7874W        W23683  10.321   2.809  14.741 -0.1054  0.0951  0.0452
 7875W        W23684  14.394   0.236   4.293  0.0535 -0.0416  0.3350
 7876W        W23685   8.177   2.378  12.140  0.3307  0.2038 -0.1444
 7877W        W23686   2.640   4.729   0.960 -0.0958 -0.2735 -0.0862
 7878W        W23687  11.123   2.642  12.344  0.1967 -0.1929  0.1356
 7879W        W23688   6.258  15.182  15.427  0.2178 -0.0272  0.0734
 7880W        W23689  18.064   2.732   5.029  0.1837 -0.1418  0.0281
 7881W        W23690   2.487  17.417   0.220  0.1040  0.0621 -0.1835
 7882W        W23691   6.702   0.300  16.250 -0.1478 -0.2692  0.0457
 7883W        W23692  11.753   1.133  12.058 -0.0092 -0.1125 -0.0893
 7884W        W23693   7.395   2.875  15.357  0.0618  0.1352  0.0445
 7885W        W23694   3.547   5.864  12.671 -0.0601  0.3041  0.0377
 7886W        W23695  13.447   4.362   4.257  0.0077  0.0857  0.0994
 7887W        W23696  17.807   5.565   1.525 -0.0142  0.2603 -0.1914
 7888W        W23697  16.938   3.648  15.143  0.1151 -0.0463 -0.0105
 7889W        W23698  14.360  10.130  13.165 -0.4461 -0.2360 -0.0579
 7890W        W23699  15.467  11.812  12.843  0.0928  0.0340  0.0829
 7891W        W23700   5.818   8.107   1.289 -0.1597  0.1848 -0.0652
 7892W        W23701   9.588   2.031   2.753  0.0154 -0.0517 -0.2467
 7893W        W23702  13.481   5.796   2.964  0.1572  0.1146  0.1153
 7894W        W23703  11.593  11.810   0.718 -0.2144  0.1265  0.2670
 7895W        W23704   4.352   6.286  12.642  0.2281 -0.0798  0.2753
 7896W        W23705   3.010  16.061  12.712 -0.0472  0.4422 -0.0254
 7897W        W23706  15.797  16.864   1.231 -0.1964 -0.1620  0.1297
 7898W        W23707   0.644   6.065  12.098  0.0347  0.0773 -0.0428
 7899W        W23708  12.664   9.984   5.090 -0.1773 -0.0003 -0.0463
 7900W        W23709   6.191   3.851   1.505  0.1155 -0.3417 -0.2889
 7901W        W23710  11.389  11.229  12.917 -0.0649  0.2510  0.1189
 7902W        W23711   3.738   9.416   0.742 -0.0904 -0.0708  0.1841
 7903W        W23712  10.601  13.785   4.714 -0.3450 -0.0880 -0.0684
 7904W        W23713   1.575   8.675  15.692 -0.2130  0.2513  0.3715
 7905W        W23714   7.130   9.492   5.751 -0.1021 -0.0620 -0.0156
 7906W        W23715   4.401   7.830  15.155 -0.3294 -0.0868 -0.4022
 7907W        W23716   5.467   8.621   2.860 -0.0223 -0.1678  0.0754
 7908W        W23717  14.598  13.527  14.899 -0.1970 -0.0721 -0.2082
 7909W        W23718  13.084   8.000  12.714 -0.0993 -0.0687  0.0379
 7910W        W23719   2.274   1.880   1.058  0.1750 -0.0873 -0.1835
 7911W        W23720   1.684   9.694   0.720 -0.0738  0.0187  0.0191
 7912W        W23721   6.671   0.755   5.064 -0.0184 -0.2016 -0.3337
 7913W        W23722  15.545  11.215  11.522 -0.0017  0.0225 -0.1465
 7914W        W23723  12.253  17.636  14.059 -0.2439 -0.1996  0.1313
 7915W        W23724   5.671   2.259  12.589  0.1722 -0.1198 -0.0559
 7916W        W23725   7.501  14.854  15.617  0.1965 -0.0776 -0.0567
 7917W        W23726   1.847   0.110   0.721 -0.1445  0.0962  0.0320
 7918W        W23727   9.688  11.574  15.045 -0.0387 -0.1862 -0.0933
 7919W        W23728  16.138   3.845   3.231  0.0365  0.2221 -0.0557
 7920W        W23729   5.584   1.984   4.216 -0.1108  0.2517 -0.0907
 7921W        W23730   1.963  14.889   3.974 -0.0402 -0.0291  0.1194
 7922W        W23731   0.971  15.863   0.592 -0.0409 -0.1626 -0.1808
 7923W        W23732   5.604  14.870  12.343  0.0506 -0.2068 -0.1711
 7924W        W23733  11.414   5.955   2.769 -0.2601  0.1199  0.0685
 7925W        W23734  12.481   7.133  12.000 -0.2307 -0.0276  0.0154
 7926W        W23735  16.273  12.485   2.410 -0.0291  0.0007  0.1770
 7927W        W23736   3.007   0.824  13.729 -0.0157  0.3534 -0.0121
 7928W        W23737  13.884  13.478  13.655 -0.0273 -0.0300 -0.0030
 7929W        W23738   6.129   8.164   0.606 -0.1059 -0.0891 -0.1173
 7930W        W23739   9.188   5.155  14.708  0.0554  0.2390 -0.0419
 7931W        W23740  10.509   0.369  11.558 -0.0279  0.3396  0.0421
 7932W        W23741   8.377  12.309   1.180  0.0677 -0.1093  0.0087
 7933W        W23742  13.027  10.663   4.289 -0.2398  0.1134  0.1556
 7934W        W23743  11.654   5.685   0.445 -0.1573 -0.0776 -0.3663
 7935W        W23744   7.820   7.264   0.945  0.1923  0.1053 -0.3413
 7936W        W23745   5.831   1.333  11.534 -0.1104 -0.0662 -0.1684
 7937W        W23746  17.458   0.114  14.980 -0.1235 -0.1744 -0.1956
 7938W        W23747   2.467   2.556  15.008 -0.1251  0.0388 -0.1302
 7939W        W23748   6.904   3.785   3.588  0.0077  0.0229  0.1486
 7940W        W23749   3.929   9.609  15.210 -0.0111  0.0839  0.1134
 7941W        W23750   3.373  11.410  11.519 -0.4608 -0.2450 -0.1841
 7942W        W23751   2.955   8.918  14.523  0.3550  0.1712  0.1167
 7943W        W23752  14.439  12.958   4.537 -0.0757 -0.1919  0.0321
 7944W        W23753  12.467   4.232  10.831 -0.1918 -0.1467  0.1774
 7945W        W23754  12.406   0.892  15.388 -0.3375 -0.0541 -0.0844
 7946W        W23755   2.120  14.059  16.254 -0.1724 -0.0383  0.0720
 7947W        W23756  11.923   4.569   1.896 -0.0617 -0.0503 -0.0196
 7948W        W23757   1.242  16.533  12.672 -0.2789 -0.1362 -0.0889
 7949W        W23758  10.494   4.244  14.517 -0.3211  0.1938  0.4100
 7950W        W23759   7.813  12.885  14.479  0.0028  0.0991  0.0670
 7951W        W23760   0.830   6.602   0.703 -0.0355 -0.1772  0.0456
 7952W        W23761   7.511  17.815   2.363 -0.0070 -0.4441 -0.1626
 7953W        W23762   7.123  13.749   2.120 -0.1239  0.0018  0.1279
 7954W        W23763  11.020  11.758  16.308  0.0715 -0.1489 -0.0220
 7955W        W23764   8.553   9.234  11.456 -0.0446  0.1022 -0.0276
 7956W        W23765   3.810  12.727   3.388 -0.2902  0.1491 -0.2257
 7957W        W23766   8.106   2.869  14.825  0.0661  0.0395 -0.1403
 7958W        W23767   5.215  17.008   3.824 -0.1865 -0.1959  0.1794
 7959W        W23768   3.131  10.881  15.502  0.0001  0.1713 -0.2138
 7960W        W23769   7.199  17.365   4.713  0.0965  0.4786 -0.0530
 7961W        W23770   6.047   3.756  14.361 -0.0854 -0.1080  0.1206
 7962W        W23771  15.106  13.559  14.800 -0.2717 -0.0701  0.3054
 7963W        W23772  14.496   8.377  11.769 -0.0443 -0.1999  0.0525
 7964W        W23773  14.182  18.141  14.646  0.1865  0.1957  0.2190
 7965W        W23774  11.819   0.299   2.090  0.1143 -0.3324  0.1176
 7966W        W23775   3.115   3.145   2.068 -0.0170 -0.1426  0.1351
 7967W        W23776  14.228   4.471  14.207  0.0392 -0.0339 -0.0388
 7968W        W23777  10.213  10.466   0.555  0.1721 -0.3255  0.0197
 7969W        W23778  11.991  16.010  11.458  0.1469  0.4752  0.0552
 7970W        W23779   9.754   1.151   5.469 -0.1016  0.0680  0.0927
 7971W        W23780  12.833  12.098   5.278  0.3250 -0.3712  0.1085
 7972W        W23781  10.669  18.213  15.662 -0.2084  0.0024  0.1882
 7973W        W23782  12.573   0.676   1.862  0.3471  0.1938 -0.0928
 7974W        W23783  15.522   2.934   4.198 -0.3216 -0.1645  0.1858
 7975W        W23784  14.265   4.305  13.758  0.0611 -0.3194  0.0336
 7976W        W23785   8.999  17.672   3.729  0.1937  0.1870  0.1037
 7977W        W23786  16.979  13.629   3.488 -0.2587  0.2666 -0.1139
 7978W        W23787  13.664   9.968   2.457  0.1367 -0.0856 -0.0614
 7979W        W23788  11.967   5.957   3.400  0.2324  0.0664 -0.0288
 7980W        W23789  12.356   3.304   0.642 -0.0435  0.0761  0.2925
 7981W        W23790  13.904   2.134   0.151  0.1405  0.1210 -0.0351
 7982W        W23791   2.326  13.776   0.282 -0.0453  0.2682 -0.0719
 7983W        W23792   3.978   5.564  11.304 -0.1427  0.2529  0.0110
 7984W        W23793   1.953  12.409   5.246  0.0327 -0.0345 -0.1835
 7985W        W23794  10.479  17.598   2.734  0.0431  0.0357  0.2601
 7986W        W23795  12.944   9.528  12.418 -0.0492  0.0572  0.0845
 7987W        W23796   6.433   8.538  12.452 -0.2162 -0.3704 -0.1810
 7988W        W23797   2.389  15.107  16.054 -0.1808 -0.1568  0.2842
 7989W        W23798   7.456  11.886   4.858  0.0660 -0.4361  0.0359
 7990W        W23799   1.270  15.454  11.688 -0.3374  0.1822  0.1738
 7991W        W23800   4.795   5.370  13.680 -0.0036  0.2021 -0.1782
 7992W        W23801   0.979  17.789  13.205 -0.1037 -0.2838  0.2953
 7993W        W23802   9.604  16.874  14.933 -0.2101  0.1811 -0.1893
 7994W        W23803  13.260  14.971  16.084 -0.3202  0.4294 -0.0319
 7995W        W23804   2.380  13.021  13.716  0.1022  0.3362 -0.0727
 7996W        W23805  11.448   8.683  14.037 -0.0136  0.0498 -0.0491
 7997W        W23806   0.426   7.612   5.542  0.3256  0.0442 -0.1082
 7998W        W23807   0.902  11.893   1.068 -0.5328 -0.0977 -0.0358
 7999W        W23808  15.632  13.378  11.488  0.1755  0.0359 -0.1544
 8000W        W23809   4.542  14.797   1.205  0.0245  0.0551  0.0610
 8001W        W23810   5.907  10.899  14.832 -0.1712  0.0319 -0.2736
 8002W        W23811   0.575   7.583   4.151 -0.2697  0.1771  0.2027
 8003W        W23812   8.433   7.695   2.013  0.1934 -0.2885  0.2493
 8004W        W23813  16.624  16.750  12.140 -0.0983  0.0357  0.0413
 8005W        W23814   3.054  10.214   3.279  0.0799 -0.2429 -0.0608
 8006W        W23815   5.584   9.622   2.188 -0.0570  0.2218 -0.0032
 8007W        W23816   4.138   4.156   3.329 -0.0693 -0.3051  0.0567
 8008W        W23817  10.651  14.770  15.078  0.0385 -0.1783 -0.1003
 8009W        W23818   9.405  17.033  12.744  0.1896 -0.2513 -0.1951
 8010W        W23819   7.522   8.393   3.398 -0.0786 -0.0706 -0.0684
 8011W        W23820   6.999  10.597  14.483  0.2623 -0.0241 -0.1331
 8012W        W23821  18.140   8.712   2.257 -0.0987 -0.3225 -0.2642
 8013W        W23822  15.389  17.208   1.510 -0.3473 -0.1722  0.1268
 8014W        W23823  16.742   9.212   0.376 -0.1203  0.1886 -0.0245
 8015W        W23824   5.266   0.951   5.149 -0.1041 -0.0271 -0.3499
 8016W        W23825   7.987  10.891  13.105 -0.1606  0.2699  0.0657
 8017W        W23826   7.798  13.777   1.551 -0.0527 -0.2168 -0.1711
 8018W        W23827   4.782  13.768   2.014  0.0583  0.0553  0.2677
 8019W        W23828   7.716  17.222   5.125 -0.1518 -0.0835  0.1361
 8020W        W23829   8.836  10.864   5.197 -0.2587  0.0668 -0.4173
 8021W        W23830   1.279  16.613   0.971  0.2170 -0.1375 -0.1241
 8022W        W23831   8.114   2.453  11.657  0.0819 -0.1838  0.2273
 8023W        W23832   8.047  14.379  16.078 -0.2746 -0.1733 -0.3392
 8024W        W23833   9.794   3.249  11.485 -0.2701  0.0371  0.0439
 8025W        W23834   9.053  12.653  10.661 -0.1719  0.0345 -0.0477
 8026W        W23835   5.173   2.111   2.471 -0.0255 -0.0458  0.1558
 8027W        W23836  14.352  17.239  14.473  0.1236  0.1276  0.1501
 8028W        W23837   4.400  11.081   4.169 -0.2624 -0.3062 -0.0632
 8029W        W23838  11.932   6.735   2.149 -0.2244  0.3511  0.0676
 8030W        W23839  16.499   7.609  15.296 -0.1768 -0.1581  0.1065
 8031W        W23840   6.677  12.329   2.390  0.1440  0.1340 -0.0482
 8032W        W23841   1.708   4.770   5.439 -0.0269 -0.3879 -0.1538
 8033W        W23842   3.384   9.357   2.427 -0.0198  0.1338 -0.1412
 8034W        W23843  13.083   5.785  11.107  0.2883  0.2007 -0.1501
 8035W        W23844  11.232  14.292   1.364  0.0308  0.2004  0.0737
 8036W        W23845  17.685  15.597  15.511  0.3871 -0.0807  0.0325
 8037W        W23846   0.242  12.093   4.092  0.1773 -0.0928  0.4741
 8038W        W23847   8.409  12.169   1.700  0.1012 -0.3077 -0.1581
 8039W        W23848  13.345  10.192  13.672 -0.0123  0.0110  0.3772
 8040W        W23849  10.577  12.500   0.430 -0.3964 -0.0533  0.0622
 8041W        W23850  11.068   4.961  10.957  0.2067 -0.4303  0.0577
 8042W        W23851   9.897  15.038  12.900  0.2221  0.0156 -0.3329
 8043W        W23852   4.697  17.147  14.308 -0.3825 -0.0262 -0.3499
 8044W        W23853  10.990   7.174   2.113 -0.1151  0.2525 -0.1496
 8045W        W23854   2.296   6.783   0.530  0.1654 -0.3082 -0.1170
 8046W        W23855   2.967  11.389  12.749 -0.0261  0.1425 -0.0061
 8047W        W23856   9.537   1.583  11.028 -0.4211 -0.0259 -0.0175
 8048W        W23857  11.234   2.718   5.176 -0.1587 -0.1595 -0.1267
 8049W        W23858  17.639  17.061   3.616 -0.1437  0.1271 -0.2192
 8050W        W23859  17.555  15.227  14.433  0.1865 -0.0896  0.1797
 8051W        W23860  11.721   4.388  10.743 -0.0206  0.2125 -0.2613
 8052W        W23861  10.536  14.952   5.569 -0.0107 -0.0152  0.1091
 8053W        W23862   7.472  13.745   3.353  0.3300  0.3272 -0.0048
 8054W        W23863   4.260   3.138  11.052  0.1387 -0.1880 -0.1383
 8055W        W23864   4.069   4.685  12.678 -0.3588 -0.0687  0.2359
 8056W        W23865   6.285   3.627  15.832 -0.0899 -0.2013 -0.0151
 8057W        W23866   7.894  11.814   4.737  0.0899  0.0675  0.0234
 8058W        W23867  17.801  16.527  16.322 -0.2687 -0.1553  0.4666
 8059W        W23868  15.669  13.400  14.399 -0.1077 -0.1209  0.3570
 8060W        W23869  14.301  12.462   5.088  0.0250  0.0021  0.1638
 8061W        W23870  12.536   7.568   3.474 -0.1116  0.1714  0.0472
 8062W        W23871   5.597  11.353   0.280  0.2018  0.1513 -0.1119
 8063W        W23872   7.464  12.391   1.819  0.0478 -0.0971 -0.1732
 8064W        W23873  10.290   7.723  14.009 -0.4405  0.0698 -0.2292
 8065W        W23874  13.118  13.402  12.380  0.0845  0.1350  0.1779
 8066W        W23875   1.003   4.965  14.530  0.5812 -0.1224 -0.1655
 8067W        W23876   7.529   9.412   4.198  0.2067 -0.0450  0.0005
 8068W        W23877   1.103   4.599  12.938 -0.0963  0.1790 -0.1157
 8069W        W23878   2.567   2.617  12.810 -0.0696  0.0494 -0.2406
 8070W        W23879  15.667   8.917   1.646 -0.0621  0.0213 -0.2275
 8071W        W23880   8.314  10.049   5.305  0.0265 -0.0195  0.1259
 8072W        W23881   1.565   1.164   1.064  0.1236 -0.2206 -0.0306
 8073W        W23882   7.856   5.892  15.726 -0.2228 -0.1306  0.0929
 8074W        W23883  17.876  18.106   1.931 -0.2417 -0.2457  0.0349
 8075W        W23884   2.350   3.901  10.952  0.0294 -0.2682 -0.2626
 8076W        W23885  10.754   9.719   4.135 -0.0030 -0.0400 -0.2858
 8077W        W23886  10.267   5.664  13.575  0.0717  0.2350  0.1191
 8078W        W23887  15.593  17.614  14.119 -0.0584  0.0184  0.1437
 8079W        W23888  13.617  17.428  14.941 -0.3310  0.3502  0.0706
 8080W        W23889  15.602   4.018  15.188  0.0440 -0.0022  0.2251
 8081W        W23890   2.946  16.626   0.490  0.2977 -0.4341 -0.0061
 8082W        W23891   1.501  16.213   5.696 -0.2915  0.0496  0.0871
 8083W        W23892   6.069  11.392  12.575  0.0409 -0.2142 -0.0152
 8084W        W23893   1.916  16.233  15.644 -0.1860 -0.1596  0.1899
 8085W        W23894  16.490   6.843   3.717 -0.2534  0.0432 -0.1834
 8086W        W23895  13.278   7.270   1.111  0.0958 -0.0743  0.0716
 8087W        W23896  16.939   6.575  13.086 -0.4751  0.2403 -0.1753
 8088W        W23897  16.915  17.004  10.740 -0.1893 -0.1722 -0.1052
 8089W        W23898  16.523  15.206   3.800 -0.2001 -0.1059  0.0935
 8090W        W23899   4.530   1.724  14.469  0.1105 -0.1904 -0.1944
 8091W        W23900   2.709   8.199   0.205 -0.2347  0.1620  0.0592
 8092W        W23901  10.192   4.580  14.735 -0.0832  0.3639 -0.0886
 8093W        W23902  17.023   5.040  13.778  0.0713  0.1201  0.2122
 8094W        W23903  11.100   3.118   4.091  0.1252  0.0651 -0.0591
 8095W        W23904   2.006  18.119  13.244 -0.5718 -0.2961  0.5222
 8096W        W23905   6.063  13.310  16.337 -0.2269  0.1519  0.0841
 8097W        W23906  17.247   5.913  14.374 -0.0038  0.0417  0.2962
 8098W        W23907   8.501   2.864   1.538 -0.0538  0.0537  0.0465
 8099W        W23908   7.657  12.184   3.707 -0.0342 -0.1291 -0.2929
 8100W        W23909   7.534   0.433  14.105  0.1741 -0.0475 -0.1724
 8101W        W23910   3.133  10.395  15.663  0.0211 -0.0808  0.2344
 8102W        W23911  17.578   1.417  15.417 -0.5098  0.2163  0.4672
 8103W        W23912  14.611   6.367  11.781 -0.4258 -0.1970 -0.1626
 8104W        W23913  15.687  13.009  11.855  0.2541 -0.2315  0.0564
 8105W        W23914   1.466   2.400   2.520  0.0968 -0.0351  0.4281
 8106W        W23915   4.701   9.219  15.035 -0.1524 -0.1167  0.3401
 8107W        W23916   4.673   4.283   2.210  0.1540 -0.0098 -0.3113
 8108W        W23917  13.063   2.565   2.396 -0.2481 -0.0660 -0.0205
 8109W        W23918  11.066   3.208  13.176 -0.1085  0.0395 -0.0535
 8110W        W23919   9.290   5.573  10.788  0.0083  0.0173  0.2240
 8111W        W23920   2.675   9.983  13.410  0.1016  0.1185 -0.0030
 8112W        W23921   5.767  15.905  11.276  0.0797 -0.1391 -0.1582
 8113W        W23922   7.005  17.729  11.431  0.1388  0.0216  0.1829
 8114W        W23923   9.793  13.887   4.383  0.1759 -0.2701 -0.2537
 8115W        W23924  16.792  16.882   5.504  0.1280 -0.0199 -0.4366
 8116W        W23925  10.708  16.257  16.085 -0.1729 -0.1062  0.0057
 8117W        W23926  17.014  13.762   1.851 -0.3266  0.1795 -0.0839
 8118W        W23927   8.586  13.340  12.263  0.0436  0.1578  0.0814
 8119W        W23928   5.895   5.449   2.392  0.1009  0.1529 -0.0949
 8120W        W23929   5.352   4.974  12.317  0.0172 -0.1055 -0.0135
 8121W        W23930  15.685  14.585  11.929 -0.2451 -0.3240 -0.0384
 8122W        W23931   0.382   0.001  11.594 -0.1527 -0.1051 -0.0463
 8123W        W23932  17.172   5.535  13.696  0.0078 -0.0583  0.1284
 8124W        W23933   5.750  16.648   2.890 -0.0141  0.1011  0.2692
 8125W        W23934   1.497   8.389  11.028 -0.1482  0.0427 -0.1540
 8126W        W23935  12.281   8.097  14.356  0.2219  0.3494  0.0320
 8127W        W23936  15.021   7.246   4.161 -0.1054 -0.0081 -0.0742
 8128W        W23937  11.053  10.272   3.552 -0.2841  0.0446  0.0831
 8129W        W23938   8.599  11.517  15.365 -0.0315 -0.0614 -0.0676
 8130W        W23939   1.569   8.137  15.443  0.0520  0.1294  0.1268
 8131W        W23940  12.880   6.825   1.880  0.1492 -0.2381  0.0502
 8132W        W23941  13.717   8.602   4.175 -0.4251  0.5406  0.1748
 8133W        W23942   7.687   1.659  15.117 -0.0748 -0.2199  0.1797
 8134W        W23943   5.377   8.856   3.931 -0.2248 -0.1489 -0.0001
 8135W        W23944  11.937  11.553   4.108 -0.2660 -0.1137  0.3230
 8136W        W23945   7.529   5.992   5.919  0.1497 -0.0787 -0.1303
 8137W        W23946   7.408   7.881   3.486  0.3753  0.0781  0.1206
 8138W        W23947  16.305  13.334  13.579 -0.1568 -0.3254  0.0444
 8139W        W23948  17.967  12.761   1.386 -0.0265  0.0422 -0.2004
 8140W        W23949   4.908   6.666   4.291  0.3266  0.1186  0.2179
 8141W        W23950  13.008  12.050   5.792  0.2553  0.0628 -0.1479
 8142W        W23951  15.772  15.977  14.573  0.0225  0.0652  0.1672
 8143W        W23952  13.151   1.830   1.765  0.0601 -0.0292  0.2638
 8144W        W23953  15.200   4.177   0.478 -0.1530  0.3577 -0.0611
 8145W        W23954  15.724  13.097   2.084  0.0895  0.0313 -0.1455
 8146W        W23955  12.724   0.604  15.707  0.0031  0.1034  0.0602
 8147W        W23956   8.262   3.771  11.068 -0.0397 -0.0551 -0.3968
 8148W        W23957  17.361  15.139  11.615 -0.3708 -0.0847  0.1153
 8149W        W23958   0.292   2.731   0.323 -0.1514 -0.2505 -0.0282
 8150W        W23959   4.660   5.141   0.271  0.2595 -0.0668 -0.0392
 8151W        W23960  11.434   3.828   5.471 -0.2732  0.2260  0.1374
 8152W        W23961  14.170   7.801   1.588  0.2458 -0.0936  0.0337
 8153W        W23962  14.171   6.635   1.727 -0.0646 -0.0325  0.0132
 8154W        W23963  17.920   9.771  11.198 -0.0531 -0.0716  0.0903
 8155W        W23964  14.276  16.529  14.813 -0.0013 -0.2590  0.0554
 8156W        W23965  16.583  10.010   0.299 -0.0343 -0.0834  0.2305
 8157W        W23966  13.249  11.902   0.374 -0.3294  0.0395  0.2983
 8158W        W23967   0.037  10.629  13.077 -0.0329 -0.0670 -0.1107
 8159W        W23968  17.307   1.440   2.643 -0.2039  0.0563 -0.3665
 8160W        W23969  13.009   1.335  15.125 -0.1102 -0.1065  0.0976
 8161W        W23970   5.466  12.052   1.096  0.1089 -0.0605  0.0420
 8162W        W23971  16.418  16.778   0.657  0.0286  0.2411  0.2121
 8163W        W23972   8.975   1.570   4.046 -0.1810 -0.0390 -0.2780
 8164W        W23973   5.703  14.425  11.620 -0.2454  0.3463  0.0218
 8165W        W23974  17.934  11.471  15.367  0.2472  0.0350  0.0975
 8166W        W23975   0.201  10.530   2.041  0.1188  0.1917  0.0302
 8167W        W23976   4.202  10.765   1.791  0.1360 -0.0543  0.0833
 8168W        W23977  17.678   8.375   3.942 -0.1147  0.0633 -0.1514
 8169W        W23978   4.557  16.038  14.908 -0.0593 -0.0123  0.1003
 8170W        W23979   1.119  11.956  14.721  0.0649  0.2804 -0.4272
 8171W        W23980  11.918   3.028  15.456  0.1450  0.1436 -0.0776
 8172W        W23981   3.627   0.061  11.052  0.1059  0.0138  0.2400
 8173W        W23982   2.912  11.570  12.299 -0.0158 -0.1642 -0.1066
 8174W        W23983   9.401  13.914   4.045 -0.2428  0.0199 -0.0331
 8175W        W23984   4.088  17.474  15.103 -0.2330 -0.0820 -0.0916
 8176W        W23985  14.313   4.445   2.853  0.1972  0.2256 -0.3074
 8177W        W23986   8.455   6.215  14.098  0.1552  0.4550 -0.0182
 8178W        W23987  12.345  17.482   1.896 -0.0426  0.0169 -0.0049
 8179W        W23988   4.588   1.522  10.535  0.3770  0.0802  0.2691
 8180W        W23989   7.963  13.320  14.214  0.3418  0.0236 -0.0947
 8181W        W23990   7.154   6.486  12.520  0.0233  0.2822 -0.1180
 8182W        W23991   1.372   8.697   4.031 -0.0540 -0.0533  0.0190
 8183W        W23992   9.633   8.237  14.697  0.1139 -0.0407  0.0354
 8184W        W23993   9.937  11.916   5.305  0.0716 -0.2069  0.0172
 8185W        W23994  16.211  10.990   4.862 -0.3137 -0.0125  0.1385
 8186W        W23995  15.538  11.086  11.017 -0.2105 -0.0858 -0.1017
 8187W        W23996   0.665   3.471   0.130  0.1366 -0.2964  0.0504
 8188W        W23997  15.561   9.521  12.757  0.1871 -0.0785  0.2664
 8189W        W23998   8.400  15.664  14.746 -0.0211 -0.0201 -0.0464
 8190W        W23999   4.079   2.938   1.730 -0.0183  0.1839 -0.1453
 8191W        W24000   1.791  11.798   3.763  0.2705  0.0591 -0.1667
 8192W        W24001  12.344   7.449   1.421  0.1948  0.1147 -0.2628
 8193W        W24002   5.346   4.102   1.582  0.2246  0.2927  0.2211
 8194W        W24003  17.663  10.939   4.686 -0.2067 -0.0972 -0.3456
 8195W        W24004   5.158  13.908  11.332  0.1060 -0.1571  0.2362
 8196W        W24005   6.175  10.579   0.202 -0.0030  0.2247  0.2505
 8197W        W24006   5.914   3.963  11.910  0.0597  0.6001 -0.1617
 8198W        W24007   1.701   7.399  14.786  0.2321  0.2518 -0.0228
 8199W        W24008   0.939   6.453  12.475 -0.0273  0.0187 -0.2232
 8200W        W24009   7.000  10.006  14.700 -0.1146  0.1270  0.0203
 8201W        W24010  12.739  10.053   2.401  0.1578  0.0340  0.0316
 8202W        W24011  15.632   7.770   1.627  0.1434  0.0515 -0.1316
 8203W        W24012   3.356  13.913   1.985 -0.2325 -0.1296  0.3288
 8204W        W24013   1.827  12.682   1.281  0.1675 -0.0987  0.4164
 8205W        W24014   1.923   6.459   5.715  0.4779 -0.0504  0.0809
 8206W        W24015   4.035   6.540   4.470  0.2471  0.3530  0.0682
 8207W        W24016   1.673  17.910   4.285 -0.1310  0.0599  0.1344
 8208W        W24017   9.331  14.254   3.061 -0.3088 -0.2101 -0.5977
 8209W        W24018  13.848  12.208  14.972 -0.2966 -0.1884  0.1487
 8210W        W24019   8.150   7.419  11.559 -0.1423  0.0886  0.3507
 8211W        W24020  13.075   7.532   4.498  0.2873  0.0498 -0.0229
 8212W        W24021   5.328  16.638  12.244  0.1365  0.1229 -0.0517
 8213W        W24022  13.429   4.891  12.366 -0.1270  0.1695  0.1338
 8214W        W24023   7.898   9.110   4.257  0.0502 -0.0491 -0.1565
 8215W        W24024   6.842  16.823   2.021 -0.0088 -0.2273 -0.0868
 8216W        W24025  17.839   0.220  11.947  0.0176  0.1650 -0.1056
 8217W        W24026  13.326   3.067   3.335  0.0577  0.0730 -0.1888
 8218W        W24027   6.005   7.273  15.458 -0.0224 -0.0279  0.2173
 8219W        W24028  11.420   4.086  16.040 -0.0281  0.0042 -0.2184
 8220W        W24029   4.288  17.394   1.587  0.3042  0.1218  0.1696
 8221W        W24030  10.864   9.757  14.726 -0.1822 -0.1551 -0.0112
 8222W        W24031   9.347   5.614  15.106  0.0597  0.0573 -0.1397
 8223W        W24032   2.202   8.332  14.105 -0.0207 -0.0149  0.2981
 8224W        W24033  14.591   8.863  11.465 -0.1239  0.2056 -0.0285
 8225W        W24034   5.493   4.356   3.846  0.0399 -0.1539  0.2637
 8226W        W24035  16.164  11.450   1.345 -0.0876 -0.0442 -0.1927
 8227W        W24036  13.252  14.370   4.814 -0.1604  0.0001  0.1684
 8228W        W24037  14.938   2.445   1.202  0.2559  0.0023 -0.1112
 8229W        W24038   1.452   9.175  12.618 -0.0698  0.2735  0.2725
 8230W        W24039   8.464  16.733   1.666  0.0462 -0.1328 -0.0454
 8231W        W24040   0.776  16.086  13.158  0.3332 -0.1134 -0.2913
 8232W        W24041  13.377   7.115  13.646  0.0591  0.0826  0.0276
 8233W        W24042  14.606   8.647   3.113  0.1806  0.0659 -0.0422
 8234W        W24043   1.920  17.991   2.944 -0.0591 -0.5696  0.0144
 8235W        W24044   7.695  17.999  16.151 -0.4180  0.0699 -0.1467
 8236W        W24045   4.080  15.387   2.199  0.0919 -0.0266 -0.0517
 8237W        W24046  15.099   4.305   2.533  0.1595 -0.0185 -0.2924
 8238W        W24047  14.479  11.796  13.296 -0.2310 -0.3069  0.1181
 8239W        W24048   0.227   9.196   3.950 -0.0413  0.1873  0.0319
 8240W        W24049  10.255   1.916   0.961  0.5229  0.0695  0.0592
 8241W        W24050  13.468  10.601   0.873  0.0510  0.1693 -0.1667
 8242W        W24051   1.933   5.178   3.683 -0.1384  0.3179 -0.1316
 8243W        W24052   4.528  14.093  15.765  0.1295  0.1119 -0.0747
 8244W        W24053   2.804  11.262   3.362  0.3011  0.0298  0.0269
 8245W        W24054   5.657  13.100   5.400 -0.1826 -0.0711 -0.1608
 8246W        W24055  12.157   5.364  11.683  0.0096 -0.1074  0.2482
 8247W        W24056   6.492   9.440   0.323 -0.2000 -0.0735  0.1562
 8248W        W24057   4.982  13.207   5.595  0.0535 -0.0174 -0.2361
 8249W        W24058   2.394   0.650  13.277  0.4465 -0.1158  0.2059
 8250W        W24059  12.901   9.133   2.352  0.2711  0.0322 -0.2053
 8251W        W24060   6.134  15.881   2.313  0.2053  0.0601 -0.1049
 8252W        W24061   4.168  16.553  11.739  0.2954 -0.3561 -0.2735
 8253W        W24062   2.879  12.944  16.186 -0.0048 -0.1211 -0.2927
 8254W        W24063   7.077   7.563  15.839 -0.2995  0.2593 -0.4342
 8255W        W24064   6.806   9.506  11.652 -0.0186  0.0687  0.0422
 8256W        W24065   3.002   9.242   2.101  0.0161 -0.1653 -0.1514
 8257W        W24066   8.579   2.717  16.029  0.0660  0.2730  0.0501
 8258W        W24067   5.601  13.943  15.890 -0.2388  0.2316 -0.2399
 8259W        W24068   2.801  16.453   3.048 -0.1137 -0.2274 -0.1876
 8260W        W24069  15.975  15.891  12.471 -0.0072 -0.0841  0.1714
 8261W        W24070   5.892   9.713   5.836 -0.2535 -0.0885  0.1962
 8262W        W24071   7.499   1.407  13.130  0.0751  0.2670 -0.1889
 8263W        W24072  17.904  11.291   5.001  0.4131 -0.1697 -0.1975
 8264W        W24073  17.540   5.153  13.635 -0.0910 -0.1256  0.1457
 8265W        W24074  15.478   4.904  13.185 -0.0745  0.1180 -0.2018
 8266W        W24075   5.222  13.378  11.348  0.4531  0.2430  0.0318
 8267W        W24076   4.636   0.299  13.647 -0.1042  0.2827  0.1944
 8268W        W24077  17.556   9.754  15.795 -0.0596  0.1509  0.1115
 8269W        W24078   8.487  14.912  12.922 -0.2056 -0.1075  0.0035
 8270W        W24079   2.038   8.512   4.460 -0.2637 -0.1861  0.0603
 8271W        W24080  14.678  13.093  11.524 -0.1537  0.1415 -0.1393
 8272W        W24081  17.236   9.842   1.681 -0.2768 -0.2797 -0.2013
 8273W        W24082  10.605   9.427   2.826  0.0679 -0.0273  0.1455
 8274W        W24083   0.904   6.001  13.427 -0.3822 -0.0989  0.1146
 8275W        W24084   1.967   7.661   1.002  0.2060 -0.0336 -0.0729
 8276W        W24085   1.890   1.738   0.310 -0.0367  0.0748  0.0822
 8277W        W24086  12.781   9.196   1.411  0.0862 -0.0234 -0.0998
 8278W        W24087   1.611  17.293  15.986  0.0056  0.1482 -0.1396
 8279W        W24088  11.066  14.343  16.211 -0.0215 -0.2954  0.1448
 8280W        W24089  14.264   9.313   3.558 -0.1392 -0.1141  0.1322
 8281W        W24090   4.629   8.938   6.193 -0.0251  0.4418  0.1311
 8282W        W24091   6.008   5.139  16.086  0.3789  0.1257  0.1413
 8283W        W24092   4.097   4.921   2.747 -0.0740  0.1294 -0.1701
 8284W        W24093  18.094   4.000   0.476 -0.1244  0.2338  0.2603
 8285W        W24094  17.540  13.852   4.343 -0.3102 -0.1871  0.0286
 8286W        W24095   6.973   9.430  14.688 -0.1663 -0.2130 -0.1274
 8287W        W24096   6.541   2.407   2.200 -0.0139 -0.0716 -0.0798
 8288W        W24097   7.732  15.374   3.847  0.3699  0.3211  0.0029
 8289W        W24098   0.723   6.388   1.202  0.2241 -0.3201 -0.0221
 8290W        W24099  15.049   7.139  10.780  0.3255  0.3932 -0.0862
 8291W        W24100   1.683   8.250   4.151  0.0793 -0.0222  0.0587
 8292W        W24101  12.420   3.370  11.230  0.0247  0.4534 -0.2271
 8293W        W24102  17.538  14.333  10.934  0.1131  0.0429  0.4702
 8294W        W24103  18.049   7.882  14.143  0.2006 -0.0445 -0.2374
 8295W        W24104   2.695   8.577  14.884 -0.2236 -0.2518  0.0181
 8296W        W24105   0.986   6.817   3.166  0.0211  0.2976  0.2034
 8297W        W24106   9.220  17.148   3.544  0.2237  0.2312  0.1846
 8298W        W24107   2.939   2.146  14.294 -0.2386  0.1366  0.0220
 8299W        W24108  14.663   2.015   1.231  0.3016 -0.0019 -0.0303
 8300W        W24109   1.452  17.808  11.820 -0.0326 -0.2091 -0.2037
 8301W        W24110   3.620  13.831   1.141  0.0667  0.2322 -0.0908
 8302W        W24111   2.717   6.165  11.574  0.1301  0.0196 -0.2256
 8303W        W24112   4.629  15.973  15.711  0.3625 -0.1452  0.3341
 8304W        W24113   6.719   5.169  15.862 -0.2598  0.1404 -0.1303
 8305W        W24114  10.546   6.435  15.622 -0.1362  0.1100 -0.5546
 8306W        W24115  13.833   7.215  14.703  0.1188  0.0412  0.1533
 8307W        W24116   7.671  10.050  12.064  0.1015  0.0226  0.0828
 8308W        W24117   6.032   5.967   0.175 -0.1310 -0.1563  0.2347
 8309W        W24118  15.140   9.744   3.267 -0.0737  0.1359 -0.2235
 8310W        W24119   8.957   3.221   5.132 -0.3182 -0.0148  0.0381
 8311W        W24120  16.613   1.153   0.899 -0.0440  0.3770 -0.2597
 8312W        W24121  10.901  13.047   2.162  0.2198  0.2510  0.0390
 8313W        W24122  14.359  15.247   3.030  0.1526  0.1735  0.0304
 8314W        W24123   7.978   1.495   4.050  0.5378 -0.0216 -0.3441
 8315W        W24124   2.029   4.156   3.801  0.1297  0.3179 -0.1335
 8316W        W24125   9.465   0.221  15.541 -0.2706 -0.3081  0.4502
 8317W        W24126   9.814  17.071   6.499  0.2785  0.1941  0.0634
 8318W        W24127  16.848  12.800  14.861 -0.1246  0.0742 -0.2598
 8319W        W24128  11.289  12.415  13.347  0.1769 -0.0210 -0.3154
 8320W        W24129  11.692   0.159  12.405 -0.0171  0.1794  0.3038
 8321W        W24130  13.918  14.701   3.651 -0.1866 -0.0434 -0.1614
 8322W        W24131  15.833  17.276  15.314  0.2317  0.1506  0.1720
 8323W        W24132   4.452   2.929  15.028  0.2073  0.1828  0.1337
 8324W        W24133   3.686   5.837  13.171 -0.0392 -0.0293  0.1042
 8325W        W24134   3.997  13.555   3.513 -0.0329 -0.0734 -0.1068
 8326W        W24135   7.534   1.155  16.275  0.0590  0.1583  0.0914
 8327W        W24136   3.899   3.148  13.414  0.0125 -0.2747  0.1991
 8328W        W24137  11.857   5.819  16.149 -0.1250 -0.1565 -0.0198
 8329W        W24138  16.133   0.858   0.973 -0.1597 -0.2693  0.4489
 8330W        W24139  12.100   1.347  14.893 -0.1228 -0.0025 -0.0680
 8331W        W24140   5.049   5.726  12.436 -0.0385  0.3844 -0.2368
 8332W        W24141  11.511  12.388  15.645  0.1459 -0.1462 -0.3198
 8333W        W24142  13.373  17.938  15.119  0.2740  0.0125  0.0421
 8334W        W24143  17.604   4.693   0.515 -0.0310 -0.2070 -0.0175
 8335W        W24144  14.444  12.537   2.867 -0.1846 -0.1130  0.1219
 8336W        W24145  10.075   4.122   5.299  0.1558  0.0923 -0.2047
 8337W        W24146   3.738   3.944   3.090 -0.1031  0.0622 -0.0453
 8338W        W24147  16.688  17.216  12.678 -0.1191 -0.3385 -0.1423
 8339W        W24148  14.630  14.350  12.887  0.1764 -0.0565 -0.0208
 8340W        W24149  10.706  13.983   2.110 -0.1855 -0.0261 -0.1485
 8341W        W24150  10.150  16.280   3.519 -0.1333 -0.2200 -0.2717
 8342W        W24151  14.512   3.517   4.125 -0.2111  0.3087 -0.2028
 8343W        W24152  16.662   5.621  13.057  0.2171  0.2289 -0.0231
 8344W        W24153  17.573  15.468  13.981  0.2080 -0.2357  0.0242
 8345W        W24154   7.014  10.501   1.520 -0.1180 -0.2477  0.1793
 8346W        W24155   6.945   6.799   3.634 -0.2455 -0.4127  0.1657
 8347W        W24156  14.296   1.418   0.887 -0.0452 -0.1461  0.1672
 8348W        W24157   5.867  13.700   5.415 -0.2343  0.0744  0.1240
 8349W        W24158   1.904  12.125  15.301  0.0693 -0.2885 -0.2190
 8350W        W24159   3.009   7.561  11.940  0.0734 -0.0594 -0.2220
 8351W        W24160   0.561  17.444   0.809 -0.0312 -0.1424  0.1476
 8352W        W24161   5.833  11.601  12.966  0.3746 -0.1272  0.2041
 8353W        W24162  16.517   9.893   6.290 -0.1355  0.0241  0.1107
 8354W        W24163  10.822   4.128  11.337 -0.1214  0.0154 -0.2541
 8355W        W24164   3.534   2.888  12.462 -0.2844 -0.1758  0.1366
 8356W        W24165   0.227   9.663   3.387 -0.1749 -0.0846  0.0873
 8357W        W24166   3.844   1.967   5.716 -0.3494 -0.3405  0.1277
 8358W        W24167   5.995  15.939   5.904  0.1438 -0.0310  0.1522
 8359W        W24168   0.665   4.647  12.309 -0.2647  0.2338  0.1098
 8360W        W24169  15.145  13.907  16.161 -0.1831  0.0443  0.2134
 8361W        W24170  15.756   4.879  12.420  0.1868  0.1097 -0.2175
 8362W        W24171   4.646   5.864  12.729  0.0075 -0.0826 -0.3504
 8363W        W24172  11.903  15.323  11.534  0.2208 -0.1671 -0.0037
 8364W        W24173  17.474  12.453  14.839  0.1712 -0.2178  0.0802
 8365W        W24174   7.196   2.668  15.835 -0.0512  0.0046 -0.1784
 8366W        W24175   9.259   0.699  11.711 -0.2487 -0.0080 -0.0600
 8367W        W24176   3.763  11.543  14.200 -0.0980  0.0467 -0.0263
 8368W        W24177   0.811   5.505   0.642  0.0604 -0.0618  0.3510
 8369W        W24178   8.007  14.786   2.714  0.4126  0.0783 -0.0638
 8370W        W24179  11.827  10.858  14.430 -0.1087 -0.1659  0.0297
 8371W        W24180   9.767  11.357  15.958  0.1481  0.0870 -0.1826
 8372W        W24181  14.441   1.655   4.731  0.0072 -0.2071  0.0636
 8373W        W24182   2.257   1.560  14.305  0.1170  0.2667  0.1579
 8374W        W24183   2.975   5.222  11.648 -0.1727 -0.1354 -0.0278
 8375W        W24184  15.239   6.943   2.871 -0.0631  0.0831 -0.4242
 8376W        W24185   2.981   3.620  11.457 -0.1095  0.0413  0.0456
 8377W        W24186   5.360   4.450  16.077  0.0506  0.2993 -0.3023
 8378W        W24187  11.954   8.547  14.303 -0.3899 -0.1889  0.3467
 8379W        W24188  11.406  12.602   1.128  0.2180 -0.5415  0.1850
 8380W        W24189   8.624  14.707  15.252 -0.1397  0.4058 -0.0594
 8381W        W24190  12.419  14.082   3.814  0.0059 -0.0666  0.0085
 8382W        W24191  10.662   5.788  16.341 -0.0380  0.2910 -0.1194
 8383W        W24192  17.468   0.484  15.385  0.0522  0.2127 -0.3377
 8384W        W24193   1.087  14.875   5.275  0.3013  0.3321  0.3871
 8385W        W24194  10.645  11.641  13.140 -0.0746 -0.1142  0.2056
 8386W        W24195  16.960   0.686  12.161  0.0100 -0.2189  0.0008
 8387W        W24196   9.041   0.421  15.583  0.1224 -0.2670  0.1084
 8388W        W24197  14.938   3.854   6.156  0.2236 -0.1309 -0.0242
 8389W        W24198   3.415   5.309   1.108  0.1102 -0.2466 -0.1017
 8390W        W24199   4.006  15.440  15.697 -0.1556  0.0357  0.0578
 8391W        W24200  12.370   2.979   4.966 -0.1573 -0.0728 -0.2583
 8392W        W24201   2.980   1.040  11.989 -0.4494  0.2049  0.1903
 8393W        W24202   7.820   1.139  10.687  0.0942 -0.0914 -0.0157
 8394W        W24203   5.311  17.366   1.225  0.3311 -0.0227  0.1678
 8395W        W24204   1.803   4.973   4.146  0.1575 -0.0981 -0.0123
 8396W        W24205  17.045  14.922   2.049 -0.0839 -0.0501  0.0811
 8397W        W24206  13.120  10.759  11.009  0.0065  0.1241 -0.1254
 8398W        W24207  14.888   9.279   4.620  0.1306  0.0219 -0.0081
 8399W        W24208  17.832   3.549   1.621  0.1632 -0.2493 -0.1600
 8400W        W24209  14.460  17.182   2.108  0.2228 -0.3245  0.0030
 8401W        W24210  15.985  13.639  11.663  0.3158  0.0013 -0.1416
 8402W        W24211   1.583   0.245   5.613  0.2667  0.2351  0.0069
 8403W        W24212   1.903   2.488  11.417 -0.1579 -0.3610 -0.0800
 8404W        W24213   5.393  11.265  13.155  0.0008 -0.0115  0.1621
 8405W        W24214  14.977  16.480   5.230 -0.0950 -0.0544 -0.0479
 8406W        W24215  15.895   6.582  12.236  0.2272 -0.4468  0.0131
 8407W        W24216   1.580  11.225  12.889 -0.0139 -0.2141 -0.0374
 8408W        W24217   8.628  17.903  15.388  0.2980 -0.0781 -0.1824
 8409W        W24218   7.129  15.829   2.363  0.0532  0.3395  0.0187
 8410W        W24219   5.456  16.301   0.350 -0.3240  0.0983 -0.0744
 8411W        W24220  17.684   9.180  13.054  0.3284 -0.0310  0.4373
 8412W        W24221  15.414   8.016   4.890 -0.1048  0.2692 -0.0438
 8413W        W24222   8.011  11.426  14.967 -0.2137 -0.1404  0.0982
 8414W        W24223  10.105  16.055  12.531 -0.0113 -0.1644  0.0062
 8415W        W24224   3.050   5.675   2.850  0.1655 -0.0373 -0.0748
 8416W        W24225   2.171  12.753   0.932 -0.3177 -0.2597 -0.5334
 8417W        W24226   4.296  16.566   1.947 -0.1709  0.2208 -0.1576
 8418W        W24227  18.003  14.479   2.054  0.0445  0.0812  0.0697
 8419W        W24228   1.817   3.912  12.364  0.0271 -0.0770  0.1086
 8420W        W24229  11.492  11.079   3.828  0.0839 -0.2032  0.2583
 8421W        W24230   6.968   9.616  14.146  0.1978  0.5052  0.0287
 8422W        W24231   7.701   4.874   0.397 -0.3234  0.1399  0.1197
 8423W        W24232  11.215   1.861   1.541  0.1419  0.1837  0.1437
 8424W        W24233   3.192   6.632  12.180 -0.2055  0.1081 -0.2140
 8425W        W24234   3.560   0.371  11.606  0.1589  0.0455 -0.1302
 8426W        W24235  14.050  17.474   2.799 -0.0301  0.1166 -0.3696
 8427W        W24236   9.178   7.229   0.476  0.1438  0.0803 -0.0633
 8428W        W24237   7.543   0.007  15.259 -0.0123  0.2823  0.0805
 8429W        W24238  12.607  12.022  16.059 -0.2167 -0.2638  0.4396
 8430W        W24239  12.282   9.692  13.869 -0.2372 -0.0663  0.0102
 8431W        W24240   0.707   8.024   5.699  0.0697 -0.1682 -0.2803
 8432W        W24241  13.167   0.317   4.690 -0.3868 -0.0802 -0.2787
 8433W        W24242  13.780  11.310  13.645 -0.1655  0.1515 -0.0261
 8434W        W24243  10.025  15.257   1.962  0.1850  0.3895  0.1307
 8435W        W24244  11.301  10.851   2.736  0.1003 -0.3360 -0.0492
 8436W        W24245   9.551   7.744   0.452 -0.3745  0.3142 -0.0862
 8437W        W24246  14.736  15.434   0.538 -0.0641 -0.1445 -0.0174
 8438W        W24247  16.213   8.429  11.034  0.0778 -0.0293 -0.3355
 8439W        W24248  11.511  15.785  14.336 -0.0360 -0.2833  0.0589
 8440W        W24249   6.507   2.861  12.477  0.1339 -0.3549  0.0011
 8441W        W24250   0.251   0.641   1.924 -0.4376  0.1634  0.1148
 8442W        W24251   4.200  12.036  10.300 -0.2567 -0.0426  0.3251
 8443W        W24252  17.744   0.667  12.824 -0.0892 -0.1677 -0.2259
 8444W        W24253   9.273  16.676  15.690 -0.0650 -0.3516  0.1546
 8445W        W24254   5.842   9.766   3.097 -0.1181 -0.2391 -0.0389
 8446W        W24255  17.595  11.930  12.143  0.0490 -0.0023  0.1101
 8447W        W24256  13.167   9.805  13.317  0.1730  0.1258  0.3204
 8448W        W24257  14.328  17.890   1.304 -0.2495  0.3465  0.1436
 8449W        W24258  14.710   6.520   3.644 -0.0851  0.0750  0.5774
 8450W        W24259   1.987  10.602   4.326 -0.1246  0.2404  0.0924
 8451W        W24260   6.482   2.077  15.862 -0.2134 -0.3017 -0.0695
 8452W        W24261   4.577  10.321  14.363  0.0421 -0.3044  0.2933
 8453W        W24262   4.602   1.124  15.197  0.0108  0.3929 -0.0070
 8454W        W24263   9.465  18.080  12.766  0.0205  0.0642 -0.1263
 8455W        W24264   8.412  18.011   0.681 -0.1887  0.1546 -0.2284
 8456W        W24265  14.707   6.596   1.631  0.1752 -0.2337  0.1341
 8457W        W24266  12.004   2.738   2.222  0.0171 -0.0562  0.2773
 8458W        W24267   4.745  12.628   5.124 -0.0558  0.0309 -0.1055
 8459W        W24268   0.530  16.147   1.684  0.1038 -0.0139 -0.0905
 8460W        W24269  12.479  11.710  11.486  0.0605  0.3588 -0.2462
 8461W        W24270  15.531   9.807  14.701  0.0542 -0.1634 -0.0570
 8462W        W24271  17.040   9.874   2.856 -0.0301  0.0462 -0.0621
 8463W        W24272  14.666   8.741   1.944  0.2622  0.2447  0.1728
 8464W        W24273  12.075   7.658  10.719  0.0890  0.0900  0.1342
 8465W        W24274  15.276  13.999  14.898  0.4578 -0.2751 -0.1862
 8466W        W24275   3.299  11.294   1.521 -0.2393 -0.0718 -0.0608
 8467W        W24276   9.235   9.581   1.026  0.1537  0.0255 -0.0245
 8468W        W24277   6.268  18.054   4.276 -0.0333  0.3149 -0.3053
 8469W        W24278  18.184   8.426  13.878 -0.1144  0.2409  0.1338
 8470W        W24279   6.522   0.429   0.806 -0.0189 -0.2284  0.0579
 8471W        W24280   5.032   8.198  12.514 -0.1283  0.1405 -0.3392
 8472W        W24281   8.181  17.072   0.787 -0.3356  0.0947 -0.3648
 8473W        W24282   3.809   9.824   3.911 -0.0360  0.1106  0.3665
 8474W        W24283   9.189   6.102  15.538  0.0956 -0.3928 -0.1395
 8475W        W24284  14.608   2.432   5.084  0.0779 -0.3080 -0.0835
 8476W        W24285   5.943  10.012   2.020  0.0745  0.0177 -0.1348
 8477W        W24286   5.951   5.981  15.085  0.1561  0.0863  0.0043
 8478W        W24287  16.184  16.605  11.938  0.1686  0.1956  0.0551
 8479W        W24288  11.572  11.028   3.248  0.2023 -0.1187 -0.0018
 8480W        W24289  10.151   9.151  15.046  0.3465 -0.0730  0.1714
 8481W        W24290   7.370  13.056   1.387 -0.3415  0.2021 -0.0134
 8482W        W24291   1.801   3.410  12.053  0.1567 -0.0159 -0.1052
 8483W        W24292  13.705   7.814  11.808  0.1390 -0.1958  0.3475
 8484W        W24293   7.608  16.743   5.139 -0.1492 -0.1778  0.0783
 8485W        W24294   3.159  16.399  12.314  0.1069  0.2463  0.0001
 8486W        W24295   0.552  10.388   3.499 -0.4852 -0.1102  0.1434
 8487W        W24296   4.922   6.101  14.929 -0.0502  0.0855  0.0775
 8488W        W24297   3.416   0.143  15.253 -0.2345  0.3572 -0.3214
 8489W        W24298  10.783   7.509  13.565 -0.0967 -0.0072  0.0745
 8490W        W24299   8.402  11.671   3.530 -0.0861 -0.4548  0.2093
 8491W        W24300   5.327   4.746  15.537  0.0152  0.0804 -0.1198
 8492W        W24301   9.120   9.472   3.622 -0.2703 -0.0843  0.2968
 8493W        W24302  11.337   9.453   0.228 -0.0432 -0.1281  0.1420
 8494W        W24303   5.049   5.350   0.972 -0.0402  0.0149  0.1170
 8495W        W24304  16.458   6.685   0.089  0.1629 -0.0151 -0.1032
 8496W        W24305   4.413  14.009   1.251 -0.0323 -0.3397 -0.1493
 8497W        W24306  10.098   2.573   4.463  0.0727  0.2912 -0.3490
 8498W        W24307   3.665  10.770  13.705 -0.1304  0.2491 -0.1060
 8499W        W24308   1.379   0.734  15.915  0.0349 -0.0503 -0.0345
 8500W        W24309   5.567   2.725   1.711 -0.0601  0.2547  0.3957
 8501W        W24310  12.749   8.085  11.851 -0.2655 -0.1379  0.3320
 8502W        W24311   0.957   3.992   0.102  0.1062  0.0652  0.0071
 8503W        W24312   0.060   1.862  12.032  0.0244  0.0557  0.2721
 8504W        W24313   4.246   9.773   5.197  0.2110  0.0161  0.1690
 8505W        W24314  16.994   4.693   5.008  0.0468  0.4545 -0.0134
 8506W        W24315   2.297  10.737  11.664 -0.0165  0.3009  0.0875
 8507W        W24316   3.493  16.534   2.226  0.2719 -0.1785 -0.0633
 8508W        W24317  11.389   2.130   3.976  0.2232  0.1413  0.2123
 8509W        W24318   7.845   4.716   3.261  0.3259  0.3160  0.0889
 8510W        W24319  12.556   0.200  11.923  0.1276 -0.1406  0.2365
 8511W        W24320  10.990  11.053   1.601 -0.0067  0.2746  0.0350
 8512W        W24321  10.650  11.483  16.007  0.0142 -0.2312 -0.0688
 8513W        W24322   7.527  13.170   4.574  0.1126 -0.1151 -0.2158
 8514W        W24323   4.750   2.700   2.772  0.6300  0.0265  0.0320
 8515W        W24324  10.094   8.872  15.455 -0.1994 -0.0717  0.2744
 8516W        W24325   7.666  13.278  13.847  0.0396 -0.0025  0.1908
 8517W        W24326  12.737   3.132   3.241  0.0097  0.1567  0.3983
 8518W        W24327  10.147   0.842  13.922 -0.3412 -0.1916  0.5692
 8519W        W24328  11.227   3.631  10.612 -0.0456  0.1541 -0.1919
 8520W        W24329   4.420   2.761   3.154  0.1438  0.2198 -0.1279
 8521W        W24330  16.491  16.250  15.174 -0.0787 -0.1299 -0.6167
 8522W        W24331   3.374  15.807   2.032 -0.0432 -0.3069  0.1182
 8523W        W24332   9.502  17.978   3.791  0.0997  0.1449  0.0237
 8524W        W24333   0.367   4.635   2.469  0.0604 -0.0405 -0.0565
 8525W        W24334   7.785  14.288   4.733 -0.2291  0.2152  0.0637
 8526W        W24335   2.704   5.423  12.025  0.2478  0.1628  0.0608
 8527W        W24336  16.519  17.491  13.536 -0.2716  0.2116  0.0540
 8528W        W24337   0.594   1.062  13.520 -0.0345  0.0697  0.0928
 8529W        W24338   7.095  14.426   4.297 -0.0345 -0.0028  0.0497
 8530W        W24339  14.091  12.736  15.903  0.0783  0.0124  0.1106
 8531W        W24340  17.662   0.908  13.867 -0.0757  0.3112 -0.2818
 8532W        W24341   8.348  10.592   3.241  0.1092 -0.5514 -0.2130
 8533W        W24342   7.580  12.808  15.850 -0.0171 -0.2178  0.1477
 8534W        W24343   7.971   6.240   0.172  0.3441  0.0418  0.1719
 8535W        W24344  17.744   7.977   6.270 -0.2369  0.2983  0.2445
 8536W        W24345   5.528   4.869  16.309 -0.3178  0.4182 -0.0686
 8537W        W24346   7.215  14.238   2.399  0.1081  0.1315 -0.0833
 8538W        W24347  13.692   7.728   4.685 -0.1964  0.2082  0.2733
 8539W        W24348  12.817   1.156   0.645  0.0038 -0.1366  0.0819
 8540W        W24349  14.577   2.172  14.856 -0.1254 -0.0145 -0.1764
 8541W        W24350  11.500  11.167  15.241  0.1042  0.0007  0.0952
 8542W        W24351  16.610  11.325  13.799  0.1638  0.1508  0.3614
 8543W        W24352  13.928   9.104   9.407 -0.0604 -0.1727 -0.2440
 8544W        W24353  14.546   8.311  12.846  0.0806  0.1557 -0.1606
 8545W        W24354  11.214   7.431   2.600 -0.0776  0.2964  0.0417
 8546W        W24355   9.395   4.748  14.818 -0.0772  0.1629  0.2480
 8547W        W24356   9.917   0.861   0.204  0.2503 -0.0635 -0.2118
 8548W        W24357   7.482  16.381   4.694  0.5704 -0.1217  0.0281
 8549W        W24358   6.169  17.556  10.080  0.1316 -0.3831  0.1214
 8550W        W24359  15.701  17.968   1.791  0.0159  0.0128  0.0409
 8551W        W24360  16.635   5.868   4.175 -0.0600 -0.2785 -0.0518
 8552W        W24361   8.306  12.926  12.648  0.0136 -0.3216 -0.2398
 8553W        W24362  18.184   6.826   2.994 -0.0605  0.0685 -0.0057
 8554W        W24363   6.516  16.941   3.273  0.0902 -0.0333  0.0349
 8555W        W24364   7.351   1.740   9.666  0.1861  0.0567 -0.0620
 8556W        W24365   6.264  11.244   3.141  0.2149 -0.2853  0.0149
 8557W        W24366  17.584  14.420   2.816 -0.0319 -0.0126 -0.0037
 8558W        W24367   3.570   2.380   3.977  0.3705  0.1250 -0.1284
 8559W        W24368   8.332  12.091  11.669  0.2454 -0.0401 -0.0269
 8560W        W24369   9.257  13.567  16.069  0.1415 -0.0796 -0.2665
 8561W        W24370   6.260   7.934  11.318  0.2471  0.0215  0.0729
 8562W        W24371  14.365  16.893   1.087 -0.2592  0.2199 -0.1296
 8563W        W24372   6.681  14.579   0.324  0.0720 -0.3096 -0.0684
 8564W        W24373   4.540  13.276   2.821 -0.2765 -0.1694 -0.0179
 8565W        W24374   8.025   9.561  15.485  0.0656  0.0021  0.1121
 8566W        W24375   8.714   8.111   0.153 -0.0411  0.0210 -0.1385
 8567W        W24376  12.515  10.559  13.572  0.1871  0.0660 -0.1585
 8568W        W24377  14.322  11.367   1.042  0.0693  0.0997  0.2758
 8569W        W24378   5.744  17.497   5.219 -0.3449 -0.1277 -0.1093
 8570W        W24379  12.585   9.903  12.030  0.0709  0.0036  0.1633
 8571W        W24380   1.906   4.133  13.091  0.0321 -0.0901  0.0080
 8572W        W24381   0.480   2.319   3.325  0.1234  0.2281  0.1670
 8573W        W24382   4.190   1.929  12.642  0.1468 -0.2651 -0.1685
 8574W        W24383   4.825   7.045   0.348 -0.0704 -0.1611  0.2761
 8575W        W24384   8.052  14.919  11.660  0.3268  0.3671 -0.0426
 8576W        W24385   8.590   3.748  15.207 -0.0002 -0.0673  0.2139
 8577W        W24386  10.900   1.413   2.952  0.0669  0.2787  0.1171
 8578W        W24387  14.961   9.655   3.794  0.1107 -0.2078  0.2965
 8579W        W24388   3.044  14.323   0.028  0.3128 -0.0091  0.2775
 8580W        W24389   7.224   5.122   0.340 -0.1616  0.0253 -0.0450
 8581W        W24390  10.981  14.882  13.060  0.0511  0.3205 -0.0519
 8582W        W24391   3.316  17.196   3.481 -0.0873  0.1719 -0.1423
 8583W        W24392   6.493   3.859   3.947  0.6318  0.1445  0.3481
 8584W        W24393   0.335   6.710   0.873  0.2779 -0.0813 -0.0490
 8585W        W24394  10.699  11.046   2.692 -0.3024  0.1086 -0.1253
 8586W        W24395   6.439   5.489  12.973  0.1301 -0.3001 -0.2293
 8587W        W24396   5.194  15.383   1.118 -0.1420 -0.1131  0.2613
 8588W        W24397  17.552  15.559  13.142 -0.6672 -0.3067 -0.0704
 8589W        W24398   9.725   2.813  13.095  0.0116  0.0091  0.2694
 8590W        W24399   5.476   6.214  15.195  0.1740  0.0342 -0.2379
 8591W        W24400   4.011  15.361  12.861  0.1125 -0.0290 -0.0979
 8592W        W24401  13.152   9.809   4.439 -0.2883 -0.1659  0.0610
 8593W        W24402   3.364  10.899  11.661 -0.2924 -0.1522 -0.0888
 8594W        W24403   4.162   3.791  13.965  0.1118  0.1995 -0.0785
 8595W        W24404   4.666  17.774  16.263  0.0599 -0.4937 -0.1749
 8596W        W24405  16.031   0.706   0.466  0.0206 -0.3219  0.0872
 8597W        W24406   4.515   0.673  12.716  0.1090  0.0664 -0.0021
 8598W        W24407  18.008   3.156   2.669 -0.0023 -0.1064  0.1701
 8599W        W24408  12.811   5.295  13.651 -0.2855  0.1631 -0.2284
 8600W        W24409  11.563  15.820   0.137 -0.1768 -0.2717 -0.3226
 8601W        W24410   5.959   3.450  11.769 -0.1059 -0.0981 -0.0671
 8602W        W24411  16.691  13.925   3.145  0.1350  0.0037 -0.1975
 8603W        W24412   5.752   1.744   3.477 -0.1737  0.1096  0.0281
 8604W        W24413  14.563  11.918   4.268  0.0141 -0.2779 -0.0249
 8605W        W24414  10.202   0.583   3.617  0.0070 -0.1425 -0.0012
 8606W        W24415  16.574   5.426   4.615 -0.2066 -0.2718 -0.0986
 8607W        W24416   8.318  14.296  15.637  0.1890  0.0725 -0.1979
 8608W        W24417  17.385  14.950   2.676 -0.0980 -0.0834  0.0693
 8609W        W24418   0.317  13.742  14.748  0.3863 -0.1855 -0.0403
 8610W        W24419  11.112   9.287  14.852 -0.0326 -0.1176 -0.0084
 8611W        W24420   2.237   1.723  13.615  0.1174  0.1529 -0.1416
 8612W        W24421   2.881  17.301   0.706  0.2453 -0.2987 -0.1039
 8613W        W24422  16.595  12.110   2.139  0.0382  0.1448  0.1794
 8614W        W24423   8.030   3.023   0.333 -0.1525 -0.2897 -0.0345
 8615W        W24424   9.841   2.162  11.587  0.0039 -0.2053  0.0874
 8616W        W24425  17.481   3.490  11.072 -0.0076  0.1761  0.1203
 8617W        W24426   8.936  10.331  14.658 -0.0175  0.0904 -0.1094
 8618W        W24427  13.122  16.742   0.737  0.2055 -0.0546 -0.0791
 8619W        W24428   3.858   9.022   2.022 -0.0797 -0.2157 -0.0052
 8620W        W24429   5.811   0.786  12.502  0.0158 -0.0164 -0.1571
 8621W        W24430  17.938  16.206  14.380 -0.0131 -0.1020 -0.0234
 8622W        W24431  11.688   5.420   2.617 -0.2397 -0.2777 -0.2059
 8623W        W24432  11.485  15.177  13.593  0.1067 -0.1980 -0.2123
 8624W        W24433  13.535   4.054  15.623  0.2622 -0.0707  0.3051
 8625W        W24434   8.522   6.879   3.207  0.0309 -0.1559  0.1614
 8626W        W24435   1.688  14.542   3.694  0.3621 -0.0151 -0.0163
 8627W        W24436   0.576  10.266   3.974  0.1561 -0.0382  0.0696
 8628W        W24437   0.069  12.749  14.388  0.1306  0.1346 -0.1231
 8629W        W24438  12.077   5.166   4.765 -0.1095  0.0957  0.1929
 8630W        W24439  11.169   4.880   4.442 -0.0100  0.1791 -0.2096
 8631W        W24440   3.079   5.302   0.323 -0.1415 -0.1542  0.0209
 8632W        W24441   9.611  12.174   5.061 -0.0994 -0.0923 -0.2318
 8633W        W24442   0.341  17.920  14.723 -0.0594 -0.1453  0.0823
 8634W        W24443  11.240  10.425   4.694  0.0089  0.0870  0.2297
 8635W        W24444   8.334  13.159  15.200 -0.1888 -0.0015  0.1608
 8636W        W24445  15.699  16.738  14.495  0.1133  0.2373 -0.0841
 8637W        W24446   8.457   4.333   3.875  0.2515 -0.2981  0.1051
 8638W        W24447   0.746   4.015   3.202 -0.0775 -0.4194 -0.0152
 8639W        W24448  16.103  12.721  10.415 -0.1534  0.0343 -0.0881
 8640W        W24449   4.199   0.738   1.747 -0.2969  0.3570  0.0304
 8641W        W24450   9.668  10.141   2.316 -0.0105 -0.0759 -0.0154
 8642W        W24451   4.586  16.310   3.895  0.0385 -0.3293  0.0717
 8643W        W24452  14.359   6.132   3.478  0.2766 -0.0020  0.2257
 8644W        W24453  11.932   8.544   2.098  0.1035  0.0309 -0.0293
 8645W        W24454  15.904  14.352   0.332 -0.0044 -0.1977  0.1461
 8646W        W24455  17.851  10.861   2.632 -0.0996 -0.3948 -0.2383
 8647W        W24456   3.926   1.450   4.535  0.0403 -0.0000 -0.1385
 8648W        W24457  17.882  18.202   0.677  0.1598 -0.0024 -0.0514
 8649W        W24458  11.323   0.781   1.966  0.0481 -0.3238 -0.2574
 8650W        W24459  11.494   7.272   5.443  0.2722  0.0199  0.0684
 8651W        W24460   3.370  13.948  12.897  0.0227 -0.2009 -0.2049
 8652W        W24461   6.889  10.441  14.988 -0.0274  0.2599  0.1599
 8653W        W24462  13.666   8.292   3.806  0.2349 -0.1420  0.0268
 8654W        W24463  16.333  17.971   2.526  0.0322 -0.4402  0.1050
 8655W        W24464   1.705   5.475   1.633 -0.0082 -0.0630  0.3793
 8656W        W24465   3.603  17.094   4.486 -0.0220  0.1357  0.0370
 8657W        W24466  16.901  10.903   0.330  0.2278 -0.2854  0.2672
 8658W        W24467  17.610   9.901  14.740  0.0005 -0.1450 -0.0826
 8659W        W24468  16.255  17.654  16.165  0.2650 -0.1930 -0.1205
 8660W        W24469   7.843   7.608   6.129  0.0980 -0.1432  0.1047
 8661W        W24470  13.338   7.083   1.877  0.0646 -0.1884 -0.0772
 8662W        W24471   5.919   3.473  13.208  0.0662 -0.2000  0.2577
 8663W        W24472   9.181  14.662  15.580 -0.1767  0.4277 -0.0377
 8664W        W24473  10.071  17.551   4.603 -0.6592  0.1038  0.0377
 8665W        W24474   8.429   0.717   5.071 -0.1117  0.0935  0.1997
 8666W        W24475   0.431   2.154  11.733 -0.3210 -0.2231 -0.0201
 8667W        W24476  12.792  17.107   0.472 -0.0056 -0.2164 -0.1542
 8668W        W24477   8.992   9.640   4.499 -0.1857  0.0279  0.1044
 8669W        W24478   4.597  15.685   0.277  0.0589 -0.0527 -0.1635
 8670W        W24479  12.689   5.974   1.314  0.2475  0.1292 -0.1191
 8671W        W24480  17.524   8.216  14.937 -0.0826  0.1837 -0.0284
 8672W        W24481   1.255   1.215   5.366 -0.0702  0.1385  0.0190
 8673W        W24482  13.144  13.425   4.183  0.1005  0.2700 -0.1368
 8674W        W24483   8.643   7.517   4.554  0.1128  0.1731 -0.1076
 8675W        W24484  15.649   3.079  12.189  0.0687 -0.0031  0.1139
 8676W        W24485  14.279   2.612  11.783  0.1964  0.1853 -0.1219
 8677W        W24486  11.060  11.819   4.138 -0.1763 -0.2037 -0.0575
 8678W        W24487  11.878  12.202  14.118 -0.0990  0.1776 -0.2623
 8679W        W24488  12.266  14.973  15.292 -0.1701  0.0236 -0.4401
 8680W        W24489   7.500   4.214   3.243 -0.0709  0.0477 -0.0266
 8681W        W24490  13.667  17.582  13.007  0.2808 -0.3803  0.1216
 8682W        W24491   9.915  17.616   0.679 -0.0116  0.1843  0.1369
 8683W        W24492   3.543  16.569   4.241  0.3458  0.0679 -0.1606
 8684W        W24493   0.951   0.859  12.164 -0.2142  0.3142 -0.3194
 8685W        W24494  10.727   2.526  15.124 -0.1751 -0.1415  0.0161
 8686W        W24495  14.845  15.040  13.461  0.1474 -0.4824 -0.1267
 8687W        W24496  13.578  14.225   5.270 -0.1894  0.2084 -0.0253
 8688W        W24497  12.382  17.697  13.568 -0.1509 -0.0438  0.0303
 8689W        W24498   5.741   8.982   4.994  0.2025  0.4576 -0.0592
 8690W        W24499   2.702   7.234  14.532  0.2965  0.0213 -0.1932
 8691W        W24500  17.539   5.641   0.572 -0.1945  0.1604 -0.0660
 8692W        W24501   0.356   7.639   2.822 -0.1808 -0.0060 -0.0409
 8693W        W24502   0.698   2.699  14.038  0.1242 -0.1561  0.0464
 8694W        W24503   3.003   1.482   2.980  0.0869 -0.2408  0.1200
 8695W        W24504   5.753   7.547  12.992  0.3133 -0.2327  0.0488
 8696W        W24505   6.067   5.767  12.756  0.0333 -0.2549 -0.0467
 8697W        W24506   1.217   3.076   0.223  0.0499  0.0590 -0.1471
 8698W        W24507   4.549  17.803   3.572  0.1347 -0.1048 -0.3099
 8699W        W24508   3.992   1.698  11.073 -0.1263  0.1970 -0.0192
 8700W        W24509  17.133  14.445  12.483 -0.0507 -0.1696 -0.0698
 8701W        W24510  11.994  15.435  13.081 -0.1329  0.3149 -0.0276
 8702W        W24511   7.018  13.794   0.648  0.0786  0.1039  0.0733
 8703W        W24512  12.850   9.413   0.954 -0.1299  0.0922  0.1739
 8704W        W24513   0.486  16.392  16.340  0.1112 -0.2259  0.1426
 8705W        W24514   2.801   0.343   1.647  0.1653 -0.1608 -0.3247
 8706W        W24515   7.718  17.618   0.214 -0.1421  0.2326  0.0109
 8707W        W24516   4.145   3.911  12.093  0.0089 -0.3473 -0.0378
 8708W        W24517  11.419  13.395  14.301 -0.1991 -0.1468 -0.1197
 8709W        W24518   1.379  11.842  11.719  0.3485 -0.0975  0.1188
 8710W        W24519   9.768   2.269   1.326 -0.2547  0.2265  0.3766
 8711W        W24520   5.955   7.059   5.746 -0.2475 -0.0294 -0.2164
 8712W        W24521   4.256   5.804   4.302  0.1627  0.0983  0.1303
 8713W        W24522   8.969  15.776  14.863 -0.2960 -0.3809 -0.4111
 8714W        W24523   9.727   0.862   5.995 -0.0591 -0.0538 -0.0199
 8715W        W24524   1.898   3.240  13.313  0.1167 -0.2045  0.3383
 8716W        W24525   2.723  15.852   4.984  0.0417  0.2064 -0.2370
 8717W        W24526  11.915  16.865   2.549  0.0897  0.2201 -0.1204
 8718W        W24527  14.682  15.119  14.269  0.0933 -0.0051  0.0316
 8719W        W24528  18.195   2.550  14.254 -0.1567  0.1995 -0.3215
 8720W        W24529  12.159   3.602  11.665 -0.1974  0.3245  0.1763
 8721W        W24530   5.321   3.537   1.141 -0.3263  0.1829 -0.0085
 8722W        W24531   1.369  17.835  15.292 -0.0861  0.2364  0.0258
 8723W        W24532   0.748  11.656   0.261  0.0222  0.2034 -0.2117
 8724W        W24533   3.523  15.686  14.782  0.0166 -0.0881 -0.2677
 8725W        W24534   8.779   9.191   2.227 -0.1677  0.1973 -0.0178
 8726W        W24535  11.590   4.095   3.048 -0.1155  0.4325  0.0852
 8727W        W24536   8.699  15.625  12.334  0.3261  0.3324 -0.1197
 8728W        W24537  13.999  17.042  14.895 -0.0954  0.0017 -0.1541
 8729W        W24538   2.974  10.554   5.403  0.2966 -0.0295  0.3547
 8730W        W24539  16.340   1.554   2.915 -0.1759 -0.1890 -0.1184
 8731W        W24540  11.098   8.336   1.432 -0.0694 -0.1369 -0.0241
 8732W        W24541   2.434  16.973   4.982 -0.3992  0.1602 -0.0417
 8733W        W24542   1.645   6.894   1.103 -0.0045  0.4602 -0.1395
 8734W        W24543  17.251  12.771  15.345  0.0221 -0.0356 -0.0774
 8735W        W24544   2.574   0.030   4.218  0.1567  0.1792  0.1505
 8736W        W24545   7.035  10.073  13.644 -0.2672  0.1306 -0.0836
 8737W        W24546  15.112   1.126  15.567 -0.4668  0.0161  0.2800
 8738W        W24547  12.642  17.430   5.132  0.1451  0.1528  0.1243
 8739W        W24548  12.125  17.051   3.892 -0.0109  0.2113  0.2157
 8740W        W24549   8.187   8.895   5.007  0.2639  0.0169 -0.0141
 8741W        W24550  11.458  13.882  12.716 -0.2925 -0.2421 -0.1381
 8742W        W24551   4.515  10.550  15.363  0.5482  0.2892 -0.2545
 8743W        W24552   2.068  11.075   2.883 -0.1959 -0.0217 -0.3577
 8744W        W24553   0.195   8.780   1.266  0.0917 -0.0316  0.1198
 8745W        W24554  15.400   6.180  12.881  0.0091  0.1415 -0.4044
 8746W        W24555  17.914   9.445  12.687  0.0491  0.0507  0.1795
 8747W        W24556  17.484  15.089   0.850  0.1541  0.0847 -0.1298
 8748W        W24557   6.204   5.925   4.881 -0.1861  0.0816  0.0756
 8749W        W24558  16.185   9.371   2.372  0.2119 -0.2201 -0.0823
 8750W        W24559   3.269   2.101   3.560  0.0111  0.0272  0.1835
 8751W        W24560  14.444  17.090   6.084 -0.0857  0.1140  0.1431
 8752W        W24561  11.456   1.572   4.889 -0.0094  0.0962  0.0524
 8753W        W24562  11.824  11.321  16.290  0.3885  0.0723 -0.1240
 8754W        W24563   7.652   5.361  15.103 -0.0269  0.0063 -0.1228
 8755W        W24564  17.496   2.047  15.916  0.3571  0.0860  0.2662
 8756W        W24565   4.253   5.543   5.293 -0.1871 -0.0945 -0.2379
 8757W        W24566  16.637   1.077   4.971  0.0412 -0.0708  0.1332
 8758W        W24567   7.955  12.503   5.682  0.2134 -0.0467  0.2280
 8759W        W24568   5.548   1.100  15.086 -0.0532  0.0253  0.4251
 8760W        W24569  17.522  16.744   0.345  0.0296  0.0238  0.1959
 8761W        W24570  17.146   7.745   0.799  0.2112  0.1842  0.2169
 8762W        W24571  11.089  16.664  12.356 -0.1769 -0.0218  0.0970
 8763W        W24572   1.104  14.718  12.769  0.0454 -0.2738 -0.1096
 8764W        W24573  16.136   1.162  15.362 -0.0148 -0.5510  0.2459
 8765W        W24574   5.311  17.587  15.163  0.0984  0.1595 -0.3065
 8766W        W24575   8.615  10.736   3.658  0.1221 -0.1570  0.0115
 8767W        W24576  13.972  13.584   1.968 -0.1758 -0.0112  0.1465
 8768W        W24577  16.556  14.889  11.357 -0.0081 -0.0007  0.3850
 8769W        W24578   7.860  13.995  14.205 -0.1094  0.3405 -0.0777
 8770W        W24579  15.863  14.513   4.192 -0.1107 -0.3179 -0.2750
 8771W        W24580  10.714  16.121  11.585  0.1823 -0.2948 -0.1044
 8772W        W24581   5.396  10.690  14.946  0.1299 -0.2380 -0.1990
 8773W        W24582  13.299   9.427   4.754  0.1145  0.2151  0.1910
 8774W        W24583   4.807  11.717   3.629  0.2086  0.1483 -0.0216
 8775W        W24584  10.839   8.210   2.277  0.0277  0.3192  0.4511
 8776W        W24585   0.794   2.265   4.152  0.0444 -0.4651 -0.1650
 8777W        W24586   7.061  11.961  15.974 -0.1372  0.3508  0.1367
 8778W        W24587  10.553   4.384  15.087  0.0849  0.0399 -0.2201
 8779W        W24588   4.982  11.897  14.285 -0.4767  0.0406 -0.0408
 8780W        W24589  17.417   0.588  15.864  0.0038 -0.0336 -0.2593
 8781W        W24590   2.007  12.653   0.317 -0.1534 -0.1009 -0.0743
 8782W        W24591  13.845  15.241   1.099  0.1757 -0.0474  0.0232
 8783W        W24592   7.449  13.627  16.181 -0.0904  0.0587  0.3339
 8784W        W24593  10.432   7.521   2.156 -0.3564  0.1461 -0.0604
 8785W        W24594   9.345  12.997  13.994  0.2454  0.0249 -0.0697
 8786W        W24595  16.451   0.903   3.428 -0.1223 -0.3167 -0.3043
 8787W        W24596   9.919  16.423  14.923  0.1070 -0.0149 -0.1334
 8788W        W24597   8.334  10.422  12.771  0.1994 -0.1576 -0.2459
 8789W        W24598  12.116  17.547   5.785  0.1588 -0.1674 -0.0647
 8790W        W24599  11.086  13.083  15.265  0.2983  0.0829 -0.1020
 8791W        W24600   8.197  11.404   2.241 -0.2974 -0.2525  0.0769
 8792W        W24601   0.737  13.629   4.542  0.1166 -0.2058  0.1983
 8793W        W24602   5.087  16.462   3.179 -0.0156 -0.3158 -0.0775
 8794W        W24603   2.967  13.612   4.853 -0.0487  0.2569  0.3497
 8795W        W24604   0.824   9.708  13.450 -0.1372  0.3291 -0.1924
 8796W        W24605   9.802  11.500   3.595  0.1559 -0.0391 -0.1537
 8797W        W24606   1.074   8.027   2.949 -0.0126 -0.0764  0.0465
 8798W        W24607   1.586  17.968   0.265 -0.0314 -0.3615 -0.1901
 8799W        W24608   9.249   0.236   4.581  0.1486 -0.0926  0.4560
 8800W        W24609   8.799   8.029   2.341  0.0603 -0.1122  0.0524
 8801W        W24610  11.740   4.065  13.960  0.2242 -0.0203  0.0116
 8802W        W24611   5.412   1.957   1.291 -0.3358 -0.2070  0.0329
 8803W        W24612   3.253  15.713  15.231 -0.4812  0.2676  0.1802
 8804W        W24613   9.891   4.984  12.927  0.1573 -0.2983  0.1865
 8805W        W24614  17.380  12.280   1.789  0.1429 -0.3811  0.0525
 8806W        W24615   8.419   6.522   4.083 -0.2106 -0.0747 -0.1494
 8807W        W24616   4.659   3.334  11.350  0.0350  0.1560 -0.1265
 8808W        W24617   2.216   8.878  16.279 -0.1521  0.1219  0.1705
 8809W        W24618   1.169  10.217   2.070 -0.1341  0.1225 -0.1694
 8810W        W24619  11.049   2.235  14.759  0.0363 -0.1364  0.2765
 8811W        W24620  14.989   8.515  11.994  0.0209  0.1349  0.1269
 8812W        W24621  15.823  14.541   3.210  0.0125 -0.2819  0.1727
 8813W        W24622  13.419   7.446  14.039 -0.4731  0.0587  0.1689
 8814W        W24623   8.280   0.848  15.381 -0.0188  0.1622 -0.1485
 8815W        W24624  13.654   1.015   2.516 -0.0857  0.0333 -0.0995
 8816W        W24625   6.952   7.027  15.808 -0.0683  0.2904 -0.0209
 8817W        W24626  14.082   9.026   0.775  0.2585 -0.0919 -0.1414
 8818W        W24627   9.146   4.136  11.446  0.2149  0.0216  0.0485
 8819W        W24628  16.424   0.798  13.686  0.0942  0.2931  0.1674
 8820W        W24629   6.687   1.832   1.264  0.3207 -0.0814  0.0892
 8821W        W24630  16.999  17.257   5.804  0.2086  0.2613 -0.1343
 8822W        W24631  11.999   8.378  11.187  0.0262  0.1338 -0.2445
 8823W        W24632   0.807   5.314  13.803  0.0622 -0.0227  0.0673
 8824W        W24633  16.965   1.806  14.953 -0.0678 -0.0372  0.0510
 8825W        W24634   4.525  12.196  14.595 -0.1155 -0.2563 -0.0086
 8826W        W24635  14.296  18.007   3.903 -0.0509  0.1753  0.4910
 8827W        W24636   9.555   9.776   3.695 -0.2509 -0.1377 -0.2638
 8828W        W24637  14.496   9.809  16.131 -0.1575 -0.1354 -0.2880
 8829W        W24638   6.679   1.291  12.091  0.1682 -0.1074  0.1097
 8830W        W24639  14.359   8.225   2.807 -0.0358 -0.1342 -0.0090
 8831W        W24640  12.898   4.042  11.168  0.0084 -0.0107  0.1545
 8832W        W24641   9.013   2.658  12.367 -0.0635  0.0326  0.0619
 8833W        W24642  16.470   4.449  13.595 -0.0178 -0.0986  0.0291
 8834W        W24643   9.829  12.789   3.195 -0.2895  0.0877 -0.0412
 8835W        W24644   1.270  17.878   5.130  0.2257 -0.0258 -0.1123
 8836W        W24645  14.258  14.421   4.031  0.0578  0.2594  0.1751
 8837W        W24646  13.936  14.509  13.883 -0.0346  0.0429 -0.5537
 8838W        W24647   3.632   4.459  12.566 -0.0482  0.3516  0.1535
 8839W        W24648   9.871   8.220  13.369  0.0642 -0.0229  0.0500
 8840W        W24649  11.503   8.461   1.668  0.1890 -0.4147  0.0421
 8841W        W24650  16.477   9.346  12.169 -0.1313  0.1507  0.1952
 8842W        W24651   2.623  11.575   2.431  0.1554 -0.1147  0.1717
 8843W        W24652  12.608  16.029  15.912 -0.0258 -0.0767 -0.3486
 8844W        W24653   4.398   9.283   5.173 -0.1832  0.0757  0.1184
 8845W        W24654   7.994   6.968   2.560 -0.3637  0.4372 -0.0814
 8846W        W24655   7.669   2.049   1.850  0.1298 -0.0341  0.3584
 8847W        W24656   7.484  12.584  13.245  0.0175  0.3424  0.1537
 8848W        W24657   6.771   8.483  11.542  0.2615  0.2569 -0.2624
 8849W        W24658   0.771  10.729  15.926 -0.1724  0.3488 -0.1339
 8850W        W24659  14.158  16.282   4.668  0.0679  0.2336  0.2697
 8851W        W24660   8.481  17.018  12.272 -0.0980  0.1308  0.1825
 8852W        W24661   9.000  16.963   1.829  0.0475  0.0659  0.1276
 8853W        W24662   2.254  15.354  15.609  0.0364 -0.0530 -0.1378
 8854W        W24663  10.361  11.009   0.727  0.0758  0.3580  0.3765
 8855W        W24664   0.979   8.780   4.860  0.0875 -0.1856 -0.3591
 8856W        W24665   2.198   2.130  13.335  0.1336  0.0093  0.0973
 8857W        W24666  15.530  14.704   0.317 -0.2598  0.1102  0.0477
 8858W        W24667   2.063   7.881  13.724 -0.0021  0.0925  0.1009
 8859W        W24668   4.187   7.029  13.922  0.0529  0.3615  0.1626
 8860W        W24669   4.264   2.126  14.838 -0.2546  0.0869  0.0870
 8861W        W24670   6.010   0.704  15.738  0.4551 -0.2338  0.1515
 8862W        W24671  13.462   3.322   1.566 -0.2154  0.1293 -0.0064
 8863W        W24672  17.881  13.097   3.736  0.0985 -0.0314  0.0580
 8864W        W24673   6.431   1.338  15.354  0.0619  0.0958  0.2384
 8865W        W24674  13.842   0.612  14.724  0.2350 -0.2106 -0.2615
 8866W        W24675   0.994   9.461   1.228 -0.1893  0.0380  0.1573
 8867W        W24676  12.509   2.191  15.488  0.2376  0.0614  0.0345
 8868W        W24677  10.662   6.836   3.306 -0.1172  0.2694  0.3079
 8869W        W24678   3.653   3.249  15.691  0.0817 -0.0999  0.0272
 8870W        W24679   9.724   9.183  15.949 -0.0455  0.0992  0.1826
 8871W        W24680   7.006  12.065  11.687 -0.0958 -0.1874 -0.0438
 8872W        W24681  16.601   4.658   4.678 -0.0617 -0.0555  0.0110
 8873W        W24682   8.676  10.129   3.877  0.0314  0.0445 -0.0324
 8874W        W24683   4.596  15.812  13.262  0.0956 -0.0919  0.1608
 8875W        W24684  15.418   9.036   5.476 -0.0613  0.4667 -0.1280
 8876W        W24685   6.165  10.357   4.061  0.0548 -0.0896  0.1443
 8877W        W24686  11.489   6.428   1.451 -0.0418  0.4516 -0.0948
 8878W        W24687   2.854  14.824   1.656  0.1184 -0.1569 -0.1024
 8879W        W24688   6.344  16.080   3.567 -0.0822  0.0553 -0.0883
 8880W        W24689   9.567   7.040   4.008 -0.0118  0.0669 -0.1125
 8881W        W24690  12.420   8.463   1.883 -0.4016 -0.0358  0.2214
 8882W        W24691  10.671   1.435   5.908  0.2845  0.0707  0.0855
 8883W        W24692   6.642  15.149   4.838  0.1386 -0.0285 -0.2104
 8884W        W24693   9.727  16.168  12.850  0.0881 -0.3744 -0.4243
 8885W        W24694  18.107   2.750  16.323 -0.0080  0.2471 -0.1287
 8886W        W24695   1.448  11.216   5.436 -0.0202  0.1560  0.2003
 8887W        W24696   4.868  15.793   2.190 -0.0270 -0.1652  0.1445
 8888W        W24697   4.792   0.077  14.828  0.1550 -0.1473 -0.1375
 8889W        W24698  10.165   0.755   2.692 -0.0331  0.3081  0.4699
 8890W        W24699  15.310   9.228   0.042  0.3261 -0.0046 -0.0504
 8891W        W24700   7.045  14.947   5.084 -0.0011  0.2169  0.2063
 8892W        W24701   6.060   3.159   2.284  0.4788 -0.2019 -0.0357
 8893W        W24702   9.014  16.827   6.137  0.0763 -0.4137  0.0487
 8894W        W24703   8.099  13.018   3.398  0.0640  0.2813 -0.0794
 8895W        W24704   5.040  16.930   3.328  0.0441  0.0150  0.2868
 8896W        W24705   4.123   4.874  13.152  0.1132 -0.3843  0.2075
 8897W        W24706  13.101  17.696  12.137  0.1227  0.0372 -0.2965
 8898W        W24707   8.610   7.284  13.263  0.0730 -0.1480 -0.2253
 8899W        W24708  17.764  13.742   3.390 -0.2831  0.1415  0.2637
 8900W        W24709   8.542   1.912   1.374 -0.1102 -0.0105  0.0327
 8901W        W24710   3.361  16.079  11.975 -0.0480 -0.0091 -0.0324
 8902W        W24711   2.617   1.337  16.111  0.1469 -0.0628  0.2035
 8903W        W24712   8.849   2.621   2.606  0.1662 -0.0692 -0.0612
 8904W        W24713   2.914  16.538  12.735 -0.1671  0.0577 -0.1520
 8905W        W24714  13.075   8.292  16.114 -0.1475 -0.0688 -0.1012
 8906W        W24715   3.629  18.060   0.778  0.1675  0.2217 -0.1277
 8907W        W24716   4.274  13.220  16.075 -0.3494 -0.1916 -0.1488
 8908W        W24717  15.337  16.898   5.690  0.1337  0.0267 -0.0794
 8909W        W24718   2.113   7.190  15.081  0.2898  0.2219  0.0670
 8910W        W24719   8.964   9.515   4.942  0.0465 -0.4170 -0.1859
 8911W        W24720   6.507   8.039  15.083 -0.0832  0.0776 -0.2753
 8912W        W24721  16.554   2.518  13.789  0.1041 -0.0217 -0.2304
 8913W        W24722  18.200  16.375  16.051  0.0689 -0.0601  0.2298
 8914W        W24723   4.562  13.699   5.912  0.4274 -0.0597 -0.3311
 8915W        W24724  16.339   5.876   2.201 -0.0116  0.1558 -0.0681
 8916W        W24725  13.149  18.171   0.263  0.2197  0.1997 -0.0442
 8917W        W24726   0.420   7.220  16.327  0.1342  0.0012  0.0081
 8918W        W24727  14.358   5.434  14.620 -0.1329 -0.1188 -0.0412
 8919W        W24728   3.981   7.442  11.473  0.2060 -0.0653 -0.1341
 8920W        W24729   0.789   1.934  15.756  0.1978 -0.0458 -0.0016
 8921W        W24730  11.771   6.098  12.069 -0.1149 -0.1058  0.1026
 8922W        W24731  16.139  11.362   2.300 -0.3133  0.0210  0.1381
 8923W        W24732   1.745   7.787   6.273  0.0296  0.1284  0.0048
 8924W        W24733   9.463  17.061  14.521 -0.2524 -0.0920 -0.2415
 8925W        W24734   8.006   7.944   4.482  0.1033  0.0491  0.3112
 8926W        W24735   9.774   8.497  10.909 -0.1653 -0.1308  0.0875
 8927W        W24736   2.675   8.907   1.049  0.2367  0.3065 -0.3993
 8928W        W24737   1.452  12.557  12.907 -0.3817  0.1797  0.0988
 8929W        W24738   0.575  13.922  15.672  0.3778  0.1447 -0.5164
 8930W        W24739  12.609  13.354  15.394 -0.0530  0.6186 -0.1364
 8931W        W24740   0.494   6.345  14.255 -0.1597 -0.2581 -0.0499
 8932W        W24741   3.139   0.400   3.134 -0.1353 -0.0468  0.1944
 8933W        W24742   8.265   2.655   1.961 -0.0325 -0.2122  0.0563
 8934W        W24743  16.060   0.689   1.828 -0.0088 -0.1218  0.2831
 8935W        W24744   4.478   2.878  12.231  0.1291 -0.0991 -0.0151
 8936W        W24745  10.878  14.672  11.770 -0.1921 -0.1392  0.2000
 8937W        W24746  11.300   0.876  12.172  0.2824 -0.2116 -0.0119
 8938W        W24747  13.748  10.013  13.919 -0.1038  0.1597  0.2706
 8939W        W24748   0.054   7.395   1.638 -0.1444 -0.2511  0.1555
 8940W        W24749   4.442   6.837   3.491 -0.1408  0.1456 -0.0033
 8941W        W24750   6.428  10.259  12.255 -0.0700  0.4517 -0.0641
 8942W        W24751  10.581   8.367   3.661  0.0459 -0.2844 -0.0183
 8943W        W24752  14.674   9.656   0.460  0.0012  0.2597  0.0999
 8944W        W24753   9.372   0.473   4.106 -0.0133 -0.0401 -0.0847
 8945W        W24754   3.523   6.804  16.146 -0.3145 -0.0985 -0.1644
 8946W        W24755  14.557  12.071  10.719  0.0033  0.1775 -0.1488
 8947W        W24756  12.927  16.486  15.105 -0.1235  0.0022  0.1225
 8948W        W24757   2.620   6.850   0.076 -0.3086  0.1237 -0.0868
 8949W        W24758  10.250  15.046  13.790  0.1121  0.2950  0.0569
 8950W        W24759  17.923  15.178   1.692 -0.1084 -0.0969  0.3698
 8951W        W24760  16.048   5.242   4.912  0.0852 -0.2341 -0.1287
 8952W        W24761   5.452  17.208   5.568 -0.2227  0.0547 -0.0344
 8953W        W24762  14.486   5.160   4.658 -0.1397 -0.0864  0.0311
 8954W        W24763  14.895   2.362   3.357  0.1435 -0.2844  0.3710
 8955W        W24764  15.805   2.616  14.935 -0.0736 -0.1933 -0.2656
 8956W        W24765  15.785   1.042  13.080  0.1868 -0.2268 -0.2526
 8957W        W24766   5.863   8.669  16.356  0.2504 -0.3728  0.0020
 8958W        W24767  15.150  12.712   4.054 -0.0547  0.1760  0.1964
 8959W        W24768  15.843   3.803  11.461 -0.0979 -0.1923  0.0746
 8960W        W24769   4.668  16.504  13.021 -0.2124 -0.1798  0.4271
 8961W        W24770  17.391   9.211   2.325 -0.1605  0.0394  0.1715
 8962W        W24771   0.111  10.096   3.597 -0.1055 -0.2937  0.0456
 8963W        W24772  15.784   0.213   0.802  0.1584 -0.2527 -0.0177
 8964W        W24773   0.290   4.118   4.925  0.2065  0.0641  0.0295
 8965W        W24774  17.630  18.160  13.650  0.0080 -0.3082 -0.2140
 8966W        W24775  17.244  16.553  15.957 -0.1140 -0.0840  0.1960
 8967W        W24776  14.198  15.119  16.066  0.0881 -0.2159 -0.0444
 8968W        W24777   6.124   8.305   5.260  0.2716  0.0702 -0.1734
 8969W        W24778  13.844  16.656  13.038 -0.1772 -0.0221 -0.2545
 8970W        W24779   3.316   4.352   6.382 -0.0240  0.1731  0.3742
 8971W        W24780  17.783   8.413  14.184  0.0918  0.3434  0.0544
 8972W        W24781  16.207   0.953   5.722 -0.2767  0.0330  0.0110
 8973W        W24782  13.376  15.626  15.409 -0.0535  0.3092  0.0712
 8974W        W24783   4.071   0.962  12.930 -0.0461  0.1107 -0.1843
 8975W        W24784   4.023  14.754  14.356  0.0222 -0.1289  0.0031
 8976W        W24785  16.145  13.044   2.614 -0.2008 -0.1897 -0.0240
 8977W        W24786   5.510   8.694   3.513  0.1019  0.0075  0.0328
 8978W        W24787   7.986  12.003  14.559  0.2225 -0.0991  0.1360
 8979W        W24788   3.010  15.999   2.944  0.2348  0.2173 -0.1048
 8980W        W24789   3.907   0.054   0.278  0.0151  0.0608 -0.1381
 8981W        W24790  17.027  17.337  13.639  0.5157  0.2771  0.0470
 8982W        W24791   8.904   6.272  11.431  0.1905 -0.0259  0.1208
 8983W        W24792  11.979  11.253   3.724 -0.1422 -0.1463  0.1692
 8984W        W24793  16.992   3.682   3.392  0.0980 -0.1847 -0.1938
 8985W        W24794  16.083   4.075   0.150 -0.2739 -0.2103 -0.1247
 8986W        W24795  14.169  15.258   5.705  0.0504  0.1849 -0.2009
 8987W        W24796  10.909  16.261   5.709 -0.2652  0.0985  0.0214
 8988W        W24797  15.207   5.823   6.429  0.1770 -0.1773  0.0514
 8989W        W24798   4.472   7.224  15.905  0.0717  0.0458  0.1127
 8990W        W24799  16.917  16.498  11.472  0.0914 -0.0391  0.1254
 8991W        W24800  17.195   7.428   0.010  0.1973  0.0364  0.1559
 8992W        W24801  12.180   1.960   0.546  0.3866 -0.1409  0.2064
 8993W        W24802   3.847  10.834   5.235  0.1894 -0.0347 -0.2687
 8994W        W24803  12.181  15.230   5.641 -0.1227 -0.1221  0.0473
 8995W        W24804   2.227  11.969   2.378  0.2105 -0.2102 -0.0742
 8996W        W24805   3.403   0.676   2.318  0.3213 -0.0063 -0.1344
 8997W        W24806   8.931   9.529  11.561 -0.0666 -0.0470  0.3561
 8998W        W24807   6.741  13.894   5.095  0.1763 -0.1286 -0.0078
 8999W        W24808  15.805  15.874   5.445 -0.2344  0.3431  0.0259
 9000W        W24809  17.231  10.573   5.099 -0.0257  0.0335  0.1049
 9001W        W24810  15.637  17.604   0.159  0.1890 -0.0729  0.1083
 9002W        W24811  18.033  10.097   0.700  0.0783 -0.1956 -0.0808
 9003W        W24812   4.287  10.648   0.061 -0.0477 -0.0652 -0.1029
 9004W        W24813   3.681  15.891   0.557  0.0974 -0.1092  0.0693
 9005W        W24814  14.484   7.232  13.882 -0.1062  0.3852  0.1261
 9006W        W24815  16.207   8.583  15.977  0.1376 -0.2604  0.1729
 9007W        W24816   2.457   3.801  11.442 -0.0583  0.0882  0.1557
 9008W        W24817   5.645   1.041  12.095 -0.0099 -0.3555  0.1388
 9009W        W24818  14.592  12.170  15.732  0.0770 -0.2264  0.0732
 9010W        W24819  13.985   3.216   0.081 -0.2623  0.0846 -0.0570
 9011W        W24820  10.307   3.254   4.906 -0.1599 -0.1546  0.4396
 9012W        W24821   0.045  15.308   4.208 -0.0339 -0.0271  0.2476
 9013W        W24822   5.225   3.187  12.702 -0.1977  0.0354 -0.0902
 9014W        W24823  10.925  11.203  13.665  0.0188  0.1477  0.0070
 9015W        W24824  13.042   1.978  14.093 -0.0959 -0.0800 -0.1359
 9016W        W24825  14.202   4.820  16.050  0.0956 -0.0988  0.3513
 9017W        W24826   7.237   1.199   2.940 -0.1645  0.0606  0.0096
 9018W        W24827  16.261   5.810   3.335  0.0485  0.0273 -0.1283
 9019W        W24828  12.970  14.289  10.243 -0.1340  0.1660  0.0050
 9020W        W24829  12.009   3.942   2.683  0.1054  0.3290 -0.0319
 9021W        W24830  11.001   7.563   5.891 -0.1311 -0.2743 -0.1548
 9022W        W24831  14.214   1.053  16.250  0.2800  0.1361  0.0898
 9023W        W24832  17.451  15.031   1.712  0.1110 -0.0576  0.0494
 9024W        W24833  17.408   2.620   2.147 -0.2153  0.0808  0.1920
 9025W        W24834   6.078  11.371  14.793 -0.1378 -0.3847 -0.2048
 9026W        W24835   0.146   1.312   5.257 -0.0601  0.0514 -0.1455
 9027W        W24836   4.190  17.439  14.600  0.0622 -0.1305  0.2467
 9028W        W24837  14.413   6.281  14.054 -0.0564  0.0765  0.2897
 9029W        W24838   9.722   9.219  14.491 -0.0520 -0.0069  0.2811
 9030W        W24839   8.126   1.151  12.045 -0.1579 -0.0960 -0.4008
 9031W        W24840   4.725   4.815  14.988 -0.1841 -0.0616  0.2277
 9032W        W24841   5.429  17.181  11.001  0.1622 -0.1034  0.1508
 9033W        W24842   1.903  11.165  14.663 -0.1042 -0.2318  0.1110
 9034W        W24843   6.185  16.873   1.303  0.0313  0.4066 -0.3103
 9035W        W24844  12.777   0.232  12.917  0.0639  0.0621  0.1343
 9036W        W24845  11.655   5.191   0.636 -0.3048 -0.0201 -0.1721
 9037W        W24846  10.663   4.916   3.176 -0.1323 -0.0247  0.0141
 9038W        W24847   1.185   4.922  12.519 -0.0170  0.1056 -0.1221
 9039W        W24848  10.352   5.676   0.616  0.0491  0.0767  0.1797
 9040W        W24849  16.256  12.204   0.285  0.0344 -0.0817  0.1282
 9041W        W24850  12.341   8.308   3.985  0.0899  0.0661 -0.0223
 9042W        W24851   8.977  14.043  12.829 -0.0266 -0.4121  0.0685
 9043W        W24852   5.638  10.845  11.925 -0.4701  0.0579  0.1550
 9044W        W24853   9.339  16.464   3.413  0.0101 -0.0717  0.0854
 9045W        W24854  11.047   9.183  11.658 -0.1053 -0.3045 -0.0152
 9046W        W24855   1.291   2.709   3.475 -0.1030  0.2176  0.0611
 9047W        W24856   6.998  11.742   3.614  0.2566  0.0041  0.0145
 9048W        W24857   4.756  11.794   2.608  0.1780  0.1710  0.1413
 9049W        W24858  17.653   2.186  13.769 -0.2690 -0.2125 -0.1133
 9050W        W24859   3.294  11.942   1.862  0.2486 -0.0336 -0.1283
 9051W        W24860   3.600   3.168   1.794  0.3417 -0.3301 -0.1481
 9052W        W24861   3.923   4.154   3.892  0.0963 -0.1002  0.4566
 9053W        W24862  18.052   4.135   0.949  0.1078 -0.2220 -0.1827
 9054W        W24863  15.598   0.382  12.600 -0.0748  0.1420 -0.1807
 9055W        W24864   3.825  13.984  13.067  0.2350 -0.0937 -0.2933
 9056W        W24865  13.438  10.487  15.187  0.0957  0.0736 -0.5683
 9057W        W24866  15.864  15.493  14.249  0.2362 -0.1952 -0.1315
 9058W        W24867   5.999   3.306  14.653  0.4473  0.0056  0.2914
 9059W        W24868  15.760   9.832  14.103 -0.0865 -0.1274 -0.1091
 9060W        W24869   7.705  15.946  15.790 -0.2264  0.0006  0.2139
 9061W        W24870   6.530   8.161  16.059  0.0805  0.4535  0.1384
 9062W        W24871   0.930   1.644   5.314  0.1260 -0.0563  0.2113
 9063W        W24872  10.602   9.477  14.350 -0.0317  0.1648 -0.3368
 9064W        W24873   3.941  12.917  12.451  0.0155 -0.0169  0.0115
 9065W        W24874   1.786   6.008   2.655  0.2259 -0.0454  0.2059
 9066W        W24875  17.900  17.669  14.313  0.2183 -0.0396  0.0151
 9067W        W24876   7.016   4.321  12.329 -0.1792 -0.0761  0.0049
 9068W        W24877   6.350   7.897   4.249 -0.0336  0.2223  0.1480
 9069W        W24878   5.775   2.684  13.054 -0.0524  0.1949 -0.1601
 9070W        W24879  11.221  11.245   0.744  0.2022 -0.1562  0.3920
 9071W        W24880   4.637   8.113   5.924 -0.0361 -0.0195  0.0093
 9072W        W24881  13.016   7.742   0.881  0.2624  0.2484 -0.1104
 9073W        W24882   0.511  11.201  15.148 -0.0886 -0.2441 -0.3414
 9074W        W24883  16.084   6.446  15.266 -0.2737 -0.0927 -0.0113
 9075W        W24884   2.158  14.512   3.753  0.0132  0.1805 -0.2866
 9076W        W24885  11.838   8.627  11.586 -0.2036  0.1053  0.0542
 9077W        W24886  14.034  15.524   3.380  0.0813  0.0746 -0.0948
 9078W        W24887  12.197  14.754   0.186 -0.1230 -0.0492 -0.1205
 9079W        W24888   7.332  14.412  15.874 -0.2858  0.1553  0.0688
 9080W        W24889   4.518  10.401  16.040 -0.1582  0.0219  0.2503
 9081W        W24890  16.053   1.478   2.467  0.1312 -0.3825 -0.3466
 9082W        W24891  13.806  16.179   2.525 -0.0950  0.1197  0.0871
 9083W        W24892   0.735   0.164   1.644  0.4657  0.0300 -0.0290
 9084W        W24893   5.276  15.654  14.947  0.0995  0.0579 -0.1489
 9085W        W24894   9.534  13.731   0.943 -0.1114 -0.2288 -0.2039
 9086W        W24895   7.085  13.438   1.032  0.1508  0.0835 -0.0008
 9087W        W24896   8.537   4.906  14.444 -0.0978 -0.0536  0.0644
 9088W        W24897  14.132   2.138   1.697  0.1381 -0.1414 -0.4176
 9089W        W24898  14.376  13.839  14.622  0.2180  0.0787  0.1097
 9090W        W24899  12.593   5.165   2.230  0.0662  0.1473  0.0788
 9091W        W24900   8.868  15.287   0.124  0.0910  0.0574  0.1227
 9092W        W24901   6.794   7.501   2.451  0.1012  0.2538  0.2714
 9093W        W24902   6.969  12.583  14.575 -0.3129 -0.0929  0.0948
 9094W        W24903   5.543  14.309   5.037 -0.1177 -0.0779  0.2008
 9095W        W24904  10.423  10.518   4.162 -0.1317 -0.0230  0.2866
 9096W        W24905   5.600  14.725   3.222 -0.1412  0.1657  0.2084
 9097W        W24906   2.814   2.147   3.776 -0.2453  0.1214  0.0691
 9098W        W24907  14.571   8.862   4.405 -0.1415  0.0415 -0.0732
 9099W        W24908   8.282   1.441  14.463 -0.0840 -0.0035 -0.0622
 9100W        W24909   7.802  10.797   1.310  0.0485  0.1390 -0.0770
 9101W        W24910   8.278   6.623  14.766 -0.0630 -0.0586 -0.0368
 9102W        W24911  13.185   8.030   4.597 -0.0738  0.0492 -0.1446
 9103W        W24912   8.833   7.208   5.095  0.0667  0.4725 -0.0752
 9104W        W24913   8.828   9.078   1.689  0.1493  0.2748  0.1136
 9105W        W24914  14.970   9.797  14.630 -0.4595  0.1996  0.1442
 9106W        W24915  10.015  15.243  12.071  0.1926  0.2673 -0.0158
 9107W        W24916  16.628   7.910  11.617 -0.3358  0.3341  0.0158
 9108W        W24917  17.490   2.214   2.439  0.0092 -0.1850  0.1142
 9109W        W24918   9.049   4.592   4.931 -0.1181  0.0691  0.0370
 9110W        W24919  13.428   8.804   3.836 -0.2544 -0.0834  0.3459
 9111W        W24920   0.365  16.997   5.022 -0.3106 -0.1418  0.0592
 9112W        W24921  17.032  12.289  15.175 -0.3832  0.1115  0.1891
 9113W        W24922   8.198   8.600   3.594  0.1740 -0.2143  0.1889
 9114W        W24923   3.422  14.798  14.210  0.0351 -0.3421  0.3130
 9115W        W24924   9.175   1.342   1.335 -0.0535 -0.0331 -0.2538
 9116W        W24925  11.336  13.825  15.715  0.0903  0.0091  0.2100
 9117W        W24926   7.879   6.483   2.079 -0.4898 -0.0960  0.0608
 9118W        W24927   2.152   1.534  13.138 -0.1171  0.0112  0.1405
 9119W        W24928  16.029  16.354  14.905  0.3455 -0.2933 -0.0669
 9120W        W24929  11.656   1.638   1.407  0.1900  0.0467 -0.1967
 9121W        W24930   0.758   7.729   1.601  0.0653  0.0046  0.2259
 9122W        W24931   8.510  11.031   1.036 -0.0434  0.0425  0.0391
 9123W        W24932   0.094   7.025   2.126 -0.0844  0.1883  0.0369
 9124W        W24933   1.473  17.056  14.185  0.2569  0.1238  0.0051
 9125W        W24934  11.544   7.593  15.874  0.0423 -0.1857  0.2576
 9126W        W24935  10.796  16.346   2.278  0.1296  0.1121 -0.0103
 9127W        W24936   8.516  11.192   1.912  0.2323  0.2464  0.2419
 9128W        W24937   6.765  11.638  16.212 -0.0564 -0.3671  0.1957
 9129W        W24938   9.165  13.116   1.888  0.1898  0.0193 -0.1283
 9130W        W24939  16.189  11.098   3.324 -0.0226  0.0112 -0.1785
 9131W        W24940   5.738   9.924  14.068 -0.1655  0.1097 -0.0049
 9132W        W24941   1.528  10.950   0.285 -0.2847 -0.1751  0.1489
 9133W        W24942  14.058  12.605  12.299 -0.2411 -0.1630  0.4292
 9134W        W24943  16.555   6.872  10.781 -0.2532 -0.1236 -0.3387
 9135W        W24944  15.382  11.462   1.861 -0.0256 -0.0990  0.1506
 9136W        W24945   3.594  12.748  13.376  0.0317  0.0678  0.1474
 9137W        W24946   2.663  10.565  12.311 -0.0119  0.2706  0.2541
 9138W        W24947   9.321   5.550  15.750  0.0528 -0.1634 -0.1129
 9139W        W24948   4.357  12.937   1.351  0.0645 -0.3596  0.1604
 9140W        W24949  11.433  13.233   3.184  0.2996  0.0463  0.0692
 9141W        W24950   8.996  12.897   0.703 -0.0962 -0.1284  0.1384
 9142W        W24951   8.741  10.070   4.980 -0.5506  0.1789  0.0171
 9143W        W24952  11.653  10.752  13.932  0.0635  0.2670 -0.1708
 9144W        W24953   5.120   1.564  14.622  0.4181 -0.2119  0.0772
 9145W        W24954  11.078   3.063  14.651  0.1379  0.0082  0.0598
 9146W        W24955  12.900   7.749   3.036  0.1328 -0.4005  0.0063
 9147W        W24956  15.629   6.443   2.661  0.0601  0.1572 -0.1448
 9148W        W24957  16.380  15.633   1.627 -0.2207 -0.0812  0.0712
 9149W        W24958   1.742  14.136  15.944  0.0433  0.3877  0.1113
 9150W        W24959   1.591  10.107  14.141 -0.1296 -0.1300 -0.1063
 9151W        W24960   6.425   8.559   5.622 -0.0518 -0.1058 -0.2719
 9152W        W24961  10.304   1.652  13.626  0.1612 -0.1010 -0.1820
 9153W        W24962  16.199  13.414  15.125 -0.0235 -0.1396 -0.2695
 9154W        W24963  14.693  15.664   0.081  0.0324 -0.2074 -0.2659
 9155W        W24964  14.607   0.250   5.321 -0.0747 -0.3972  0.2432
 9156W        W24965   0.830  11.288  16.309 -0.2567 -0.0397  0.3600
 9157W        W24966   8.557  13.429  11.241 -0.1372 -0.0642  0.3283
 9158W        W24967   4.854  17.695  12.352 -0.3811 -0.0775  0.0430
 9159W        W24968  16.309   0.391   0.886  0.1498 -0.1331 -0.0001
 9160W        W24969   1.323  15.800  15.317 -0.2668 -0.0972  0.0267
 9161W        W24970   7.850  14.473  15.639 -0.0251  0.2291  0.1789
 9162W        W24971   0.359   7.214  10.264  0.2868  0.0224  0.0036
 9163W        W24972   1.527  14.851  13.144  0.0571  0.0457  0.0390
 9164W        W24973   7.693   2.243  12.877 -0.0980 -0.0453 -0.2860
 9165W        W24974   6.580  10.181  13.613  0.2927  0.0519  0.2685
 9166W        W24975   1.903   4.753  16.266 -0.2843 -0.3261  0.0673
 9167W        W24976  11.404  12.354   5.089 -0.0742 -0.0100  0.3441
 9168W        W24977  10.248   6.548   4.305 -0.3033 -0.2639 -0.1391
 9169W        W24978   0.323   5.659  12.245  0.1197  0.1350  0.2104
 9170W        W24979   7.855  16.633  11.917 -0.1344  0.2512 -0.5150
 9171W        W24980  14.744   8.255   1.627 -0.0020  0.0770  0.0167
 9172W        W24981   5.278  14.770  14.608 -0.0240  0.2518 -0.3393
 9173W        W24982   4.889  10.297  15.139  0.2970 -0.0295  0.0717
 9174W        W24983   0.090  10.511   5.265 -0.3096 -0.3525 -0.0222
 9175W        W24984   9.834   6.622  10.803 -0.2319  0.0385  0.0839
 9176W        W24985  13.105   1.517   0.821 -0.1443 -0.0892 -0.2687
 9177W        W24986  14.889   6.371  12.188  0.0362 -0.3790 -0.1082
 9178W        W24987   8.248   7.353  12.909 -0.5336 -0.1934 -0.0608
 9179W        W24988   4.778  12.474   2.372  0.1289  0.0773 -0.0398
 9180W        W24989   8.977   3.640  13.776  0.0073  0.2604 -0.0876
 9181W        W24990   1.436   6.715  12.349 -0.0816 -0.0351 -0.1503
 9182W        W24991   8.732  14.655  13.294 -0.0605  0.1392  0.1009
 9183W        W24992   8.584   0.323   4.108 -0.5058 -0.1323  0.0094
 9184W        W24993   1.473   4.328  15.519 -0.1367  0.1220  0.3245
 9185W        W24994   5.559   1.967  15.361 -0.0269  0.0300  0.0151
 9186W        W24995   4.493  14.728  11.730  0.0008 -0.2699 -0.0440
 9187W        W24996   4.550  16.411   1.450  0.1538 -0.1649 -0.0928
 9188W        W24997   8.723  14.083  13.573  0.0372 -0.1244 -0.0157
 9189W        W24998   1.742  13.282   3.329  0.2905 -0.0985 -0.0882
 9190W        W24999   3.768  13.735  12.596 -0.0019 -0.4291  0.1041
 9191W        W25000  15.920  12.403  15.492  0.0387  0.1670  0.2818
 9192W        W25001   8.918   3.485  13.264 -0.1726 -0.0888 -0.1201
 9193W        W25002   3.306   0.443   4.698  0.0132 -0.2412  0.0392
 9194W        W25003   6.293  13.211  12.734  0.0666  0.0216 -0.2839
 9195W        W25004   0.601  18.131  16.007 -0.3442 -0.1030  0.1517
 9196W        W25005   3.395  15.616   3.863  0.1670  0.1451 -0.0531
 9197W        W25006   6.621   7.270   5.014 -0.3154 -0.1593  0.1303
 9198W        W25007  16.394  17.239  16.312  0.1521 -0.0070  0.0172
 9199W        W25008   2.951   7.409  14.157  0.4147  0.1621 -0.0882
 9200W        W25009   7.939   3.880   5.054 -0.0679  0.0169 -0.1584
 9201W        W25010   9.922  14.752  11.289  0.0192  0.1865 -0.1520
 9202W        W25011   3.988  17.166   4.774 -0.0954 -0.1492  0.2210
 9203W        W25012   2.988   6.724  13.604 -0.0731 -0.0009  0.1892
 9204W        W25013   9.143   8.022  12.379 -0.1462  0.4180  0.0469
 9205W        W25014  16.005   0.043   5.368  0.0859  0.3576  0.0066
 9206W        W25015  17.141  15.825  12.940  0.1876  0.1459 -0.1046
 9207W        W25016   8.289   8.854  14.377  0.0784 -0.1858  0.0288
 9208W        W25017   0.724   7.839   1.017  0.4668 -0.0651  0.1097
 9209W        W25018   3.222   6.134   0.564  0.0367 -0.3259 -0.0366
 9210W        W25019   5.268   6.767  11.890  0.0525 -0.0396  0.0558
 9211W        W25020   8.280   3.576  13.689  0.2303  0.1712  0.1512
 9212W        W25021   4.585   6.754   1.293  0.0705 -0.0735 -0.4043
 9213W        W25022  10.583  11.378  12.110 -0.0225  0.0621  0.0681
 9214W        W25023  10.339  13.854   3.134  0.0606 -0.3324 -0.3225
 9215W        W25024  17.809   5.951  14.181  0.4454 -0.1295 -0.1482
 9216W        W25025   9.212  10.428  10.654 -0.1624 -0.0864  0.0331
 9217W        W25026   2.995  13.735   4.062  0.1859 -0.0036 -0.0379
 9218W        W25027  12.895   3.553   4.002 -0.1365  0.0881 -0.3301
 9219W        W25028   9.845   3.174   0.033  0.1081  0.0517  0.1817
 9220W        W25029  12.519  10.574   5.032 -0.1545  0.2058  0.1954
 9221W        W25030   6.963  13.489  16.085  0.0623 -0.1770  0.2012
 9222W        W25031   5.626  13.991  11.004  0.0076  0.0081  0.4363
 9223W        W25032   1.988  10.678   6.078  0.6308  0.1021  0.2310
 9224W        W25033  11.431   0.920   4.085 -0.2464  0.0398  0.1185
 9225W        W25034   4.312   8.642  13.073  0.2522  0.1170  0.2412
 9226W        W25035   1.664  12.734  12.455 -0.2180 -0.0521  0.4797
 9227W        W25036   1.989   8.474  12.258 -0.0432 -0.0756 -0.0146
 9228W        W25037   7.210   6.407  12.056  0.3009  0.2238 -0.1606
 9229W        W25038   9.439  11.395   4.011 -0.1332 -0.0737 -0.2329
 9230W        W25039  10.084   5.878  15.612 -0.2629  0.2589  0.0052
 9231W        W25040   9.229  12.880  13.460 -0.0717 -0.0178 -0.0991
 9232W        W25041   6.316   1.637   1.560  0.0614 -0.1509 -0.3348
 9233W        W25042  15.184   4.673  14.555 -0.0282  0.0385  0.3124
 9234W        W25043   2.612   1.904  11.969 -0.1111 -0.0800  0.0975
 9235W        W25044  11.180   3.357   2.216  0.1251 -0.0328 -0.1460
 9236W        W25045   7.401  13.820   0.914  0.0804  0.0033 -0.1041
 9237W        W25046  13.947   1.581  12.024 -0.0953 -0.0412 -0.0054
 9238W        W25047  11.141   0.018  15.434 -0.2052 -0.1502 -0.0507
 9239W        W25048  12.165   0.871  14.862 -0.3403 -0.0207  0.2997
 9240W        W25049   7.049  14.809   2.206 -0.0620  0.2800 -0.0314
 9241W        W25050  16.636  17.344   2.728 -0.1189  0.2565  0.2090
 9242W        W25051  15.751   8.460  16.217 -0.2024 -0.1265 -0.1129
 9243W        W25052  16.281   7.476  14.323 -0.1153  0.1315 -0.1316
 9244W        W25053  14.696  13.522   0.646 -0.1037 -0.1582 -0.1486
 9245W        W25054  15.262  14.956   1.080  0.2230  0.1369 -0.0151
 9246W        W25055  13.087  12.061   0.918  0.2732  0.0664  0.0566
 9247W        W25056  16.824   9.310  14.238  0.2693  0.1065  0.0242
 9248W        W25057   1.678  17.563  16.355  0.1031 -0.1279  0.0519
 9249W        W25058   9.451  13.709  12.906 -0.2412 -0.0504  0.0650
 9250W        W25059   1.588  18.124  15.648  0.0999 -0.1341 -0.0656
 9251W        W25060   2.370   2.911  12.416  0.1207  0.2515  0.2367
 9252W        W25061   4.354   2.422   0.793  0.0078  0.1584  0.2932
 9253W        W25062  14.970   8.963   0.301 -0.2348 -0.0236 -0.1425
 9254W        W25063  16.156  15.349  16.358 -0.0095 -0.1334  0.1495
 9255W        W25064   2.398   6.913  12.738 -0.0916  0.0935 -0.1454
 9256W        W25065  15.177  10.177  13.643  0.1765  0.2208 -0.0982
 9257W        W25066   8.424   9.211  13.077 -0.0552  0.1479  0.0242
 9258W        W25067  18.079   7.119  16.335  0.3356  0.3218  0.1968
 9259W        W25068   9.525  14.980   1.101  0.0349 -0.0540  0.1642
 9260W        W25069   2.634  13.454  13.685  0.0675  0.0248  0.0955
 9261W        W25070  17.100   9.835   0.022 -0.1136 -0.0364 -0.2281
 9262W        W25071  12.318   9.395   4.459  0.0247 -0.0648 -0.1436
 9263W        W25072   4.857   5.328   2.106 -0.0661 -0.2768 -0.2369
 9264W        W25073   0.295   6.544   2.139  0.1136 -0.1673  0.2398
 9265W        W25074  13.885  17.976   2.764  0.2271  0.1747  0.1558
 9266W        W25075  13.362   8.069  14.676  0.1098 -0.1453  0.0522
 9267W        W25076  16.530   0.153  13.745  0.0555 -0.1117  0.0500
 9268W        W25077   6.974   0.410  11.507 -0.2008  0.2770  0.3983
 9269W        W25078   2.316   5.958  12.837  0.2053 -0.0722  0.0575
 9270W        W25079  16.556  10.582   2.937  0.0847  0.0889  0.0505
 9271W        W25080  13.587  14.734  12.075 -0.3121  0.2230  0.0571
 9272W        W25081   8.808   5.004  13.038 -0.1521 -0.1429 -0.3298
 9273W        W25082   4.225   6.929   0.487  0.0230 -0.1372  0.0248
 9274W        W25083   3.201   7.188  13.778  0.2828  0.0607  0.0090
 9275W        W25084   8.515  10.929   2.814 -0.0036  0.1645 -0.0298
 9276W        W25085  17.680   5.413   3.541  0.0672  0.1560  0.2719
 9277W        W25086  14.728  10.627   2.393  0.0584 -0.0660  0.0120
 9278W        W25087   0.091  17.097   4.598  0.2039  0.3789  0.0132
 9279W        W25088   7.951  16.904  14.199  0.1950  0.0737 -0.0299
 9280W        W25089  15.799  14.241  14.060 -0.1886 -0.0494 -0.1031
 9281W        W25090   9.861   5.249   5.024 -0.0544  0.1983  0.1790
 9282W        W25091   9.705  18.124   0.548 -0.1071  0.1453  0.2977
 9283W        W25092  13.572  13.265   4.374  0.1099  0.4972 -0.0057
 9284W        W25093  11.381  18.146   5.375 -0.4495  0.0393  0.0478
 9285W        W25094   4.576   9.431   6.087 -0.2373  0.0592 -0.0693
 9286W        W25095  12.819  16.052   4.712  0.1492  0.1855 -0.0711
 9287W        W25096  15.155  16.538  14.491  0.1833 -0.1500  0.0991
 9288W        W25097  13.054  17.103   3.937  0.1409  0.1322 -0.0446
 9289W        W25098  10.336   0.205   4.459 -0.1250  0.0351  0.1905
 9290W        W25099  13.431  12.522  12.947  0.2532  0.1210 -0.1222
 9291W        W25100   9.731  11.406  11.982 -0.0772 -0.1375  0.0055
 9292W        W25101  14.020   2.915   2.065 -0.2153  0.2231 -0.3198
 9293W        W25102   4.141   4.891   2.238  0.3669  0.1095 -0.1261
 9294W        W25103  11.104  13.003   1.085  0.1810 -0.0911  0.1355
 9295W        W25104   9.657  14.351  16.311  0.1428  0.2336  0.1492
 9296W        W25105  11.153   3.222  11.558  0.0229 -0.1795 -0.1426
 9297W        W25106   0.527  15.891  13.723 -0.0717 -0.1235  0.1574
 9298W        W25107   8.819  11.442   1.154  0.0271  0.2273 -0.1554
 9299W        W25108  11.810  10.940  12.996 -0.1301 -0.2341 -0.3672
 9300W        W25109   7.664   0.124  11.825  0.1521 -0.4185 -0.1433
 9301W        W25110   5.764   0.765  11.717 -0.1815  0.0551  0.2189
 9302W        W25111   4.589  14.705  13.207 -0.2187  0.1716  0.0237
 9303W        W25112  11.180   3.730  11.269  0.0831  0.0151 -0.2965
 9304W        W25113  12.589   7.767  15.962 -0.1546 -0.0640 -0.0144
 9305W        W25114   3.511   2.922  14.127  0.3582  0.2053 -0.0770
 9306W        W25115   4.088   2.307  12.319 -0.3344  0.0546  0.1077
 9307W        W25116   4.047   3.134   3.155  0.0546  0.2903  0.0814
 9308W        W25117  12.594  10.700   3.338  0.0045  0.2490  0.3018
 9309W        W25118  14.328   2.171  14.439 -0.2494  0.0755 -0.0514
 9310W        W25119  12.248   5.343  12.964  0.0021 -0.2314  0.1376
 9311W        W25120  13.339   9.242  12.412 -0.1119 -0.1315  0.2334
 9312W        W25121   4.172   4.008   4.334  0.0625  0.0814  0.0533
 9313W        W25122  13.011   0.953  14.488  0.3208  0.1665 -0.0924
 9314W        W25123   9.818   6.297   5.230 -0.3361  0.1427  0.2881
 9315W        W25124   3.145  13.145   4.668 -0.1829  0.0686 -0.0368
 9316W        W25125  12.601   9.023   4.359  0.1542 -0.1444  0.1080
 9317W        W25126   0.770  17.212  11.031 -0.0740 -0.4214  0.0214
 9318W        W25127   9.538   4.444   4.823 -0.3309 -0.1105  0.0665
 9319W        W25128   1.654   1.885  12.052 -0.4579  0.2288  0.2148
 9320W        W25129  13.393   0.628   4.304  0.0411  0.0396 -0.0390
 9321W        W25130   3.964   5.914   4.993  0.2683  0.0057 -0.1376
 9322W        W25131   0.987  11.481  14.556 -0.3708 -0.0692 -0.1154
 9323W        W25132   4.977   3.007   5.663  0.1370 -0.2505  0.0715
 9324W        W25133  10.532  13.297   4.706  0.1834 -0.1257  0.3323
 9325W        W25134  15.484   3.776  15.779  0.1297 -0.2523 -0.3394
 9326W        W25135   1.128   5.357   5.719 -0.0309  0.2108 -0.3377
 9327W        W25136   4.098  16.133  14.589 -0.2617 -0.1502  0.0378
 9328W        W25137  16.372  17.191  10.205  0.1577  0.0312  0.1298
 9329W        W25138   3.056   0.439   2.090 -0.0250  0.0523 -0.2440
 9330W        W25139   2.502  14.791   3.945 -0.0182  0.0780  0.4716
 9331W        W25140   3.930  18.142  13.037 -0.2949  0.0173  0.1857
 9332W        W25141   7.620  11.505  15.295  0.1184 -0.0239 -0.1469
 9333W        W25142   6.767  13.999  12.955  0.0747 -0.5391 -0.0127
 9334W        W25143   0.594  11.776   2.752  0.1327  0.0644  0.0489
 9335W        W25144  13.782   6.136  14.638  0.3532  0.1166 -0.2823
 9336W        W25145   8.334  10.066   0.894  0.2192  0.0229 -0.1900
 9337W        W25146   7.609  15.030   3.058  0.6367 -0.0066 -0.0358
 9338W        W25147  14.774   8.223   2.225  0.0094 -0.0825  0.2014
 9339W        W25148  16.836  16.110  15.785 -0.2199  0.1053 -0.1681
 9340W        W25149   9.535   0.072   2.498 -0.1275 -0.0355  0.0357
 9341W        W25150  17.991  15.329  12.903 -0.0233  0.0455 -0.2077
 9342W        W25151  17.600   3.064   3.296  0.2414  0.0098  0.1721
 9343W        W25152   4.202  10.887  14.606  0.0206  0.1311 -0.2372
 9344W        W25153   0.455  13.938   0.261 -0.1851  0.2333 -0.1294
 9345W        W25154  13.357  18.170  13.558  0.0141 -0.0348  0.4096
 9346W        W25155   6.723  11.155   3.850 -0.2836  0.0393  0.4516
 9347W        W25156   2.289   4.298   4.569 -0.0977 -0.3517  0.0862
 9348W        W25157  11.863   3.266  13.447 -0.1716 -0.2022 -0.0546
 9349W        W25158   1.849   2.819   2.587 -0.1891 -0.0184  0.3215
 9350W        W25159   2.481   0.063  14.643  0.2549  0.1535  0.2624
 9351W        W25160   2.421   1.913   0.305  0.0602  0.0811  0.0773
 9352W        W25161   8.162   9.807  11.975  0.0025 -0.0169 -0.0929
 9353W        W25162   8.372   7.932  15.613 -0.3238  0.1816 -0.1381
 9354W        W25163   6.125   7.479   5.351  0.0398 -0.1100  0.2428
 9355W        W25164   4.376   9.642   2.645  0.0826 -0.2833  0.0276
 9356W        W25165   2.946   1.843   4.487 -0.1982  0.2250 -0.1923
 9357W        W25166  13.394   5.137   0.214  0.0959 -0.0315  0.4168
 9358W        W25167  16.532   6.317   2.137 -0.0824 -0.2778 -0.4541
 9359W        W25168  15.738   7.726   2.577  0.0538 -0.1535 -0.1058
 9360W        W25169   0.255   0.009  14.030 -0.1116 -0.2577  0.2532
 9361W        W25170   4.390   1.984  11.978 -0.1615  0.1039 -0.2652
 9362W        W25171   6.866   1.280  15.872 -0.1626  0.1325 -0.0001
 9363W        W25172  16.934   8.114  16.241 -0.0607 -0.2999 -0.0602
 9364W        W25173   0.049  10.825  11.854 -0.1468  0.0557 -0.2266
 9365W        W25174   9.075  12.893  16.128  0.1159 -0.0667 -0.0009
 9366W        W25175  13.620   1.493   2.433  0.0833  0.1177  0.2016
 9367W        W25176   4.035   2.920   4.998 -0.1422  0.2270 -0.3494
 9368W        W25177   1.905  10.965   2.400 -0.0508 -0.1766 -0.2305
 9369W        W25178   1.942  17.773  13.589 -0.0174  0.4129  0.0832
 9370W        W25179   2.705   1.305   5.345  0.0013  0.2660 -0.1257
 9371W        W25180   3.906   8.455   2.464  0.0210  0.1535 -0.2186
 9372W        W25181  14.781  10.085   1.906  0.2974 -0.0342  0.2890
 9373W        W25182  10.260  11.833  12.089  0.0359 -0.0803  0.1321
 9374W        W25183   6.156  11.356   2.248  0.2271  0.2907  0.0293
 9375W        W25184   1.654  14.632  12.133 -0.0441  0.1806 -0.1887
 9376W        W25185  13.906  13.889   3.730 -0.0146  0.1818  0.1001
 9377W        W25186   3.161  10.795  14.969 -0.2003  0.2496 -0.2910
 9378W        W25187   3.030   3.427  14.541 -0.0058 -0.0432  0.2386
 9379W        W25188  14.801   5.597   4.643  0.0940 -0.3625 -0.3695
 9380W        W25189   0.863   7.999   4.064  0.1075 -0.3909  0.0107
 9381W        W25190  14.569   1.172   5.304  0.0746  0.1746  0.1213
 9382W        W25191   8.167   2.950   5.206 -0.2557  0.0783  0.1458
 9383W        W25192  12.122   1.298  13.353 -0.0600 -0.1505  0.4722
 9384W        W25193  11.567  11.979   2.643 -0.1585 -0.4947  0.0283
 9385W        W25194  17.506   8.892   0.077  0.0816  0.2733 -0.2459
 9386W        W25195   4.050   8.885   2.933  0.2910  0.0317 -0.0623
 9387W        W25196  12.416   6.470   4.201  0.1676 -0.1212 -0.1547
 9388W        W25197   7.965   1.807   5.565  0.0431 -0.0941  0.1164
 9389W        W25198   6.429  11.498  12.304 -0.0131 -0.0289 -0.0062
 9390W        W25199   4.680   0.109   1.060  0.0235 -0.1231 -0.2103
 9391W        W25200  13.921   9.497  14.700 -0.0173  0.1923 -0.1786
 9392W        W25201   0.481   7.591   3.495  0.1843  0.0154 -0.2650
 9393W        W25202   6.804  13.051   0.101 -0.1194  0.1400 -0.0700
 9394W        W25203   8.808  13.301  10.276  0.4624 -0.2465 -0.1068
 9395W        W25204   6.548   0.265   5.564 -0.0212 -0.0039  0.1641
 9396W        W25205   0.293  13.634   4.739  0.0032  0.0925 -0.1359
 9397W        W25206   8.695   8.104  11.644 -0.0087 -0.2552  0.1772
 9398W        W25207  15.488  13.814  15.737  0.2605 -0.3923 -0.0921
 9399W        W25208   5.184   5.204   0.093  0.2057 -0.2456  0.0462
 9400W        W25209   5.750  10.065   5.448 -0.3391  0.2476  0.0628
 9401W        W25210   5.223   5.679  13.863 -0.2334 -0.0092 -0.0460
 9402W        W25211   5.984  16.569  11.977 -0.3915 -0.0742  0.1608
 9403W        W25212   3.682   5.044   2.317  0.5329 -0.3280  0.0868
 9404W        W25213  15.298   5.913   3.796 -0.0994  0.1968  0.0091
 9405W        W25214   6.040   4.870   5.903 -0.0072 -0.0202  0.1663
 9406W        W25215   2.585  14.704  14.007  0.0388 -0.1642  0.2535
 9407W        W25216   6.599  12.057  12.535  0.1749  0.2194 -0.2633
 9408W        W25217  15.876  15.458   0.892 -0.0283  0.2228 -0.2003
 9409W        W25218  12.048  13.449   2.754  0.0116 -0.0871 -0.4299
 9410W        W25219  17.492  16.204   0.397 -0.2181 -0.2155  0.1821
 9411W        W25220   6.817  15.316   2.403  0.0415 -0.0596 -0.3570
 9412W        W25221  15.358   1.216  13.228 -0.1685  0.1650  0.0611
 9413W        W25222   0.018  14.695  14.997  0.2384  0.1670  0.0887
 9414W        W25223  17.880   6.662   0.093 -0.1440 -0.3521  0.1645
 9415W        W25224   4.090  11.159  14.167  0.3286 -0.2096  0.1579
 9416W        W25225   8.286   9.546   3.454  0.0513 -0.1226  0.1300
 9417W        W25226  11.122   1.213   4.988 -0.0536 -0.1102  0.3886
 9418W        W25227   6.321   2.080  14.249 -0.5439  0.1431  0.1581
 9419W        W25228  12.320  12.303   5.365  0.2090 -0.0461 -0.0335
 9420W        W25229  16.363   5.257  15.502  0.0876  0.1422  0.1619
 9421W        W25230   6.636  10.802  13.694 -0.2482  0.1033 -0.2433
 9422W        W25231   0.116  14.700   0.386  0.0692 -0.2359  0.3025
 9423W        W25232  14.916   1.736   6.277 -0.2806 -0.1666 -0.0577
 9424W        W25233   2.670   3.052  15.271  0.0737 -0.0299 -0.1615
 9425W        W25234  16.737  14.753   2.471  0.4080 -0.1143  0.1594
 9426W        W25235  16.890  12.039  15.782  0.4223  0.1395  0.1655
 9427W        W25236   8.966  16.588  16.126  0.1605  0.2434 -0.1161
 9428W        W25237   8.070  14.424  15.147 -0.2892 -0.1895  0.0755
 9429W        W25238  16.517   4.186  14.432 -0.1342  0.3929 -0.1179
 9430W        W25239   4.766   1.730   4.249 -0.1277 -0.0405  0.0645
 9431W        W25240   7.651   9.686   5.903 -0.1239  0.2712 -0.3446
 9432W        W25241  13.776  16.684   0.269 -0.1212 -0.0753 -0.2921
 9433W        W25242  13.623   4.988  13.276 -0.1177  0.2938  0.0518
 9434W        W25243   0.087   9.150  13.446  0.0805  0.0535  0.3869
 9435W        W25244   7.821   1.420  14.248 -0.0220  0.0351  0.1489
 9436W        W25245   4.134  10.667  12.043 -0.1015 -0.1070 -0.3511
 9437W        W25246   2.203  15.646   2.355  0.1374 -0.1220 -0.0603
 9438W        W25247  16.750   7.793   4.644 -0.2414  0.2898 -0.0549
 9439W        W25248  16.758   0.568   4.862  0.1220 -0.0261  0.0374
 9440W        W25249   7.369  12.164   4.359  0.0676 -0.0895 -0.4002
 9441W        W25250   9.616  14.853   1.911  0.1307 -0.0204 -0.0399
 9442W        W25251   1.707   6.361  14.945  0.1213 -0.1662  0.0629
 9443W        W25252   6.972   1.580   0.920  0.1857  0.2452 -0.1650
 9444W        W25253   9.216  13.281   0.988 -0.1517  0.0242  0.2485
 9445W        W25254   5.198   0.401  16.110 -0.1959 -0.1413  0.2336
 9446W        W25255  17.489   4.908  14.558 -0.4296 -0.0017 -0.0462
 9447W        W25256  15.045   8.749  14.644 -0.2331  0.1905  0.1114
 9448W        W25257  12.027   2.120  12.562 -0.1202  0.0364  0.1405
 9449W        W25258   6.085  15.518   5.616  0.0664 -0.2589 -0.0380
 9450W        W25259   8.718   1.827  16.323 -0.2467  0.2774  0.0929
 9451W        W25260   9.801  14.500   3.308 -0.0184  0.0142 -0.0954
 9452W        W25261   5.705   9.366  14.255  0.0892 -0.2197  0.1136
 9453W        W25262  17.486   6.525   2.192  0.0967  0.0434 -0.1004
 9454W        W25263  17.329  14.566  12.979  0.2946  0.1523  0.0362
 9455W        W25264   3.379  17.098   1.341  0.0477  0.0054  0.2507
 9456W        W25265  15.835   9.456   5.305 -0.1343 -0.4292 -0.1450
 9457W        W25266  13.534   8.150  12.594  0.0577  0.2400 -0.0932
 9458W        W25267   9.117   3.159  12.269 -0.1283 -0.3142 -0.3854
 9459W        W25268  14.306  14.679  14.219 -0.3375 -0.0152 -0.2963
 9460W        W25269   7.112  11.062  13.430  0.2382 -0.5468  0.0334
 9461W        W25270  11.642   4.657   2.293  0.1255  0.3952 -0.3546
 9462W        W25271  15.500  11.774   5.358  0.2481 -0.0471  0.0937
 9463W        W25272   9.753  17.064  12.375  0.0971  0.0247  0.0406
 9464W        W25273  13.626   1.009  11.613 -0.1377 -0.0661 -0.0627
 9465W        W25274  11.831   4.298  14.413  0.0774  0.0251  0.2086
 9466W        W25275  12.749   9.470   0.323 -0.2716 -0.2965 -0.0127
 9467W        W25276   3.738   4.103  12.307  0.0467  0.0177  0.1886
 9468W        W25277  15.753  14.262   1.733  0.1369  0.2221 -0.1090
 9469W        W25278  14.990  14.002   0.260  0.2225 -0.3673  0.2096
 9470W        W25279  13.620   2.242   0.550 -0.3678  0.0380 -0.1275
 9471W        W25280  15.041  16.527  13.352 -0.1756  0.1546  0.1365
 9472W        W25281  14.391   8.135  15.720 -0.1040 -0.1056 -0.2094
 9473W        W25282  10.365  14.907   0.259 -0.1942 -0.1326  0.3253
 9474W        W25283   9.437   0.689  14.779 -0.3000  0.1470  0.1538
 9475W        W25284   8.711   8.850   0.541 -0.0694  0.2363 -0.1428
 9476W        W25285   4.285  13.341  13.621 -0.2778  0.2253 -0.2192
 9477W        W25286   2.134   4.911   0.455  0.2495  0.0381 -0.0618
 9478W        W25287  14.122   2.128   3.717 -0.1712  0.0306 -0.2010
 9479W        W25288  16.266   0.621   4.914  0.2019 -0.0091  0.2545
 9480W        W25289  15.876  13.978  14.583  0.0367 -0.0323 -0.0028
 9481W        W25290   2.605  12.750  10.508  0.2503 -0.4050  0.1836
 9482W        W25291   1.936   9.239  11.548 -0.0959  0.1643 -0.2003
 9483W        W25292  15.427  11.551  11.914 -0.1208  0.0748  0.1917
 9484W        W25293  15.907   2.660   4.451  0.1529  0.0282 -0.1721
 9485W        W25294   7.194  10.910  15.874  0.1240 -0.0141  0.0021
 9486W        W25295  14.600   8.532  13.481 -0.2138 -0.1058  0.1677
 9487W        W25296   3.710  14.903   1.677 -0.4122  0.0431 -0.0058
 9488W        W25297  11.130   6.128  12.623  0.3005  0.2424 -0.0187
 9489W        W25298  15.531  11.747   3.961 -0.2426  0.1776 -0.2766
 9490W        W25299   5.663   2.246   2.561 -0.0406  0.2366 -0.0977
 9491W        W25300   1.403  14.777  11.717 -0.1381  0.1841  0.1525
 9492W        W25301  17.501  15.056   4.078  0.2491 -0.1152  0.0248
 9493W        W25302   0.114   7.027   1.247  0.4029  0.0319 -0.0797
 9494W        W25303  11.438   2.832   3.157  0.0715  0.2240 -0.0653
 9495W        W25304   1.040  16.306   3.873  0.0689  0.1822 -0.1164
 9496W        W25305  14.900  12.795  12.379  0.3867  0.1104 -0.1149
 9497W        W25306  15.466   6.076  13.654 -0.0072 -0.4259 -0.1903
 9498W        W25307  11.543  16.819  12.077  0.1042  0.2781 -0.1915
 9499W        W25308   5.194  14.680   4.908 -0.0555  0.0242 -0.0866
 9500W        W25309   6.424   4.352  10.729 -0.0219  0.1177  0.1509
 9501W        W25310   3.336  14.607  13.659  0.1591  0.0379 -0.0109
 9502W        W25311  10.864  15.641  14.372 -0.1471  0.1662 -0.0199
 9503W        W25312   1.025   2.233   4.629  0.0714 -0.4434 -0.5035
 9504W        W25313   1.647   7.655  15.283  0.1733 -0.2246 -0.1309
 9505W        W25314   1.019   9.040   0.887 -0.1673  0.1745  0.1257
 9506W        W25315  17.411   5.577   0.095  0.1400  0.1184 -0.2606
 9507W        W25316   5.301  14.773   3.919  0.3643  0.0114  0.0027
 9508W        W25317   1.908  12.770  12.898  0.3439  0.0972  0.0674
 9509W        W25318   6.425   8.962   4.115 -0.0575  0.1227  0.0890
 9510W        W25319   9.708   6.808  13.026  0.0550  0.0980  0.0884
 9511W        W25320   3.657  10.625  14.806  0.0702 -0.1202  0.0733
 9512W        W25321  12.631   1.420   1.973  0.1247 -0.1206  0.3304
 9513W        W25322  16.630   0.943   6.153  0.2769  0.1409  0.1237
 9514W        W25323  11.501  11.192  14.257 -0.1644  0.1399 -0.2236
 9515W        W25324   3.475  15.832   5.399 -0.0124 -0.1996 -0.1205
 9516W        W25325   6.027  16.895  11.539  0.0479  0.0483 -0.0611
 9517W        W25326   2.852   6.586   1.790  0.1746 -0.0420  0.0818
 9518W        W25327  18.162  14.512   3.721  0.2511 -0.1577  0.0677
 9519W        W25328  14.225   9.361  12.793  0.0031  0.0728  0.2970
 9520W        W25329   4.302   9.041   0.754 -0.2460  0.1821 -0.1488
 9521W        W25330  11.071  18.020   1.356 -0.2111 -0.0757 -0.0616
 9522W        W25331   5.548   8.922   0.360 -0.2722 -0.2433 -0.1291
 9523W        W25332   0.261   3.517  16.001 -0.1115  0.1091  0.3458
 9524W        W25333   9.362  17.220   0.792  0.1907  0.1856  0.0084
 9525W        W25334  16.593   9.129  11.363  0.2161 -0.1003 -0.0300
 9526W        W25335   3.311  14.420   2.886 -0.3603 -0.2232 -0.3261
 9527W        W25336  16.097   2.198  16.167 -0.1066 -0.2790  0.0134
 9528W        W25337   7.300  18.176   2.658 -0.2214  0.0171  0.0408
 9529W        W25338  10.525   9.962  15.067 -0.0329 -0.1701  0.3547
 9530W        W25339  11.021  14.823   1.840 -0.0919  0.4090 -0.1236
 9531W        W25340   8.817  12.359   1.444  0.1100 -0.4254 -0.2705
 9532W        W25341   1.535   8.356  12.700 -0.0395 -0.2984  0.1889
 9533W        W25342   7.395   3.014   2.187  0.1055 -0.0267 -0.1636
 9534W        W25343  17.929   2.536   4.577  0.1762 -0.0790  0.1442
 9535W        W25344   4.216   5.022  15.272  0.0810  0.0957 -0.0489
 9536W        W25345  13.065  15.784  13.434 -0.1131 -0.0275 -0.1843
 9537W        W25346   6.506  17.107   2.735 -0.0597  0.2222 -0.2606
 9538W        W25347  12.491  16.814  14.252 -0.0734  0.0513 -0.0105
 9539W        W25348   6.849   1.115  14.630  0.0018 -0.1481  0.2707
 9540W        W25349   5.651   3.278   1.985 -0.0438  0.0163 -0.0127
 9541W        W25350  15.537  11.107   0.096 -0.0015  0.1231  0.2572
 9542W        W25351  12.437   6.085   5.838  0.4701 -0.1086 -0.0940
 9543W        W25352   4.775   7.120  12.516 -0.3473  0.0537  0.4493
 9544W        W25353  13.287   3.610  15.603 -0.2605  0.3498  0.1767
 9545W        W25354   5.898  12.360   4.712  0.0668  0.3865  0.1303
 9546W        W25355  14.101   1.066   1.178 -0.0692 -0.4102  0.0833
 9547W        W25356  16.672  16.306  11.890  0.1890 -0.3507 -0.2378
 9548W        W25357  15.587  11.300  13.710 -0.0869 -0.2336  0.2251
 9549W        W25358   6.642  14.352   5.386  0.0875 -0.0967 -0.0490
 9550W        W25359   8.942   2.798   3.124  0.1012  0.0995  0.0278
 9551W        W25360  10.294   8.482  15.125  0.2172 -0.0692 -0.0108
 9552W        W25361  17.317   8.005   0.271  0.0717  0.0537  0.1629
 9553W        W25362  13.836   4.555   2.120  0.0977  0.1397 -0.3818
 9554W        W25363  12.212   2.944   3.915  0.1024 -0.5002 -0.2432
 9555W        W25364   8.440  15.149  15.997  0.0053 -0.2810  0.2157
 9556W        W25365  11.442   1.604   1.934  0.1040  0.2940 -0.1331
 9557W        W25366   6.957   2.058   0.735 -0.0144  0.1653  0.2847
 9558W        W25367   7.106   7.254   2.843  0.1092 -0.2086  0.1565
 9559W        W25368  15.014  15.492  13.490  0.1436  0.0748 -0.0475
 9560W        W25369   4.785  10.887  16.183  0.1216 -0.0636  0.2835
 9561W        W25370  17.465   0.655  12.046 -0.1045 -0.2015 -0.2509
 9562W        W25371  11.534   9.808   2.822 -0.0495 -0.0370  0.2966
 9563W        W25372   2.289   2.667   2.965  0.2150 -0.0151  0.1881
 9564W        W25373  13.807   3.362   4.681  0.1412  0.1108 -0.1986
 9565W        W25374  16.626  10.003  10.821  0.1499 -0.0757  0.0875
 9566W        W25375  13.757   1.110  11.160 -0.2220  0.0063  0.2262
 9567W        W25376  17.319  11.794   3.473 -0.0558 -0.4663  0.1539
 9568W        W25377   8.389   0.189  12.546  0.0245 -0.1044 -0.1501
 9569W        W25378  13.474  16.983   2.679  0.1037  0.1250  0.1759
 9570W        W25379   8.609   6.829  11.140 -0.0148 -0.2136 -0.0983
 9571W        W25380  14.762   0.768  15.574  0.1272  0.0067  0.2927
 9572W        W25381   5.298   6.344  11.580 -0.1744  0.4285  0.2310
 9573W        W25382  10.939  11.024  11.135 -0.1704 -0.0168 -0.0211
 9574W        W25383   3.747   1.464   1.635 -0.2298 -0.2436  0.0663
 9575W        W25384  12.247   3.716  10.733  0.0500 -0.3051 -0.1848
 9576W        W25385  10.926   2.293  10.256 -0.1221 -0.2164 -0.1457
 9577W        W25386   3.744  16.282  11.219 -0.2113  0.4451 -0.0720
 9578W        W25387  10.029   7.478   5.572  0.1480  0.0072  0.0465
 9579W        W25388   9.512  12.073   1.115  0.1882  0.1665 -0.2623
 9580W        W25389  16.371   2.449   4.384  0.0365  0.1897 -0.1499
 9581W        W25390  10.740   1.527  14.312 -0.2778  0.0122 -0.3575
 9582W        W25391   5.145  14.916   2.960  0.2199 -0.2092  0.2102
 9583W        W25392   8.513  17.908  15.949  0.1109  0.1325 -0.3588
 9584W        W25393   8.273  10.737   1.438 -0.2188 -0.2621  0.4087
 9585W        W25394  15.676   6.937   4.898 -0.2086  0.2765 -0.2701
 9586W        W25395  11.357   0.270   0.043  0.0025  0.1778 -0.2802
 9587W        W25396   5.827   3.645   3.166 -0.0805  0.2513 -0.0508
 9588W        W25397   1.321   9.741  14.756  0.4187  0.1283 -0.1419
 9589W        W25398   1.518  13.066  11.836 -0.2136 -0.1929 -0.4959
 9590W        W25399   1.522  10.401   4.456  0.3920 -0.3540  0.0088
 9591W        W25400   4.751   5.993   2.923  0.1425  0.1792 -0.0847
 9592W        W25401   2.581   3.506  12.306 -0.2523 -0.0612  0.2937
 9593W        W25402   8.067   7.725   2.835 -0.0345 -0.0082  0.1010
 9594W        W25403   5.602   1.391   3.194 -0.1204 -0.1738  0.0353
 9595W        W25404  12.732  15.007  16.009 -0.0443  0.4564  0.4105
 9596W        W25405   9.466   9.550  11.611 -0.2262 -0.0553 -0.3732
 9597W        W25406  14.558  16.133   3.852  0.2769  0.0913  0.2213
 9598W        W25407  12.177  14.550  11.901  0.3232 -0.1875 -0.2865
 9599W        W25408   3.893  12.402  15.376  0.1211 -0.2890 -0.3256
 9600W        W25409  14.086  17.359   4.934  0.3335  0.3598  0.2061
 9601W        W25410  10.437   7.858  11.687  0.1403  0.1846  0.0878
 9602W        W25411  18.032   1.432  10.601 -0.1808 -0.0114 -0.1456
 9603W        W25412  10.023  12.318  13.609 -0.1051 -0.0542 -0.1613
 9604W        W25413   6.485  18.176   4.746 -0.0713  0.2483 -0.0449
 9605W        W25414   8.695   2.777   0.662 -0.0289 -0.0835  0.2370
 9606W        W25415  10.268  15.679   2.210 -0.1091 -0.1146 -0.3278
 9607W        W25416   3.479  14.669   2.456  0.0139  0.0215 -0.0183
 9608W        W25417  18.159  13.670  11.393  0.0168  0.0950 -0.0410
 9609W        W25418   3.289   7.009  12.527  0.1602 -0.1581  0.3315
 9610W        W25419  11.823   6.833   5.535 -0.2539  0.2127 -0.1801
 9611W        W25420   4.022   1.497   5.190  0.3231  0.0647  0.1130
 9612W        W25421   7.997   3.526  16.045 -0.0175 -0.1914  0.0131
 9613W        W25422   7.803   4.929  14.798  0.1278  0.2029  0.1270
 9614W        W25423   2.943  10.970   2.858 -0.1061  0.2097 -0.0316
 9615W        W25424  14.648   3.228  13.561  0.1095  0.0170 -0.0398
 9616W        W25425  16.576  13.390  15.962  0.0683 -0.0205 -0.1101
 9617W        W25426  14.064   4.095  13.347  0.1554 -0.0543 -0.1586
 9618W        W25427  17.390   2.187  13.341  0.2130 -0.4180  0.2897
 9619W        W25428   9.866  15.295  13.613  0.0103 -0.2629 -0.1351
 9620W        W25429   5.624   3.734  14.651 -0.0004  0.3210  0.0465
 9621W        W25430  15.085  15.956   0.511  0.2440  0.0403  0.2018
 9622W        W25431   3.230  11.786   0.851  0.2262  0.1614 -0.0305
 9623W        W25432  11.644  11.353  11.298 -0.0277  0.0998 -0.1565
 9624W        W25433   5.690   0.409   5.159 -0.0750 -0.2830  0.2062
 9625W        W25434  16.512  15.566   5.363 -0.0436  0.0306  0.0178
 9626W        W25435   2.092  11.453  12.946  0.1910  0.2028 -0.1246
 9627W        W25436   1.093  10.044   3.229  0.1981  0.0989 -0.1043
 9628W        W25437   0.414   0.070   3.082 -0.1816 -0.1283 -0.2034
 9629W        W25438  14.946   9.270  13.839 -0.0345 -0.1076  0.0421
 9630W        W25439  14.023  12.062   0.312 -0.1043 -0.3201 -0.1060
 9631W        W25440   3.905  11.026  15.022  0.0106 -0.2016 -0.0697
 9632W        W25441  14.840  10.320  16.097  0.2161 -0.2593  0.0482
 9633W        W25442  10.647   3.346   4.263  0.0319  0.2768 -0.2081
 9634W        W25443   6.111   5.807   3.927  0.1234  0.1862 -0.2195
 9635W        W25444  15.851  17.263  14.281 -0.2212 -0.0501  0.1103
 9636W        W25445  10.217   0.774  11.878 -0.2624 -0.0746  0.1109
 9637W        W25446   6.789  11.884  15.361 -0.2829  0.0432  0.1811
 9638W        W25447  13.916   9.839  15.400 -0.0491 -0.1241  0.7354
 9639W        W25448  10.265   6.344  10.542  0.2070 -0.0030  0.0115
 9640W        W25449   0.371  12.371  11.991  0.1768 -0.1043  0.1209
 9641W        W25450  12.716  12.033  13.384  0.0680  0.1862  0.0845
 9642W        W25451  13.098   5.604  12.667  0.1413 -0.0480  0.0577
 9643W        W25452   1.143  12.410  14.979 -0.2225  0.2858 -0.1535
 9644W        W25453  11.789   5.896  11.598  0.2516  0.3034 -0.3441
 9645W        W25454   7.120   4.394  14.128  0.0242 -0.1307  0.1856
 9646W        W25455  14.701  12.881   3.272 -0.2025  0.0048 -0.2530
 9647W        W25456  14.935  11.334   0.275  0.1241 -0.2194 -0.0602
 9648W        W25457   4.733   2.075  13.454 -0.0783  0.0853 -0.0206
 9649W        W25458   3.042   1.762  14.645 -0.1020 -0.2950 -0.1894
 9650W        W25459   8.722  13.866  12.045  0.4420 -0.2844  0.1199
 9651W        W25460   6.631  12.297  15.610  0.1521  0.2074  0.1732
 9652W        W25461  17.409   1.673   4.604 -0.2602 -0.3809  0.1944
 9653W        W25462   5.205   8.005  16.018 -0.0540 -0.3039  0.2482
 9654W        W25463   4.478   9.842  13.430  0.1786  0.2670  0.1584
 9655W        W25464   3.960  17.291  16.095 -0.1473 -0.3901 -0.0606
 9656W        W25465   6.600  17.884  11.192 -0.1285 -0.1071 -0.0189
 9657W        W25466   8.327  11.052  15.103  0.2542 -0.0864  0.0054
 9658W        W25467  16.150  15.799   5.069  0.3222  0.2396 -0.1180
 9659W        W25468  13.313   0.562  11.098  0.4733 -0.0510 -0.0197
 9660W        W25469   2.640  11.729  13.958 -0.0696 -0.1825  0.1306
 9661W        W25470  16.510   7.683   1.250 -0.1538 -0.2395 -0.0121
 9662W        W25471  17.135   2.712   0.722  0.0159 -0.2049 -0.3229
 9663W        W25472  11.029   8.504   4.521  0.0473  0.1162  0.0016
 9664W        W25473  10.513   8.677  10.353  0.1317  0.1901 -0.1552
 9665W        W25474   7.138  15.032  14.608  0.1398  0.2543  0.1032
 9666W        W25475   1.398   9.825   2.535  0.0803 -0.3452 -0.2104
 9667W        W25476   7.918  14.323   1.411 -0.1513  0.3205 -0.0573
 9668W        W25477  13.258   4.212  12.094  0.1390  0.1543  0.0713
 9669W        W25478  14.287   3.634   2.058 -0.1464  0.0661  0.1303
 9670W        W25479  12.280  10.226   1.034  0.0444  0.1833  0.0030
 9671W        W25480   8.394   9.571  15.062  0.1967 -0.4213 -0.0236
 9672W        W25481   2.632  17.229   1.971  0.1277 -0.2056 -0.0606
 9673W        W25482  14.581   3.641  15.467 -0.1803  0.2034  0.1326
 9674W        W25483   0.989  12.562   4.231  0.1856 -0.1749 -0.1860
 9675W        W25484  17.367   8.362   1.833 -0.0750 -0.0336  0.2144
 9676W        W25485   1.324  13.570   0.163  0.0061  0.2749  0.2980
 9677W        W25486   6.369  12.094   2.700 -0.1915 -0.3128 -0.0308
 9678W        W25487   7.992  12.993  11.539  0.0176 -0.2172  0.2121
 9679W        W25488  15.149   4.260  12.585 -0.2186  0.1701  0.1200
 9680W        W25489  10.522  17.699  11.404  0.0166  0.1025 -0.2774
 9681W        W25490  18.060   8.204  13.402  0.3785 -0.1290  0.2074
 9682W        W25491  15.156  16.227  12.908  0.0521  0.2745  0.2954
 9683W        W25492  15.673   1.459   1.669 -0.2432  0.0883  0.1150
 9684W        W25493  15.168  16.385   0.223  0.1963 -0.3687  0.2387
 9685W        W25494   6.670  10.040   3.137 -0.2641 -0.1681 -0.0683
 9686W        W25495  18.052  12.706  15.815  0.0246 -0.0698 -0.0756
 9687W        W25496  11.399  16.708  16.040  0.0415 -0.1077  0.2596
 9688W        W25497   2.339   3.790   4.662  0.1633 -0.0616  0.1558
 9689W        W25498  14.837   5.444   0.432 -0.1263  0.2753 -0.1678
 9690W        W25499   9.290  14.606   5.524 -0.1255 -0.1748  0.2299
 9691W        W25500   3.007  11.508   3.731 -0.2280 -0.0361  0.5202
 9692W        W25501   3.694   2.340   4.453 -0.0413 -0.3069 -0.2696
 9693W        W25502   7.543  12.653   4.386  0.1242  0.2485  0.0202
 9694W        W25503   3.623   8.651  15.789  0.1768  0.0634 -0.0917
 9695W        W25504  14.927  12.462   3.722  0.0462  0.2358 -0.1140
 9696W        W25505  10.079   5.377   3.796 -0.2814  0.0651 -0.0746
 9697W        W25506   1.115  17.661  14.125 -0.0457  0.3365  0.0792
 9698W        W25507   5.496   1.478  11.112 -0.0504  0.0394 -0.1463
 9699W        W25508  13.468   0.312  15.908 -0.0938  0.0157 -0.1569
 9700W        W25509   1.807   3.258  11.506 -0.0167  0.2946  0.1796
 9701W        W25510   1.609   7.651  13.655 -0.0800 -0.1806  0.1663
 9702W        W25511   0.118   7.910   1.336 -0.3401 -0.2450 -0.0871
 9703W        W25512   3.103   8.746   1.859 -0.1208 -0.1058  0.1206
 9704W        W25513  14.094   1.628   0.430  0.0205  0.1515 -0.1683
 9705W        W25514  10.663   4.477  13.204  0.0109  0.2628 -0.2343
 9706W        W25515  11.502  14.563  15.873  0.2827  0.0888  0.3345
 9707W        W25516   4.176   2.982  16.300 -0.1592  0.1815  0.1610
 9708W        W25517   8.866  10.480  12.013 -0.1143 -0.0513  0.1026
 9709W        W25518   2.515  10.961   3.082  0.2216  0.3534  0.1435
 9710W        W25519   7.767   5.446  13.452  0.0549  0.2094  0.2717
 9711W        W25520   5.083   0.332   0.559 -0.0335 -0.0940  0.0410
 9712W        W25521   8.330  14.694  12.009 -0.2134 -0.2090 -0.0914
 9713W        W25522  16.026   6.944   4.032  0.2745  0.1006  0.4351
 9714W        W25523   2.499   9.727   5.336  0.1005 -0.0184  0.1407
 9715W        W25524   1.595   9.800   0.230 -0.0482  0.2265 -0.1883
 9716W        W25525   7.613   7.055   2.970 -0.0816 -0.1426 -0.0786
 9717W        W25526   1.946   2.757  14.217  0.1075 -0.0476 -0.0428
 9718W        W25527   1.481   9.800   3.048 -0.1265  0.0528 -0.3062
 9719W        W25528   4.484   0.832  11.975  0.0329 -0.1245  0.1975
 9720W        W25529   6.308   1.744   4.292  0.2241  0.0311  0.2659
 9721W        W25530   5.368  11.710   3.672  0.2135  0.1077 -0.2238
 9722W        W25531   7.764  12.717  11.922  0.3729 -0.2702  0.1285
 9723W        W25532   9.249  12.675  12.993 -0.1040  0.1439  0.3021
 9724W        W25533   2.444   0.669   1.333 -0.0419  0.0161 -0.2256
 9725W        W25534   2.106   5.094   2.780 -0.2567 -0.1928  0.1030
 9726W        W25535  15.817   9.285   4.290  0.0770  0.0657  0.0599
 9727W        W25536   4.918  15.015  15.783 -0.1582 -0.0334  0.2053
 9728W        W25537  12.945   2.383  12.664 -0.0176  0.0775  0.1185
 9729W        W25538   1.802  16.508   4.118  0.0801 -0.0525 -0.2324
 9730W        W25539   3.847  14.008   2.152  0.0025  0.2717  0.2156
 9731W        W25540  17.230  13.312  16.015 -0.2928 -0.0460 -0.0241
 9732W        W25541  13.530   7.216   4.943 -0.1021 -0.1188  0.1385
 9733W        W25542  13.228  15.138  11.887  0.2916  0.1489  0.2643
 9734W        W25543   6.264  11.018   4.652 -0.1136 -0.0780 -0.0443
 9735W        W25544   6.727   6.074  12.821 -0.0698  0.3318  0.2570
 9736W        W25545  13.021   6.420  14.717 -0.1258  0.0454 -0.0211
 9737W        W25546   1.787  10.529  11.693 -0.0441  0.2946  0.0388
 9738W        W25547  12.308   8.717  13.752  0.2213  0.1216  0.2440
 9739W        W25548  13.775  10.731  11.611  0.0286 -0.1827  0.1915
 9740W        W25549  12.243  18.059  15.679  0.1451 -0.2803  0.0376
 9741W        W25550   7.959   2.080  11.362 -0.1570 -0.2296 -0.1117
 9742W        W25551   5.258   3.402  15.249 -0.0351 -0.1632  0.1232
 9743W        W25552   6.179   1.787  13.017 -0.1656  0.0818  0.2221
 9744W        W25553   9.638  15.279  12.563  0.0737  0.1436  0.2804
 9745W        W25554  11.529   9.458  14.576  0.0216 -0.4084 -0.0112
 9746W        W25555   9.946   6.568   4.725  0.1710 -0.2441 -0.2310
 9747W        W25556  10.990  13.307  12.058  0.0864 -0.4798 -0.1317
 9748W        W25557   1.873   8.366   0.363  0.2915 -0.3278 -0.0406
 9749W        W25558  12.700   4.026  13.578 -0.0295  0.0794 -0.0660
 9750W        W25559  17.658   8.351  10.710 -0.0226 -0.2403 -0.0309
 9751W        W25560   8.618   1.499   4.903  0.0375  0.2115 -0.0394
 9752W        W25561   7.265   3.266   2.990 -0.0813  0.3324 -0.1365
 9753W        W25562   6.655  15.011   1.424  0.3191  0.2853 -0.1945
 9754W        W25563   5.935   8.198  13.855 -0.1122 -0.2687 -0.0028
 9755W        W25564   2.482   4.265  11.762  0.2212  0.0757  0.1980
 9756W        W25565   3.757   8.794   5.498 -0.1774 -0.2134  0.2226
 9757W        W25566   1.131  10.575   0.532 -0.0338  0.3323  0.0024
 9758W        W25567   1.981   0.969  14.081 -0.4710  0.0994  0.2163
 9759W        W25568   5.345   8.116  14.693  0.0858  0.2255  0.0178
 9760W        W25569   5.407  16.231  14.897 -0.0443 -0.2116  0.0777
 9761W        W25570   7.157  11.117   3.110  0.1164  0.5319 -0.0065
 9762W        W25571  10.722   2.094   2.021  0.0932  0.0809 -0.1854
 9763W        W25572   0.725   1.701  15.279  0.0008 -0.2633 -0.0081
 9764W        W25573  12.130  17.245   2.864  0.2615 -0.0912 -0.0910
 9765W        W25574  14.666   2.332   0.810 -0.1351  0.1108 -0.1287
 9766W        W25575  10.522  17.119   0.624  0.0240  0.1830  0.2298
 9767W        W25576  16.378   6.993  14.496  0.1702 -0.0906 -0.0402
 9768W        W25577   4.158  16.061  13.598  0.0989  0.0867 -0.3140
 9769W        W25578  10.965  10.481  16.200  0.2533 -0.4936 -0.0859
 9770W        W25579   6.965   5.778   1.725  0.0470 -0.1889  0.3472
 9771W        W25580   0.371   2.851   5.026 -0.1623  0.0802  0.0617
 9772W        W25581  13.745  13.102  14.963 -0.1068 -0.0643  0.1977
 9773W        W25582   7.137  16.566  12.353 -0.1396 -0.0081 -0.2478
 9774W        W25583  12.105  15.976   2.335 -0.3891  0.1000  0.1484
 9775W        W25584   3.268   8.945  16.181  0.2483  0.1495  0.0711
 9776W        W25585   8.263  11.904  12.369 -0.0388  0.2255  0.1569
 9777W        W25586   8.611  15.820   0.571 -0.2359 -0.1883  0.3045
 9778W        W25587   6.618   8.752   5.209 -0.0001  0.0372 -0.2519
 9779W        W25588  11.198  16.389  15.698  0.0677 -0.3268  0.0187
 9780W        W25589  10.079   5.525  11.780 -0.0477  0.1207 -0.1805
 9781W        W25590   9.123  17.877   0.363 -0.3387 -0.1766  0.2968
 9782W        W25591  16.298  13.079   5.405  0.1912  0.3038 -0.2291
 9783W        W25592   9.724   1.842   3.886  0.2133 -0.0295  0.0277
 9784W        W25593  14.372  14.142  13.300 -0.0284 -0.0086  0.1365
 9785W        W25594   4.794   4.250  13.311 -0.0766  0.1937  0.0852
 9786W        W25595   1.670   7.854  11.555 -0.0228 -0.1117  0.1932
 9787W        W25596   8.210   7.938   2.404  0.2114  0.1230 -0.0219
 9788W        W25597  12.175  16.850  13.857  0.1279 -0.4480 -0.0870
 9789W        W25598  16.070   1.144  13.618  0.0981 -0.1887 -0.0149
 9790W        W25599  10.157  11.743  12.845  0.0229 -0.1844 -0.1227
 9791W        W25600   9.118  15.515   4.046 -0.1494 -0.4304 -0.2940
 9792W        W25601  12.671  16.572  14.645 -0.1909 -0.0100 -0.0794
 9793W        W25602  17.522   5.964   1.290  0.2693 -0.1768 -0.2301
 9794W        W25603   0.033  12.315   2.273 -0.1744  0.0293 -0.0608
 9795W        W25604  10.654   2.993  15.073 -0.0300  0.0752 -0.2957
 9796W        W25605   5.767   7.703   2.945  0.0933 -0.0407 -0.0887
 9797W        W25606  17.817   8.197   3.412 -0.1948  0.1359  0.1027
 9798W        W25607   2.240   8.087   0.461 -0.2251  0.2173 -0.0636
 9799W        W25608  17.902  10.724   3.093 -0.0066 -0.0363 -0.2184
 9800W        W25609   7.994  14.887  14.741 -0.1689  0.1544 -0.0428
 9801W        W25610   0.447   4.186  12.026  0.4855  0.0627  0.0040
 9802W        W25611   5.423  15.446   1.816  0.0196 -0.2553 -0.3085
 9803W        W25612  12.706  11.057   2.983 -0.1203 -0.0336  0.2206
 9804W        W25613   0.205   7.949   4.717  0.3475 -0.0691 -0.1440
 9805W        W25614   0.346  11.967   3.186 -0.0381 -0.5419  0.0395
 9806W        W25615   1.809   8.851  12.828  0.1909 -0.1625 -0.1139
 9807W        W25616   8.928  11.289  15.602  0.0698  0.3136  0.3639
 9808W        W25617   8.521   3.533   2.448 -0.1746  0.0631  0.1195
 9809W        W25618   0.270   5.587   5.579 -0.0143  0.0434 -0.1080
 9810W        W25619   5.793  11.948  14.086 -0.0908  0.0103  0.0051
 9811W        W25620   5.709  12.534  15.223  0.1698 -0.0504  0.0495
 9812W        W25621   0.544  13.014   3.818 -0.2922 -0.3354 -0.3323
 9813W        W25622   2.189  10.022   3.227  0.1284 -0.2444  0.2878
 9814W        W25623  10.150  17.642  10.487 -0.1005 -0.0993 -0.1585
 9815W        W25624   0.877   7.007  13.759 -0.0117 -0.1055 -0.1599
 9816W        W25625  16.595  10.386  11.318 -0.1127 -0.0571  0.0562
 9817W        W25626   1.187  17.398  13.353  0.1757 -0.0030 -0.0363
 9818W        W25627   1.067  14.559   4.270  0.2277  0.2623  0.0821
 9819W        W25628  16.152   7.920  11.901 -0.2026 -0.0679 -0.0613
 9820W        W25629  12.731   3.607   3.168 -0.0882  0.1012 -0.0464
 9821W        W25630  12.968  16.263  15.610 -0.0599 -0.0612  0.1046
 9822W        W25631   8.745   7.287   3.029 -0.1803 -0.0629 -0.0338
 9823W        W25632   7.134  16.945  11.180  0.1630 -0.0148  0.1108
 9824W        W25633   9.451   3.276   4.866  0.1593  0.1614 -0.0441
 9825W        W25634  17.213  12.008   0.371 -0.1087  0.0452  0.2926
 9826W        W25635   5.942   3.979   3.541  0.0484  0.1103  0.3400
 9827W        W25636   2.372   2.573   1.482  0.2169 -0.0859 -0.0177
 9828W        W25637  10.265   2.956   0.836 -0.0246 -0.0904  0.0242
 9829W        W25638   0.236  16.093  15.086  0.1625  0.1416  0.1645
 9830W        W25639  14.596   5.385   5.133 -0.0943 -0.1409 -0.1007
 9831W        W25640  14.287   2.616   4.727 -0.1816 -0.1490  0.4613
 9832W        W25641   9.816   0.095   5.373 -0.1552 -0.0309  0.0731
 9833W        W25642   6.142   8.294  14.818  0.0552  0.1137  0.0895
 9834W        W25643   9.328   8.073   0.167  0.0501  0.2389  0.1009
 9835W        W25644   6.072   1.729  14.499  0.0322 -0.1614 -0.0140
 9836W        W25645  16.405  16.905  15.934 -0.1159  0.2286  0.2227
 9837W        W25646   4.365   9.469   1.301  0.3176  0.3573  0.3227
 9838W        W25647  12.786   4.875   0.969  0.3506  0.0088 -0.0273
 9839W        W25648   8.656  12.472   2.169 -0.0628  0.0022  0.0692
 9840W        W25649   3.672   7.204   4.863 -0.1607 -0.1868  0.0049
 9841W        W25650  12.387   0.706  12.229 -0.0126 -0.4076  0.0307
 9842W        W25651  10.702   4.630   1.509  0.3581  0.2698 -0.0407
 9843W        W25652  11.414   3.973  14.377  0.0274 -0.3206 -0.0268
 9844W        W25653  13.910   0.571  11.776  0.2020  0.0142  0.0275
 9845W        W25654  11.566   7.576   0.983 -0.3621 -0.0781 -0.2006
 9846W        W25655  18.069   4.655   2.546  0.2504  0.0480 -0.0017
 9847W        W25656  11.212   4.278  12.173  0.2697 -0.0143  0.0329
 9848W        W25657   0.313   2.789   3.181  0.3360 -0.2061  0.0879
 9849W        W25658   9.823   0.658   1.461 -0.2025 -0.0568 -0.1232
 9850W        W25659   8.408  14.619  11.427  0.3052 -0.1586  0.0999
 9851W        W25660  11.399   4.589  11.843  0.0513 -0.0950 -0.3933
 9852W        W25661  16.579   0.384   3.404 -0.3578 -0.0811  0.1152
 9853W        W25662  10.469   5.474  14.162  0.0979 -0.2868  0.1561
 9854W        W25663  13.777  16.531   2.865  0.1010 -0.0820 -0.0444
 9855W        W25664   2.370   6.499   1.653 -0.2267  0.1532  0.0538
 9856W        W25665  12.528   7.732  14.646  0.1284  0.0181 -0.2259
 9857W        W25666  16.675  10.878   3.386 -0.0726  0.0315 -0.1588
 9858W        W25667   1.964  17.822  11.623 -0.1971 -0.0892  0.2185
 9859W        W25668   0.895   8.673  15.629 -0.2567  0.0547 -0.1113
 9860W        W25669   1.513   9.311   0.455 -0.2142 -0.0036  0.1466
 9861W        W25670  13.057   0.969   1.096  0.1485  0.0412  0.1445
 9862W        W25671   1.741   8.941  14.435  0.2864 -0.1767 -0.0936
 9863W        W25672   6.529  12.925   1.795 -0.2762 -0.2599  0.0432
 9864W        W25673   4.457   7.686   2.330 -0.0694 -0.2231  0.0476
 9865W        W25674   5.881   7.712   3.982  0.2746  0.0883  0.0398
 9866W        W25675   1.285   5.230  14.109 -0.1092 -0.1222  0.1184
 9867W        W25676  16.362   2.319  12.048  0.0002  0.2270  0.0919
 9868W        W25677  15.507   4.555   1.197  0.1496  0.4521 -0.1905
 9869W        W25678   6.895  15.978  13.514  0.0895 -0.1878 -0.0688
 9870W        W25679   0.247   9.946   1.418  0.0946  0.0350 -0.1539
 9871W        W25680  16.057   1.223   2.025 -0.1347 -0.0126  0.1162
 9872W        W25681   3.152   0.634  15.421 -0.1473 -0.0432 -0.3025
 9873W        W25682  10.807   1.593  13.539 -0.2777 -0.1679  0.1277
 9874W        W25683  12.454   1.709   1.461  0.2510  0.0410 -0.4523
 9875W        W25684   9.509   2.568  14.310  0.0317  0.0784  0.0669
 9876W        W25685   3.741   7.827  16.352 -0.2235  0.3032  0.0174
 9877W        W25686   7.271  14.511   4.758 -0.4022 -0.1822 -0.0004
 9878W        W25687  15.536  14.620   3.792  0.1615 -0.2250 -0.0543
 9879W        W25688  13.738   4.630  12.052  0.1621  0.2530  0.0641
 9880W        W25689   5.011  15.585  14.366 -0.0207  0.0939  0.1667
 9881W        W25690  11.215   9.366   9.966  0.1123  0.0492  0.1402
 9882W        W25691   6.835  12.441   4.797 -0.0313  0.1656 -0.2395
 9883W        W25692   6.704  10.281   5.524 -0.2587  0.1410  0.0113
 9884W        W25693  10.028  17.596  11.158 -0.0773 -0.2311  0.1472
 9885W        W25694  11.564  11.296  13.789 -0.1990  0.2069  0.0645
 9886W        W25695   0.497  15.652  12.062  0.0087  0.1265  0.2393
 9887W        W25696   9.128   4.483   0.605 -0.3416 -0.0592  0.2563
 9888W        W25697  16.978  11.184  16.156  0.2484  0.0995  0.0406
 9889W        W25698  17.781  11.875   3.779  0.0969  0.0009  0.1231
 9890W        W25699  12.445  15.133   2.879 -0.0846 -0.0764  0.0931
 9891W        W25700   8.332   7.044  12.459 -0.3511  0.2226  0.0026
 9892W        W25701   7.518  10.360   1.575 -0.2544 -0.4583  0.1701
 9893W        W25702   4.429  16.919   4.586  0.0159 -0.0052  0.0702
 9894W        W25703  10.706  12.713   1.256  0.0505  0.2757  0.4259
 9895W        W25704   0.738   2.953   0.127 -0.1913 -0.1859 -0.0769
 9896W        W25705   2.205  11.804   3.419  0.1335 -0.1852 -0.0954
 9897W        W25706  16.253   2.358  15.364 -0.0055  0.3479 -0.4776
 9898W        W25707  10.224   4.359  13.651 -0.1837 -0.0699  0.0403
 9899W        W25708   0.098  17.908  16.111  0.0867 -0.0601 -0.0649
 9900W        W25709   2.207  10.850  13.635  0.0137 -0.1018  0.0184
 9901W        W25710   4.504   0.913  11.104 -0.4500  0.1285 -0.1578
 9902W        W25711   8.588  10.080  12.192 -0.1999 -0.1277  0.0384
 9903W        W25712   5.730   8.321   3.217  0.0961 -0.2271  0.1268
 9904W        W25713   8.047   6.583  12.616 -0.1097 -0.0971  0.0884
 9905W        W25714   9.363   7.674  13.857  0.0107 -0.3659 -0.0723
 9906W        W25715  12.037  13.403  16.284  0.1488 -0.2166  0.0471
 9907W        W25716   1.163  11.399  12.552 -0.0017  0.1311 -0.2129
 9908W        W25717   7.990  15.565  13.923 -0.2345  0.1283 -0.1894
 9909W        W25718  17.128  14.977   4.943 -0.1808 -0.0910 -0.0462
 9910W        W25719   8.295   2.874   3.857 -0.1666 -0.0008  0.0541
 9911W        W25720   8.723   9.209   0.232 -0.4654 -0.0239  0.1901
 9912W        W25721  14.969   5.958   2.060  0.1833  0.1841  0.1163
 9913W        W25722  13.756   8.466   0.587  0.1850 -0.1160 -0.0890
 9914W        W25723  13.071   6.699   1.004 -0.0206 -0.0807  0.0159
 9915W        W25724   9.344   6.223   5.331 -0.0181 -0.0508  0.0660
 9916W        W25725   3.990  11.989   4.451  0.0231  0.3309  0.1244
 9917W        W25726   6.990  17.777  10.892  0.2767  0.3101  0.0097
 9918W        W25727  15.383   1.798   0.939  0.0226 -0.3220 -0.0900
 9919W        W25728   7.463   1.828  12.911 -0.2001  0.2222  0.0689
 9920W        W25729   4.854  11.159   4.732  0.1275 -0.2643 -0.1289
 9921W        W25730   9.093  10.524   4.888 -0.0175  0.0865 -0.1229
 9922W        W25731  12.456  16.358  13.992  0.0973 -0.2495  0.2472
 9923W        W25732  15.758   5.367  13.197 -0.1114  0.0658 -0.0062
 9924W        W25733   9.452   5.644   5.361  0.1404  0.1082  0.2933
 9925W        W25734   1.022   2.657   0.458  0.1360  0.1225  0.1052
 9926W        W25735   2.681   4.295  13.474  0.1244  0.0565  0.0343
 9927W        W25736  14.666  14.801  14.659 -0.0820 -0.2941 -0.3210
 9928W        W25737  16.020  11.620   3.645  0.0185 -0.0813 -0.2572
 9929W        W25738   2.014  12.613  15.544 -0.0302  0.0817  0.0135
 9930W        W25739  17.662  14.765   5.136 -0.1105  0.1332  0.1453
 9931W        W25740  10.679   8.917  15.242 -0.1447  0.0205  0.1130
 9932W        W25741  10.169  14.544   5.489 -0.2674 -0.1099 -0.3176
 9933W        W25742  17.743   8.425   0.943  0.0190 -0.1151 -0.0339
 9934W        W25743   5.878  15.738   3.714  0.0841 -0.0417 -0.0789
 9935W        W25744   2.073   8.105   1.136 -0.1030  0.0641 -0.4171
 9936W        W25745   2.208  14.628  15.277 -0.1367  0.1554 -0.0451
 9937W        W25746   0.248   3.999  13.848 -0.2569 -0.0260 -0.0573
 9938W        W25747   6.676  13.522  12.652 -0.0267  0.1743 -0.1964
 9939W        W25748   5.159  14.155  12.733 -0.1936  0.1015 -0.1206
 9940W        W25749   9.345  18.192  13.679  0.3375 -0.4109  0.1492
 9941W        W25750   7.562   1.697  14.622 -0.1145  0.1150 -0.1894
 9942W        W25751  17.471  17.119  13.656 -0.1382 -0.1438  0.0817
 9943W        W25752  11.962   6.558   3.408 -0.0401  0.0984  0.0288
 9944W        W25753   1.474   3.325  12.938  0.3823  0.1402 -0.0972
 9945W        W25754   0.845  17.868   1.547  0.2570 -0.1014  0.0696
 9946W        W25755   3.688   8.339   5.619 -0.0807  0.2922  0.0410
 9947W        W25756  17.560   4.726   1.504 -0.1032  0.0070  0.1829
 9948W        W25757   4.470   4.090  13.698 -0.0230  0.1509  0.0352
 9949W        W25758  17.072  11.265  13.820 -0.3143  0.0943 -0.1042
 9950W        W25759  18.023  13.286   0.012  0.0580  0.0486  0.0440
 9951W        W25760  14.098   0.578  12.781  0.2667  0.6054 -0.2309
 9952W        W25761   2.706  16.278  15.533  0.0796 -0.1534 -0.0745
 9953W        W25762  14.864   1.304   1.446 -0.0480 -0.0883  0.1889
 9954W        W25763  11.117  15.300  14.168 -0.4006 -0.3985  0.4275
 9955W        W25764  16.521  15.047   0.246 -0.1337 -0.1399 -0.4224
 9956W        W25765  11.356   9.833   0.978  0.3204 -0.1610  0.2565
 9957W        W25766  13.466  17.618   0.592  0.0258 -0.2984  0.1161
 9958W        W25767  16.867  14.075   5.652 -0.1923 -0.1907 -0.2431
 9959W        W25768   3.837   5.367  15.386  0.1501 -0.2367  0.2542
 9960W        W25769   5.976   0.338   1.678  0.0060  0.1155  0.0584
 9961W        W25770  12.274  11.728   1.781 -0.1681 -0.1636 -0.0666
 9962W        W25771  15.506  10.430   1.221  0.2093 -0.2450  0.1530
 9963W        W25772   5.685  16.300   4.415  0.0057 -0.0501 -0.1490
 9964W        W25773  13.253   5.721   5.198 -0.0408  0.0047 -0.0590
 9965W        W25774   3.087  12.099   3.994  0.3771 -0.0369 -0.2891
 9966W        W25775  17.534   9.505   3.455 -0.1370 -0.0049 -0.1819
 9967W        W25776   2.067  10.823  14.988  0.0699  0.2355 -0.0248
 9968W        W25777   9.105  16.706  12.225  0.1592 -0.1300 -0.0700
 9969W        W25778  12.247   3.459  14.290  0.1342  0.1089  0.0182
 9970W        W25779   3.366   6.135  15.127 -0.0685  0.3334 -0.2618
 9971W        W25780   3.710   5.399  14.225  0.1211 -0.2808  0.0128
 9972W        W25781   7.568  18.083  13.602  0.0076 -0.2450  0.1548
 9973W        W25782  14.474   6.675   0.906  0.0302  0.0915  0.2859
 9974W        W25783   7.406   4.193   0.229 -0.2133  0.2367  0.0004
 9975W        W25784   3.464   8.819   4.965  0.0339 -0.2635  0.1290
 9976W        W25785   8.666  12.771  15.767 -0.2019 -0.1582  0.1372
 9977W        W25786  11.654   8.542   4.461  0.2776 -0.4286 -0.1139
 9978W        W25787   1.277   4.812   1.139 -0.0010 -0.3667 -0.1104
 9979W        W25788   2.924  13.234  15.377  0.0400 -0.0890 -0.2678
 9980W        W25789   5.832   3.594   1.012  0.1756 -0.0254 -0.0570
 9981W        W25790   6.942  15.848  13.041  0.1527  0.0586 -0.1567
 9982W        W25791  12.064   0.491  11.738  0.1055  0.0459  0.1518
 9983W        W25792   0.434  14.106   4.729  0.0035 -0.1572  0.1393
 9984W        W25793   5.617  15.769  12.479 -0.0899 -0.1214  0.2992
 9985W        W25794   4.277   8.715  11.348  0.0930 -0.1597  0.0145
 9986W        W25795  13.243   1.947  14.828 -0.0548 -0.0641  0.1521
 9987W        W25796  16.378  10.479   0.457 -0.0074 -0.1140 -0.0208
 9988W        W25797  16.589  10.105   2.785 -0.1010  0.3054  0.2862
 9989W        W25798  15.806   2.102  14.893 -0.2817  0.1341  0.0962
 9990W        W25799   9.767   0.727  11.585 -0.1209 -0.0883 -0.2128
 9991W        W25800   6.210   9.575  10.527  0.2756  0.0287  0.1845
 9992W        W25801  10.310  11.755  14.148 -0.0647 -0.0957  0.1459
 9993W        W25802   0.153   0.297   2.627  0.2412 -0.0945  0.2498
 9994W        W25803   8.993  15.775  15.667  0.0393 -0.0250 -0.4110
 9995W        W25804   9.830  12.821  12.922 -0.0608  0.0038  0.0158
 9996W        W25805   8.758   6.669  13.854  0.1496 -0.1139 -0.1969
 9997W        W25806  14.739   3.160  11.422 -0.2421 -0.1141  0.0152
 9998W        W25807   9.369  14.163   4.509 -0.0673 -0.2154 -0.0386
 9999W        W25808   6.535  16.677  14.072  0.0183 -0.0615 -0.1439
10000W        W25809   6.303  13.144   4.159  0.2494 -0.0678  0.1544
10001W        W25810   6.024  12.908   3.605  0.1320 -0.2592  0.0931
10002W        W25811  13.984   3.523  14.231 -0.0942  0.1943  0.4385
10003W        W25812   2.378   2.819   1.060  0.1057 -0.2364 -0.0577
10004W        W25813  14.455  14.884   2.024  0.0936  0.2261 -0.2687
10005W        W25814  10.783   0.014   4.266 -0.1012  0.0403 -0.1543
10006W        W25815  12.546   1.361  15.233  0.0047 -0.2465 -0.0825
10007W        W25816   8.202  16.014   3.854 -0.1793 -0.1826  0.0019
10008W        W25817   5.061  11.778  11.969  0.0917  0.0651 -0.0265
10009W        W25818   7.326  16.469  10.978 -0.2020  0.3151  0.0646
10010W        W25819   8.563   5.065   5.612  0.0186  0.1063  0.1610
10011W        W25820  10.566  12.982   2.825  0.0986  0.1152  0.0113
10012W        W25821  16.452  13.971   1.390 -0.0383 -0.0834  0.0455
10013W        W25822  15.322   7.358   2.355 -0.0686 -0.1393  0.1086
10014W        W25823   8.103  15.052   0.611  0.0263  0.0229  0.3985
10015W        W25824  12.936  14.984   4.289  0.2176  0.3061  0.0400
10016W        W25825   7.065   5.749   4.976 -0.0760 -0.0404  0.0152
10017W        W25826  15.110   7.286  13.289  0.2587 -0.0971  0.1833
10018W        W25827  12.373   2.573   1.436  0.0763  0.0801  0.0619
10019W        W25828   5.704  17.613  14.140 -0.0598  0.2576  0.1180
10020W        W25829  10.242   6.605   2.120  0.1714 -0.1689  0.0852
10021W        W25830   6.757  10.290   0.337  0.1820 -0.0840 -0.3655
10022W        W25831   9.743   0.150  14.424  0.1083 -0.1544 -0.1046
10023W        W25832  15.639  10.907  12.545 -0.2414 -0.1480  0.1092
10024W        W25833   8.971   2.458   0.888  0.0611 -0.2288 -0.0911
10025W        W25834   4.932  10.982   4.323 -0.1195  0.4516  0.1205
10026W        W25835  16.755   0.067  14.172 -0.0997  0.0280  0.0564
10027W        W25836   1.987   6.145   4.879 -0.0728  0.1914 -0.1504
10028W        W25837  12.821   4.020   5.092  0.0513 -0.0464  0.0425
10029W        W25838   6.969   8.042  15.783  0.1813  0.1863  0.2335
10030W        W25839   9.181   4.686  11.473 -0.0649 -0.1470 -0.2514
10031W        W25840   0.894   0.756  13.228 -0.1910 -0.1165 -0.0861
10032W        W25841  13.593   4.604   5.100  0.0702 -0.2212  0.0596
10033W        W25842  11.304  10.052   4.034  0.3006 -0.0683 -0.1734
10034W        W25843  12.780  15.110   5.097  0.0002 -0.2819 -0.0005
10035W        W25844   4.741  17.279  12.060 -0.1022 -0.1612 -0.0384
10036W        W25845   4.809   7.622  12.666 -0.1995  0.0007 -0.0308
10037W        W25846  14.074   3.881  12.592 -0.0604 -0.0634  0.0228
10038W        W25847   4.581  17.964   2.351  0.3581 -0.3264  0.2884
10039W        W25848   6.660   3.319   3.672  0.1927 -0.2693  0.0288
10040W        W25849   1.817  12.492  12.044 -0.0966 -0.0692  0.0809
10041W        W25850   8.263   2.804  11.997  0.1367 -0.1006  0.0483
10042W        W25851  13.326   5.388  16.035  0.1718  0.1478  0.1194
10043W        W25852  10.435   0.214  12.761 -0.0486  0.0560  0.1004
10044W        W25853  13.797  10.954   4.962  0.1140 -0.2392 -0.1620
10045W        W25854   9.632  12.123   2.251 -0.2574 -0.3339  0.0750
10046W        W25855  10.937   9.772   0.533  0.3376  0.2131 -0.0847
10047W        W25856   2.530  13.033  14.828 -0.3105  0.0297 -0.2722
10048W        W25857  10.752  14.924   4.288 -0.1547 -0.1731 -0.2382
10049W        W25858   8.126   6.396   1.014  0.2832  0.0710  0.1012
10050W        W25859   3.562  12.025   1.205 -0.0290  0.0364  0.1153
10051W        W25860   6.082   5.367  11.762 -0.3079  0.1710 -0.0103
10052W        W25861  15.022  18.034   0.266  0.0846 -0.1369 -0.2586
10053W        W25862   9.059  12.174   2.691  0.0629 -0.1030 -0.0699
10054W        W25863   4.363   3.923  15.924 -0.1832 -0.0062  0.1216
10055W        W25864   5.130   5.134  15.294  0.0278 -0.4568  0.1515
10056W        W25865   8.599   9.537   5.771  0.1875  0.1576 -0.0496
10057W        W25866   3.614   5.908   1.902 -0.0542 -0.0965 -0.2766
10058W        W25867   5.309  17.007  11.920  0.0724 -0.4929 -0.0317
10059W        W25868   3.398   1.982   4.362  0.0063  0.1246 -0.0772
10060W        W25869   2.885   2.961  15.801 -0.1226  0.2034 -0.0349
10061W        W25870   8.600  10.508   4.221  0.2470 -0.0122  0.0143
10062W        W25871  15.350   1.239   0.956 -0.1788 -0.3419 -0.3230
10063W        W25872   7.237  12.340   5.074 -0.0203  0.2823 -0.2396
10064W        W25873   2.950   9.382   0.196  0.0133  0.2456 -0.2386
10065W        W25874   5.903   1.266  10.787  0.1518  0.2501  0.3800
10066W        W25875  13.051   2.856  14.885  0.1371  0.2449 -0.0790
10067W        W25876  13.965   6.021  12.584  0.0920 -0.0195  0.1884
10068W        W25877   4.547  15.397  15.770  0.2550  0.1758  0.2204
10069W        W25878  13.724   2.631   5.494 -0.1023  0.0081 -0.2717
10070W        W25879   3.695  16.809   1.114  0.2083 -0.1652  0.0672
10071W        W25880   9.193   3.685   1.646 -0.0011  0.2503  0.0474
10072W        W25881   8.659   3.999   2.505  0.0981  0.4400 -0.2525
10073W        W25882  11.874  17.483  15.204  0.0109 -0.0689  0.1065
10074W        W25883   2.494  17.567  11.832 -0.0213  0.2086 -0.2354
10075W        W25884   4.990  10.123   1.121  0.1633  0.0536 -0.3173
10076W        W25885  10.260  16.078  13.721  0.1210  0.0375 -0.2127
10077W        W25886   2.884   9.755   3.495  0.1445 -0.1852  0.1813
10078W        W25887  12.486   5.398   1.731 -0.3825 -0.1446  0.1800
10079W        W25888   0.877   0.585   1.926 -0.0484 -0.0630 -0.2028
10080W        W25889  14.757  16.795   6.432  0.1823  0.1949  0.0772
10081W        W25890  15.135  13.611   4.943  0.1898 -0.2300 -0.0966
10082W        W25891   9.879  11.977  10.610  0.0366 -0.0257  0.1071
10083W        W25892  15.096   1.187  13.681  0.0052 -0.1285  0.2318
10084W        W25893   2.732  12.830  15.247  0.1996 -0.2331 -0.0464
10085W        W25894   8.395   3.884  12.118  0.2457 -0.2086  0.2901
10086W        W25895   9.546   8.259  15.783 -0.2850  0.2533 -0.0627
10087W        W25896   7.125  10.068  12.263 -0.2461 -0.1148  0.0353
10088W        W25897   7.595  10.905   2.711  0.1001 -0.2626  0.2770
10089W        W25898   6.933   7.755   3.716 -0.1483 -0.0802  0.1459
10090W        W25899  11.951  12.706   1.191 -0.2102  0.1043 -0.0569
10091W        W25900   8.319   5.827  12.874  0.0425 -0.1774 -0.0037
10092W        W25901   7.193  10.484   5.496 -0.2974  0.2904 -0.1481
10093W        W25902   5.955   6.790   3.339 -0.1332  0.0265  0.0450
10094W        W25903   2.184   0.492  11.924  0.1608 -0.0591  0.1533
10095W        W25904  16.901  13.572   2.338  0.1717  0.2110 -0.5582
10096W        W25905   6.960  15.750  11.929 -0.1354  0.0011 -0.1745
10097W        W25906   2.444  10.715   5.611 -0.0640 -0.0289 -0.4400
10098W        W25907  16.355   7.477  12.369 -0.0367  0.0810 -0.2193
10099W        W25908   5.567  14.754  15.554 -0.1431  0.2810  0.0321
10100W        W25909  11.432  14.987   2.067 -0.0865  0.1137 -0.0922
10101W        W25910   5.594   4.652   5.466  0.1292  0.0298 -0.2632
10102W        W25911   2.061  12.477   2.537 -0.0012  0.1523 -0.2374
10103W        W25912   6.224   7.251   1.638 -0.1362  0.0983 -0.1650
10104W        W25913  13.239  13.368  13.631 -0.0188 -0.4939  0.0225
10105W        W25914   4.819   8.933  11.580 -0.2959 -0.1345  0.1014
10106W        W25915  15.555  14.151   3.963  0.1438 -0.2298 -0.1047
10107W        W25916   4.113  10.324   3.164 -0.0222 -0.3780 -0.0849
10108W        W25917   7.853   4.487   0.988 -0.2394 -0.0723  0.1767
10109W        W25918  10.300   5.325   1.939  0.2357  0.1749  0.0690
10110W        W25919   3.256  17.207  14.690  0.1517  0.3076  0.0381
10111W        W25920  17.667   5.900  11.818 -0.1345  0.0356 -0.0872
10112W        W25921  17.714  13.853  11.258  0.0190  0.3662 -0.3746
10113W        W25922  12.724  11.906  11.885  0.2659  0.0743  0.1030
10114W        W25923   9.869  17.884  14.241 -0.1221  0.0289  0.1416
10115W        W25924   1.253   0.422  13.278 -0.2431 -0.0166 -0.1527
10116W        W25925   0.911  10.577   2.430 -0.1476  0.2907  0.1945
10117W        W25926  10.352   7.562  13.230 -0.1899  0.1259 -0.2575
10118W        W25927  11.465   1.490  11.861  0.2710  0.0422  0.1829
10119W        W25928   4.341   9.490  14.954  0.0137  0.0953  0.1371
10120W        W25929  12.952  17.029  14.232 -0.1191 -0.1348  0.0910
10121W        W25930   9.090   4.141   2.252 -0.0269 -0.2349 -0.0175
10122W        W25931  14.782   5.662  14.330 -0.2706 -0.1526  0.1236
10123W        W25932   1.824   5.996  14.614  0.1149  0.0310 -0.1083
10124W        W25933  14.165  11.397   5.041  0.1544  0.0651 -0.0740
10125W        W25934   1.892   5.889  13.622  0.2838 -0.0174 -0.1977
10126W        W25935  10.710  10.332  13.235  0.0379 -0.2606 -0.1470
10127W        W25936  17.549  14.817   3.635 -0.0799  0.0989 -0.1306
10128W        W25937   2.084   9.143   4.601 -0.2773 -0.0286 -0.0841
10129W        W25938   8.072   6.913   4.850 -0.1534  0.1045 -0.0138
10130W        W25939   7.667  10.703   4.463  0.2072  0.0806 -0.0263
10131W        W25940   4.109   2.518  11.018  0.0715  0.2325  0.1232
10132W        W25941  15.823   9.253  12.412 -0.0498  0.0809  0.0066
10133W        W25942  13.065  11.557   5.993  0.2994 -0.0132  0.1920
10134W        W25943   2.031  17.301   4.907  0.1422 -0.1602 -0.2657
10135W        W25944   9.603   2.266   6.280  0.1321  0.2477 -0.2443
10136W        W25945   2.907  15.253   0.319 -0.2439  0.0805  0.1389
10137W        W25946  13.864  15.564  16.120 -0.1197 -0.0608 -0.1017
10138W        W25947   8.837   0.001  13.938  0.1071  0.0772 -0.1587
10139W        W25948  11.453   0.999  14.639  0.3151  0.2416 -0.5175
10140W        W25949   1.942   3.924   1.483 -0.0251  0.0567 -0.0458
10141W        W25950   2.077   7.228   3.777  0.0478  0.2117 -0.1462
10142W        W25951   0.013   2.950  14.685 -0.4001 -0.0482  0.0295
10143W        W25952  16.321  11.783  13.877  0.1013 -0.0559 -0.1191
10144W        W25953  14.197   5.276  16.282 -0.3388 -0.1136 -0.0651
10145W        W25954   0.155   9.392  14.166  0.1653 -0.0397 -0.2233
10146W        W25955  15.487  13.291   5.303 -0.0198  0.1523  0.1037
10147W        W25956   3.829  17.253  11.418 -0.0852  0.1460  0.0549
10148W        W25957  14.416   3.188   0.336 -0.1359  0.0278  0.1128
10149W        W25958   4.408  12.185   3.277 -0.4889 -0.2154  0.2437
10150W        W25959  13.696   9.626   4.451  0.1672 -0.1871  0.0330
10151W        W25960   5.063  17.871   4.882  0.2324 -0.2277  0.0033
10152W        W25961  10.189   0.580   0.759 -0.2006 -0.1749  0.4765
10153W        W25962   6.755   9.740  13.406  0.1182 -0.1989 -0.2388
10154W        W25963   6.029   2.166   3.296 -0.0210 -0.0075  0.0408
10155W        W25964   8.185  15.370  11.639  0.1544  0.1944  0.0812
10156W        W25965   0.730  11.174  13.122  0.0701  0.0373  0.1328
10157W        W25966   5.849  16.033  15.771 -0.3113 -0.0251  0.1983
10158W        W25967   1.647   5.460   6.254 -0.2798  0.1494 -0.0247
10159W        W25968  11.209  11.984  11.907  0.1165  0.0109 -0.3155
10160W        W25969  17.313   6.073  13.657  0.2523  0.0824 -0.1404
10161W        W25970  10.011  17.080   0.625 -0.2442 -0.0796  0.2546
10162W        W25971  13.104   2.607   5.336 -0.2200 -0.3656 -0.0835
10163W        W25972   6.924   1.336  16.356  0.3038 -0.1620  0.3500
10164W        W25973   0.479  15.074  11.428  0.0795  0.0377  0.0187
10165W        W25974  15.650  13.860   1.506  0.2382 -0.0714 -0.1551
10166W        W25975  13.862   6.127   3.664 -0.2015  0.1072  0.0081
10167W        W25976   7.184  16.097  15.792  0.1390  0.1125 -0.2376
10168W        W25977   4.237   4.984   3.895 -0.1574 -0.1526 -0.1019
10169W        W25978  13.830   2.463  14.375  0.0280  0.0953  0.1871
10170W        W25979   3.217  15.123  14.521  0.1066 -0.1366 -0.1165
10171W        W25980  11.965   0.845  14.052  0.2907 -0.0449 -0.1755
10172W        W25981  13.996  15.070  12.181  0.1041  0.0231  0.0861
10173W        W25982   0.494  13.051  15.326  0.0996 -0.4021 -0.4702
10174W        W25983   0.160   6.835  13.013  0.2900  0.2676  0.0522
10175W        W25984  12.808  16.517   3.181 -0.2506 -0.1184  0.0586
10176W        W25985   2.649   5.136  16.024  0.0230 -0.0244 -0.0228
10177W        W25986  11.401  18.182   4.135  0.2964 -0.3538  0.1284
10178W        W25987  11.243  11.328   5.018  0.2651  0.1809  0.1536
10179W        W25988   9.378   4.908   4.088 -0.2096  0.1405 -0.1569
10180W        W25989   0.512   2.162  15.384 -0.2090 -0.1415 -0.1784
10181W        W25990   1.420   7.171  12.114 -0.1815 -0.2686  0.1456
10182W        W25991   5.276  17.043  15.283  0.2709 -0.0618  0.0203
10183W        W25992   4.912   2.353   5.170 -0.1143 -0.0766  0.0883
10184W        W25993   2.460  16.846  14.805  0.0839  0.3450  0.0969
10185W        W25994   5.635   3.575   5.073  0.1950 -0.1416  0.0079
10186W        W25995   6.228   2.170   1.395  0.0995 -0.3888  0.1153
10187W        W25996   2.413  11.273   1.820 -0.1729 -0.1605  0.1198
10188W        W25997  17.383  10.702   6.288 -0.2928  0.1280  0.0298
10189W        W25998   5.201  14.190  11.721 -0.1304 -0.0650  0.0110
10190W        W25999  17.432   2.643  13.482 -0.1639 -0.1039  0.0553
10191W        W26000  14.065   9.527   3.961  0.0059  0.0931  0.0297
10192W        W26001   9.343   0.987   3.903  0.1567 -0.0430 -0.0362
10193W        W26002  14.431   7.716   5.278 -0.0992  0.0760  0.2006
10194W        W26003   3.845  18.089   2.665  0.0554  0.1653  0.1210
10195W        W26004  16.101  11.079   1.895 -0.0174  0.0077  0.3702
10196W        W26005   8.941   0.838  13.921 -0.0183  0.1935  0.1735
10197W        W26006   0.338   0.303   4.378 -0.1813  0.1451  0.0411
10198W        W26007   4.746   1.733   2.513 -0.0677 -0.1573  0.0691
10199W        W26008   5.241  10.489   3.093 -0.0371 -0.5098  0.0392
10200W        W26009   1.485   8.248   2.059 -0.1470  0.0207 -0.0139
10201W        W26010  13.305  14.191  14.619  0.3240 -0.0011 -0.2429
10202W        W26011   4.288  16.990  10.979 -0.0765  0.2403  0.1121
10203W        W26012   5.508   4.088  13.812 -0.0344 -0.1812  0.1243
10204W        W26013   2.194   3.120   2.821  0.2107 -0.1044  0.0929
10205W        W26014   8.554  15.140   3.731 -0.4092  0.0909 -0.0368
10206W        W26015  11.606   9.418   1.811  0.2700 -0.2557 -0.0336
10207W        W26016   2.681  14.531   2.095 -0.1657 -0.0213 -0.0848
10208W        W26017  10.250   0.880   1.241  0.1574 -0.0396 -0.3869
10209W        W26018   0.068  12.290  14.766 -0.0753  0.1594 -0.1606
10210W        W26019   1.976  13.386  11.404  0.1768  0.2312  0.2042
10211W        W26020  12.718  11.393   2.446  0.1691  0.3144  0.2299
10212W        W26021   3.240   6.786   4.372 -0.2123  0.1117 -0.2339
10213W        W26022  16.866   1.229   3.328  0.1522 -0.1540 -0.5896
10214W        W26023   4.763   9.558   2.300 -0.2148  0.1139 -0.0380
10215W        W26024  10.599   4.774  15.431  0.1231  0.2289  0.1978
10216W        W26025  16.218   8.426   5.217 -0.1141  0.2664  0.0539
10217W        W26026   1.118   4.612  13.540  0.1812  0.0743  0.3337
10218W        W26027   6.246  16.844   0.354  0.4248 -0.1731 -0.3531
10219W        W26028  17.614  13.924   2.919 -0.0594 -0.1915  0.0003
10220W        W26029  12.150   4.642  11.006 -0.1897  0.0024  0.4196
10221W        W26030  11.174   5.996   0.028 -0.3694  0.3605 -0.0718
10222W        W26031  13.125  16.751   3.541  0.1829 -0.1851  0.0375
10223W        W26032  12.221   1.124   1.889 -0.3203 -0.1351 -0.1357
10224W        W26033   2.366   4.075  13.035  0.1415  0.2338 -0.0975
10225W        W26034  12.881   6.544  14.113 -0.1473 -0.1612 -0.0764
10226W        W26035   0.849  14.336  12.584 -0.0527  0.2263  0.0481
10227W        W26036   8.986  14.877  12.921 -0.1113 -0.2705  0.1502
10228W        W26037  10.303   8.461  10.875 -0.0461  0.3022  0.3096
10229W        W26038  12.010  12.280   2.414 -0.4959  0.1413  0.0894
10230W        W26039  15.829  18.005   3.059  0.1614  0.0736  0.3337
10231W        W26040  13.310  11.558  11.161  0.0642 -0.0968  0.0520
10232W        W26041   8.864   5.780  15.860  0.1349  0.0299 -0.4981
10233W        W26042  10.642   7.209   4.934  0.1926  0.0954 -0.2186
10234W        W26043   9.144   3.848  15.153 -0.0709  0.2006 -0.0446
10235W        W26044  12.873  11.117  15.303  0.1491 -0.2693 -0.0528
10236W        W26045   7.886   9.381   3.771  0.0186 -0.0470  0.3919
10237W        W26046   5.002  10.889  11.137 -0.1571  0.0492 -0.0463
10238W        W26047  11.320  13.280   4.207 -0.2964  0.2267  0.1786
10239W        W26048   1.921  12.994   2.418  0.2469  0.2553  0.0750
10240W        W26049   9.933   2.249   4.095  0.5221  0.0165 -0.3289
10241W        W26050   1.124   2.807   5.237 -0.3119  0.1107  0.2682
10242W        W26051  11.708  12.878  10.084 -0.0843  0.0409  0.0119
10243W        W26052  10.293  12.529   1.518 -0.5710  0.0553 -0.0385
10244W        W26053   8.422   8.370   0.577 -0.1955  0.1025  0.4051
10245W        W26054   8.794  10.071  15.764 -0.0325  0.0081  0.1674
10246W        W26055  18.138   1.462  13.563  0.2178 -0.1715 -0.1380
10247W        W26056   1.510  13.078   1.177  0.0389 -0.3812 -0.0870
10248W        W26057  10.738   5.639   1.453 -0.0939 -0.0558 -0.1195
10249W        W26058   5.459  12.563   3.096 -0.0405  0.2172 -0.0775
10250W        W26059   0.690   4.533  14.553  0.0413 -0.1018  0.1691
10251W        W26060   7.060  13.553  14.502 -0.2009 -0.2621  0.3166
10252W        W26061   5.462  17.273   3.367  0.0497 -0.2253  0.0079
10253W        W26062   6.523  13.288   4.575  0.2299 -0.0171  0.0441
10254W        W26063   5.856  14.066   1.215  0.2451  0.3409  0.1240
10255W        W26064   5.087   5.878  12.942  0.0118  0.3511  0.3006
10256W        W26065  10.335   2.367   4.923 -0.0595 -0.1105 -0.0551
10257W        W26066   8.531   8.149   2.757 -0.1915 -0.1361 -0.2061
10258W        W26067  11.760  14.202   0.226  0.3170 -0.1933 -0.0884
10259W        W26068  16.834  13.451   4.948 -0.0814 -0.3934 -0.0395
10260W        W26069  17.755  17.788   1.539  0.2582  0.1386 -0.1396
10261W        W26070  14.008  10.025   4.073 -0.1350  0.0754 -0.4293
10262W        W26071  17.376   7.960  15.628  0.0910  0.5813 -0.2392
10263W        W26072  12.227   2.436   2.559 -0.2909 -0.1090 -0.1168
10264W        W26073  12.559   9.039   2.686 -0.1034  0.3877  0.1075
10265W        W26074   7.444   7.112   0.187 -0.0646  0.0311  0.1051
10266W        W26075  15.044   2.696   4.067 -0.4620  0.0848 -0.0481
10267W        W26076   8.581   6.344  11.070  0.0795  0.0010 -0.0866
10268W        W26077  13.539  12.176  15.337 -0.1773  0.1254 -0.0234
10269W        W26078   6.980  11.736   5.436  0.0267  0.1248 -0.2528
10270W        W26079   5.042  17.775   3.842 -0.0168  0.0224  0.1787
10271W        W26080  16.616  12.289   5.270 -0.0777  0.3102  0.1646
10272W        W26081  17.190  16.710  14.548 -0.1863  0.0599  0.0699
10273W        W26082   7.484  16.742  13.376 -0.0983  0.2209 -0.0117
10274W        W26083   8.978   9.106   4.603  0.0433  0.0626 -0.0168
10275W        W26084  10.874   7.596   1.643 -0.1529 -0.0062  0.0064
10276W        W26085   1.899   7.560   2.010 -0.0215 -0.3122  0.2826
10277W        W26086   7.574  16.808   0.480  0.1437 -0.0771  0.0572
10278W        W26087   4.094  15.667   1.528  0.4208 -0.1849 -0.0079
10279W        W26088  17.733   9.529   3.978  0.2860 -0.1150  0.0036
10280W        W26089  11.245  16.643   5.592 -0.1312 -0.1119  0.2374
10281W        W26090   9.181   3.466  15.945 -0.4026  0.0595 -0.0528
10282W        W26091  11.918   3.659   2.118  0.0675  0.2019 -0.1611
10283W        W26092  15.053   1.781   1.384 -0.2495  0.1563  0.1056
10284W        W26093  16.985   0.013  13.482 -0.2565 -0.1505  0.0119
10285W        W26094   1.939  13.472   0.012 -0.0408  0.1420  0.0588
10286W        W26095  14.889   2.680  15.461 -0.1542  0.2058 -0.1264
10287W        W26096  17.143   8.958  16.048 -0.2533  0.5014 -0.0995
10288W        W26097   0.667   7.090  15.499  0.1941 -0.1350  0.2783
10289W        W26098   0.168  13.477   1.100  0.0122 -0.0984 -0.3307
10290W        W26099  17.517  17.004   2.364 -0.0300 -0.2611  0.0975
10291W        W26100   8.229   8.388   4.384  0.0995 -0.2046 -0.0710
10292W        W26101  12.577   0.343  13.814 -0.1186  0.2360  0.1100
10293W        W26102  11.657  16.644   1.192  0.0672  0.0584  0.2211
10294W        W26103  16.760   4.813   3.178 -0.2142  0.0032 -0.0180
10295W        W26104  17.601  15.142  11.103 -0.0491  0.1526 -0.0663
10296W        W26105   2.744   7.806   3.578 -0.1536  0.0371 -0.4282
10297W        W26106  16.502  10.730   5.406  0.0415 -0.3602  0.0334
10298W        W26107  16.232  15.858  14.427  0.0064  0.1402  0.1075
10299W        W26108  15.761   3.045   0.253 -0.0613  0.2528 -0.3213
10300W        W26109   2.385  12.771   2.134 -0.0176 -0.1819  0.0967
10301W        W26110   8.007  14.027   5.183  0.0291 -0.1348  0.0328
10302W        W26111  11.391   1.837   4.404  0.0622  0.0893 -0.3302
10303W        W26112  13.609  11.024  14.005  0.0242 -0.1770 -0.1542
10304W        W26113  12.278  14.457   0.594 -0.2831  0.0312 -0.1081
10305W        W26114  16.609  11.713   1.456  0.1528 -0.0359  0.0321
10306W        W26115   3.890   8.450   3.136  0.1786  0.3378 -0.0708
10307W        W26116  14.732   7.440  14.605  0.1926  0.1203  0.2846
10308W        W26117  12.075  10.950   2.155  0.1444 -0.1202 -0.1205
10309W        W26118  16.343   5.861   4.621 -0.1666 -0.2180  0.1617
10310W        W26119  12.634   5.661  11.911 -0.2097 -0.0574  0.1499
10311W        W26120  16.653   9.077   3.811 -0.0422  0.2036  0.0124
10312W        W26121   4.935   0.035   4.548 -0.0028  0.0744 -0.1864
10313W        W26122  11.969  14.307  14.599 -0.1051  0.1529 -0.0763
10314W        W26123  10.542  12.162  14.483 -0.0660 -0.0846 -0.1038
10315W        W26124   5.382  15.900   4.489  0.0117 -0.1346 -0.3729
10316W        W26125  11.857   9.493  12.620  0.0102 -0.0237 -0.2345
10317W        W26126   9.936   6.077   4.654 -0.0593  0.0507 -0.0462
10318W        W26127   9.417   5.310   0.331  0.0351  0.2655  0.0214
10319W        W26128   7.216  10.955   2.294  0.1666 -0.0360 -0.2780
10320W        W26129   9.944   7.530   0.083 -0.1894  0.0131  0.0501
10321W        W26130   6.985  11.594  13.553 -0.1069 -0.1636 -0.0883
10322W        W26131  15.140   8.015   5.850 -0.1564 -0.0498 -0.1475
10323W        W26132   9.611   8.533  13.931  0.1650  0.3146 -0.0328
10324W        W26133   8.865  13.346   2.253 -0.0090 -0.2023 -0.1926
10325W        W26134  12.073   2.230  11.246  0.1291  0.0697 -0.0049
10326W        W26135  11.447  11.587   2.297  0.0625 -0.3883 -0.4068
10327W        W26136  12.072   0.002   3.480 -0.1206 -0.0514 -0.3257
10328W        W26137  11.569  11.766   4.300 -0.2684  0.2500  0.2858
10329W        W26138  14.442   2.224   2.068  0.0083  0.0533 -0.1146
10330W        W26139   3.623  14.806  14.729 -0.0490 -0.0607 -0.1787
10331W        W26140  18.156  12.579   2.800 -0.2271  0.3058  0.0168
10332W        W26141  13.819   7.790  10.680 -0.1936 -0.0339 -0.2086
10333W        W26142   7.481  11.725  11.131 -0.0673  0.1935 -0.0617
10334W        W26143  12.726  13.853   3.542  0.1780  0.3367  0.1418
10335W        W26144   4.070  12.793  10.322  0.0967 -0.3479  0.0385
10336W        W26145   6.766  13.105  10.447 -0.2788  0.2411  0.1280
10337W        W26146   8.225   4.825  11.249 -0.0807 -0.1134 -0.0929
10338W        W26147   4.649   9.951  12.455  0.1028  0.2184 -0.2523
10339W        W26148   1.232  17.028  11.832  0.0599  0.1911 -0.0434
10340W        W26149   4.196   7.415   1.442 -0.2702 -0.2038 -0.0170
10341W        W26150   1.526  14.919   4.950  0.1877 -0.0174  0.1047
10342W        W26151  12.212  15.803  14.841  0.2342 -0.1295  0.1485
10343W        W26152   0.746   2.024   2.870 -0.1241  0.0416 -0.0284
10344W        W26153   8.241  16.244  11.986 -0.0811  0.0877 -0.0021
10345W        W26154   6.826   2.317  14.370  0.0842 -0.2654 -0.2219
10346W        W26155   5.295  17.553   2.783 -0.0614 -0.0143 -0.1084
10347W        W26156  16.992   2.201  12.042 -0.2660  0.1603  0.2202
10348W        W26157  13.141   3.331   2.929 -0.2691 -0.2248  0.0595
10349W        W26158  16.705   4.670  14.031 -0.0642  0.3680  0.2670
10350W        W26159  13.825  16.486  15.249 -0.1001  0.0189  0.0932
10351W        W26160   8.469  12.826   0.495 -0.0257 -0.2718  0.0889
10352W        W26161   7.585   4.219  13.519 -0.0094 -0.0508 -0.1126
10353W        W26162   1.432   2.106   5.643  0.0135  0.0952  0.1081
10354W        W26163   1.210   7.955  11.233  0.1511  0.2770 -0.0345
10355W        W26164   0.318  11.680   1.667  0.2201  0.0616  0.2608
10356W        W26165  15.391  16.753  10.114 -0.3123  0.1103 -0.2431
10357W        W26166  11.082   5.342  13.232  0.2668 -0.1023 -0.2146
10358W        W26167   6.939  13.931   4.077  0.0224  0.2592 -0.0721
10359W        W26168  11.773  14.640   0.466  0.1500 -0.0255  0.0773
10360W        W26169  17.363  17.496  13.304  0.1708 -0.2651 -0.4419
10361W        W26170  11.968   3.488  15.715  0.0397  0.0270  0.0530
10362W        W26171   0.221   4.658  12.024  0.0722 -0.0482  0.1026
10363W        W26172   2.135   7.329  15.883 -0.2494 -0.0313 -0.0777
10364W        W26173  15.404   4.739   2.538 -0.3923  0.1028 -0.0055
10365W        W26174   4.960   5.684  14.501 -0.0767  0.1877 -0.1063
10366W        W26175   9.022   6.357  13.532  0.1593 -0.3412 -0.0440
10367W        W26176   7.307   7.175   4.524  0.0856  0.2236 -0.2269
10368W        W26177   9.850  17.172   3.930  0.2008 -0.0135  0.1262
10369W        W26178   4.217  17.133   3.764  0.1307 -0.0055 -0.0434
10370W        W26179   3.819   9.436  14.762 -0.0424  0.0403  0.2060
10371W        W26180   7.821   2.781   3.744  0.0879 -0.0267 -0.0503
10372W        W26181  16.438   7.536   0.150 -0.0908 -0.1349  0.0798
10373W        W26182   4.636   2.414  13.778  0.3764 -0.0350 -0.0489
10374W        W26183  12.492   9.105  13.100 -0.1180  0.1562  0.0752
10375W        W26184  14.366  11.481   2.040 -0.3301  0.0962 -0.0209
10376W        W26185   6.072   1.983   0.629 -0.1222  0.0989  0.0471
10377W        W26186   8.990   8.601  13.063  0.1216 -0.0945 -0.3151
10378W        W26187   9.558  10.904   0.032 -0.2150 -0.1424  0.1149
10379W        W26188   8.049   0.284  14.542 -0.2965  0.0716  0.0971
10380W        W26189   7.850   1.202  13.460  0.0049 -0.0596  0.1245
10381W        W26190   6.185  15.072   3.878  0.0867  0.0948  0.4517
10382W        W26191  15.443   6.237   4.147  0.1142  0.1650 -0.0145
10383W        W26192   9.763   5.663  13.736  0.1565 -0.0124  0.3718
10384W        W26193   0.886   5.497   4.792  0.0887 -0.0387  0.0588
10385W        W26194  12.969   2.797  13.899  0.1358 -0.1707  0.4219
10386W        W26195  14.901   5.863  12.481 -0.0936  0.0798 -0.1674
10387W        W26196  16.211   9.361  16.244  0.2303  0.2308  0.0891
10388W        W26197   7.184  10.426  15.888  0.1519  0.4076  0.3347
10389W        W26198   8.032  11.099   1.823  0.0931 -0.0752  0.1416
10390W        W26199   2.422   9.361   1.138  0.0849 -0.1881 -0.2856
10391W        W26200  14.320   3.540   2.870 -0.1517 -0.0327 -0.0948
10392W        W26201  13.588  11.284   3.517  0.1903 -0.0968 -0.2438
10393W        W26202  16.703  11.234  14.671 -0.0814  0.0114 -0.0496
10394W        W26203  12.461   2.617   0.437  0.0479  0.1733 -0.0147
10395W        W26204   2.796   9.296   3.223  0.0480  0.1934 -0.4779
10396W        W26205  16.240   3.629  13.115  0.1082  0.4989  0.0346
10397W        W26206   3.089   9.865   4.603  0.0312  0.1248 -0.1992
10398W        W26207   0.084   1.815  13.101  0.1399 -0.0360 -0.1792
10399W        W26208  15.257  10.958  10.043 -0.1600 -0.0324 -0.0838
10400W        W26209  17.614  17.917  11.723  0.1106 -0.2153  0.0938
10401W        W26210  16.066   1.531   0.297  0.0377 -0.1251 -0.0336
10402W        W26211  10.633   7.609   1.049 -0.1512  0.2012  0.1552
10403W        W26212   2.247  13.068  11.645 -0.1321 -0.3375  0.0130
10404W        W26213   2.364   8.706   0.336  0.3120 -0.1142 -0.1573
10405W        W26214  11.825  14.834   3.586 -0.2615 -0.0594 -0.1388
10406W        W26215  12.373  13.211   5.382  0.0765  0.1040 -0.1993
10407W        W26216   3.365  10.105  12.883 -0.1381  0.0343 -0.1074
10408W        W26217   9.730  10.784  15.132  0.2770 -0.0312 -0.0065
10409W        W26218  11.135  13.592   3.101 -0.1999  0.2322  0.0855
10410W        W26219  17.087   7.072  16.065  0.1280 -0.0507 -0.1193
10411W        W26220  11.300  15.617   1.448 -0.1101 -0.1250 -0.0034
10412W        W26221   9.574   6.023  15.263 -0.1560 -0.0379  0.0324
10413W        W26222  11.018  10.175  15.024 -0.1186 -0.2708  0.1906
10414W        W26223  10.026   6.018   1.353 -0.0291 -0.0354  0.1392
10415W        W26224  15.685  16.923   2.439  0.0044  0.1622  0.0648
10416W        W26225   3.542   7.362   3.137  0.3292  0.3902  0.1075
10417W        W26226  17.171   3.259  15.308  0.2738  0.2059 -0.0839
10418W        W26227  15.756  12.154   5.554  0.0490  0.0520  0.0972
10419W        W26228   3.831   2.463   1.567 -0.1159  0.0843 -0.0077
10420W        W26229  13.977   3.629  15.496  0.0415  0.2701  0.0944
10421W        W26230   5.016  13.595   1.056 -0.1012 -0.0575 -0.0874
10422W        W26231   1.443   9.971  12.865 -0.1233 -0.1769 -0.2136
10423W        W26232   0.662   3.210  16.052  0.0024 -0.0259  0.1585
10424W        W26233   9.752  10.397  12.926  0.0132 -0.1765  0.1536
10425W        W26234  13.161  11.648  12.107 -0.1987 -0.2544 -0.0311
10426W        W26235   2.177  16.950  11.814 -0.3362  0.0831 -0.1103
10427W        W26236  18.057   5.309   3.201 -0.0512 -0.1743 -0.1273
10428W        W26237  12.342   5.086  13.650  0.0619 -0.3500 -0.1191
10429W        W26238   2.972   9.071   5.815 -0.0863  0.0554  0.0191
10430W        W26239   2.415   7.627   1.810 -0.0432  0.0199 -0.1473
10431W        W26240   1.700  14.690  14.453 -0.1339 -0.2436  0.0596
10432W        W26241  15.630  17.266  13.151 -0.2696  0.3824 -0.4201
10433W        W26242   8.706  11.224   3.708 -0.2129  0.0196  0.1327
10434W        W26243   6.390  11.845   0.137 -0.2495  0.2102  0.1075
10435W        W26244  12.825   8.955  11.596  0.2293 -0.0095 -0.3200
10436W        W26245   7.843  16.262   0.440  0.3005 -0.1132 -0.2555
10437W        W26246  13.092   8.504   4.685  0.1384 -0.0646 -0.0928
10438W        W26247   2.862  16.935  12.423  0.0714 -0.0615 -0.1177
10439W        W26248   8.325   9.917  15.697  0.2533 -0.0468  0.1050
10440W        W26249  10.513   3.713  14.526  0.1655  0.3572  0.1334
10441W        W26250  12.977   6.018   2.429  0.1682 -0.5301 -0.0691
10442W        W26251   0.393   7.121  12.094 -0.0652 -0.0323 -0.3105
10443W        W26252  10.203   7.605   3.516  0.0356  0.2735  0.0104
10444W        W26253  14.090   0.059   0.238 -0.0133  0.1743 -0.2713
10445W        W26254  11.434   9.026   3.493 -0.2771 -0.4752  0.2752
10446W        W26255  12.072   6.114  13.707  0.0034 -0.0932 -0.3580
10447W        W26256   0.407   6.646  13.879  0.0206 -0.0577 -0.0406
10448W        W26257  17.374  15.792   3.638  0.1160 -0.2100  0.1413
10449W        W26258  15.481   9.925   3.654  0.0186 -0.0012 -0.0398
10450W        W26259  17.040   5.871  12.220  0.1543 -0.0770  0.0775
10451W        W26260   2.751  12.978   2.565 -0.0603 -0.2033  0.1212
10452W        W26261   3.215  12.930   5.255 -0.3331  0.1885 -0.0507
10453W        W26262   3.484   9.429  15.902 -0.1550 -0.3832 -0.2080
10454W        W26263   0.825   4.029   0.705  0.0869 -0.0360  0.2362
10455W        W26264   9.528   5.126  15.203 -0.2297 -0.0126  0.2074
10456W        W26265   9.964   3.600  12.655 -0.3102 -0.0258 -0.0774
10457W        W26266   6.865   4.860   5.203  0.0142  0.1025  0.0701
10458W        W26267  17.979  16.222  12.540 -0.2628  0.0110 -0.1552
10459W        W26268  11.977   4.738  15.293  0.1257  0.1733  0.4051
10460W        W26269   1.614   3.595   6.273  0.0672  0.1425 -0.1527
10461W        W26270  17.296   4.484   3.994 -0.0625 -0.0567  0.0053
10462W        W26271   4.031   8.261  12.745  0.2652 -0.1296  0.0342
10463W        W26272   5.382   1.549  15.112 -0.0225  0.0642  0.0698
10464W        W26273   3.630   2.308  11.720 -0.1391 -0.0779 -0.2193
10465W        W26274   0.726   7.326   5.212  0.3579 -0.1826 -0.0056
10466W        W26275  13.616  12.677  15.761  0.0535  0.3622  0.0382
10467W        W26276  15.804   5.369  12.508 -0.0691  0.1412  0.2243
10468W        W26277  15.131   3.236   3.312 -0.1993 -0.0868  0.1230
10469W        W26278  16.604   6.782   4.808 -0.4130  0.1431  0.0544
10470W        W26279   1.324  15.814   3.876 -0.0770 -0.0074 -0.0504
10471W        W26280  11.908  15.556  14.163 -0.0766  0.1913 -0.2780
10472W        W26281   9.911   7.182  14.902  0.0785 -0.2393 -0.1555
10473W        W26282  16.351  14.452   3.395 -0.0816  0.0618 -0.2563
10474W        W26283   7.225  14.485  11.267  0.0965 -0.3071 -0.0304
10475W        W26284  14.561   7.133  12.343  0.1962  0.0252 -0.1566
10476W        W26285  17.534   3.152  13.541 -0.1662 -0.0703  0.1607
10477W        W26286   7.695   9.660   4.606  0.1814  0.1647  0.0754
10478W        W26287   5.967   2.963  11.256  0.4084  0.1221  0.1963
10479W        W26288  15.341  15.127  15.918 -0.0067  0.3202  0.0719
10480W        W26289   4.231   2.629  14.084  0.3672 -0.0506 -0.2294
10481W        W26290  10.082  13.036   5.276  0.0174  0.2069  0.1188
10482W        W26291   2.283   5.944  11.543  0.0699  0.1834 -0.2201
10483W        W26292   9.996   0.339   0.345 -0.1301  0.0263  0.1134
10484W        W26293   5.251  11.245   1.994 -0.0455  0.5522  0.1333
10485W        W26294  16.388   3.455  12.589  0.0124  0.2086 -0.3477
10486W        W26295   2.545   4.393  12.567 -0.2353 -0.2886 -0.1699
10487W        W26296   7.526  16.980   2.732 -0.0228  0.2849  0.0576
10488W        W26297  12.582  11.097   4.993  0.2330  0.1025 -0.2141
10489W        W26298  14.670  13.465  14.274 -0.4358 -0.0323  0.3612
10490W        W26299   8.017   2.628   1.146 -0.2254  0.1348  0.3790
10491W        W26300   1.098  18.180  12.951 -0.0062  0.4020 -0.2569
10492W        W26301   1.799   2.536   3.784 -0.0130  0.2447  0.0218
10493W        W26302  11.757  16.048   4.960  0.3360 -0.0799  0.3489
10494W        W26303  10.561   4.929  13.955 -0.1175 -0.4682 -0.1500
10495W        W26304   5.173   4.919   2.853  0.0124 -0.0826  0.1709
10496W        W26305   2.120  10.642  13.105 -0.2527 -0.3208  0.0513
10497W        W26306  12.888  11.945   4.462 -0.2612  0.0135 -0.0408
10498W        W26307  11.661   2.350   4.447  0.1469  0.0484 -0.1444
10499W        W26308  10.721   1.066   1.270 -0.0107  0.2572  0.1214
10500W        W26309   0.973   9.672   2.268 -0.1366 -0.1843 -0.2707
10501W        W26310   5.561   9.806   0.208 -0.0231 -0.2134  0.2458
10502W        W26311   4.738   1.706  11.305  0.0064  0.2025 -0.3634
10503W        W26312   9.173   2.146  15.822 -0.0794  0.0127  0.4920
10504W        W26313   5.425   2.215  10.745 -0.2388 -0.2620 -0.1331
10505W        W26314  17.470   5.200  15.982 -0.1349 -0.2779  0.1494
10506W        W26315   2.296   4.122  14.426  0.0627  0.3973  0.1272
10507W        W26316   3.781  16.794  12.852 -0.2130 -0.0662 -0.1842
10508W        W26317   4.719   8.458  12.182  0.0934 -0.2559  0.1234
10509W        W26318   1.012   2.357   5.541  0.1892  0.1867  0.1015
10510W        W26319  13.888   4.573  15.573 -0.1905 -0.2684 -0.0437
10511W        W26320  15.660  14.834  13.232 -0.0074 -0.0885  0.1360
10512W        W26321   2.896   0.163  11.450 -0.0023  0.0037  0.0490
10513W        W26322  17.200  11.803  15.346  0.0061  0.1791  0.2433
10514W        W26323   7.023   0.926  13.467  0.1404  0.1246  0.0994
10515W        W26324  15.067   0.178  14.856  0.0182  0.2791  0.1773
10516W        W26325   7.871   2.513  15.274 -0.1328  0.0802 -0.0537
10517W        W26326   2.864  13.868  15.333 -0.0991  0.0441 -0.2123
10518W        W26327   9.872   3.705   0.275 -0.1653  0.1049  0.0440
10519W        W26328  13.090  10.804  13.356  0.1059  0.1635 -0.0099
10520W        W26329   7.489  11.425   0.079  0.0247  0.1784 -0.2074
10521W        W26330   7.718   1.591  16.284 -0.1747  0.1946  0.0103
10522W        W26331   8.839   7.432  13.672  0.0610 -0.1075 -0.0441
10523W        W26332   2.349   1.332  11.633  0.1416  0.1234 -0.2402
10524W        W26333  11.076   5.736   4.330  0.1092  0.0619 -0.0329
10525W        W26334  15.046   8.832  10.321 -0.3520 -0.1821  0.1910
10526W        W26335  13.594   3.257  12.783  0.3287 -0.0426  0.2285
10527W        W26336  18.007   4.017  13.941  0.0495  0.2846  0.1022
10528W        W26337   9.757   1.117   4.391 -0.2296  0.1800 -0.3302
10529W        W26338   0.028   6.460   4.444  0.1209 -0.1395  0.1769
10530W        W26339   8.629   0.305   4.692  0.1841 -0.2768  0.0827
10531W        W26340  10.132  15.084  15.367  0.0186 -0.2649  0.0419
10532W        W26341  15.581   5.016   5.110 -0.0659  0.1001  0.0885
10533W        W26342  13.522  15.491  14.943  0.3136 -0.0431 -0.0659
10534W        W26343   2.370  13.213   2.370 -0.0923 -0.2412  0.3214
10535W        W26344   2.276   1.828   2.398 -0.2391 -0.0053 -0.1736
10536W        W26345  13.403   0.701   3.520 -0.0326  0.1724  0.0806
10537W        W26346  13.706   9.951   3.191  0.1176  0.0740 -0.0205
10538W        W26347  13.066   7.654  13.746 -0.0719 -0.2706 -0.2183
10539W        W26348   7.124   9.175  12.491  0.2188 -0.0903 -0.3374
10540W        W26349   6.941  10.654  11.492  0.1816  0.0922  0.0149
10541W        W26350  10.497  18.108   2.947 -0.2068  0.1655  0.1917
10542W        W26351  17.430  15.765   4.313  0.3543 -0.4148  0.1414
10543W        W26352   5.346  14.910   1.847 -0.1261 -0.3487  0.0670
10544W        W26353   2.313   1.348   1.061  0.1180 -0.2322  0.2584
10545W        W26354   5.131   9.904   1.592 -0.1693 -0.0775 -0.2615
10546W        W26355   3.544   3.106  15.192 -0.1086  0.0371 -0.0271
10547W        W26356  12.403   9.515  13.354 -0.3114  0.0544 -0.0210
10548W        W26357  18.096  14.057   2.740  0.0415 -0.1457  0.0213
10549W        W26358  16.935   2.814  13.988  0.0998  0.1246  0.0590
10550W        W26359   6.724   4.466   4.789 -0.4070 -0.0254  0.1084
10551W        W26360   0.038   9.540  10.916 -0.1565 -0.0595  0.1818
10552W        W26361   0.242   5.320   2.850 -0.0098 -0.1004  0.1295
10553W        W26362   1.783  17.315  13.379  0.0254  0.0807  0.0244
10554W        W26363  16.176   8.689  14.710 -0.0668  0.1759  0.0516
10555W        W26364  17.193  12.860  12.105  0.0273 -0.1264 -0.0627
10556W        W26365  15.256  14.317   5.579  0.4529  0.1089 -0.0936
10557W        W26366   8.977  17.663  13.726 -0.0022  0.1619 -0.0851
10558W        W26367  11.144   2.916   3.611 -0.0352  0.0490  0.1703
10559W        W26368   4.730   1.666  10.015 -0.0204  0.0632 -0.1161
10560W        W26369  16.704   0.302   0.630 -0.0539 -0.1500  0.1169
10561W        W26370   4.586   7.914  12.237  0.2846  0.0163 -0.2636
10562W        W26371  15.750  17.445  14.784  0.0311  0.1783  0.1090
10563W        W26372   0.713  18.168   5.522 -0.0433 -0.2396  0.0337
10564W        W26373  18.018   2.108  14.110 -0.2781  0.3005 -0.4017
10565W        W26374  13.345   4.646   3.896  0.3587 -0.0881  0.1176
10566W        W26375   3.754   6.320   2.973  0.3275  0.1879 -0.0307
10567W        W26376   9.137  13.707   4.416 -0.2581 -0.0843 -0.1318
10568W        W26377   5.815  13.189  14.635 -0.1256  0.2681  0.4286
10569W        W26378   3.645   1.395  14.140  0.1233  0.0604 -0.3527
10570W        W26379   2.154  16.142  14.273 -0.0421  0.3820  0.1725
10571W        W26380   9.903   4.952  14.920 -0.0673  0.0180 -0.0936
10572W        W26381   2.088  14.438   2.090  0.3532  0.2239  0.1898
10573W        W26382  14.162   9.907  12.081  0.0971  0.1048 -0.1427
10574W        W26383  10.621   5.420  15.304 -0.2747 -0.0765  0.1288
10575W        W26384  17.287   4.027  15.088 -0.0373  0.0647  0.0244
10576W        W26385  11.126  10.918  14.012 -0.0597  0.5315 -0.0630
10577W        W26386   3.327   1.801  15.085 -0.2092  0.0730  0.1005
10578W        W26387  16.891  10.374   5.342 -0.1252  0.0665  0.2536
10579W        W26388   2.070   2.394   3.360  0.1525  0.0370  0.0104
10580W        W26389  10.287   8.419   0.418 -0.2018  0.1414  0.1046
10581W        W26390   6.417  17.775  11.730  0.1099 -0.1519 -0.1617
10582W        W26391   5.284   9.601  11.662  0.0470 -0.0545 -0.2232
10583W        W26392   2.160  13.139   3.142  0.0796 -0.2307 -0.2935
10584W        W26393   3.518   8.866   2.312  0.1117 -0.3645  0.1237
10585W        W26394  11.828  13.625   3.385  0.0108  0.0499 -0.0141
10586W        W26395   3.170  10.909   4.632  0.0733  0.0196  0.0362
10587W        W26396  13.619   7.040  11.239 -0.0421 -0.0622  0.3519
10588W        W26397  14.566   3.948  13.503 -0.4306 -0.0931 -0.0854
10589W        W26398  12.350  15.740   1.197 -0.1800  0.3865  0.0871
10590W        W26399  15.967   2.329   3.972  0.0965 -0.2556 -0.2701
10591W        W26400   7.357   6.913  12.252 -0.0645 -0.0371  0.0942
10592W        W26401   4.752  13.033  14.450 -0.2291  0.0942  0.1081
10593W        W26402  13.864  14.582  14.552 -0.1169 -0.1270 -0.0735
10594W        W26403  10.612   9.717   1.498  0.2818 -0.2420  0.0512
10595W        W26404   1.298   4.381   0.101  0.0666 -0.1748 -0.2456
10596W        W26405   9.058   4.419   0.076  0.2702 -0.1951 -0.1252
10597W        W26406  18.079  14.413  10.810 -0.0991  0.1546  0.3799
10598W        W26407  13.032  13.593  11.862  0.0846 -0.0239  0.0586
10599W        W26408  11.729   1.315   0.811  0.0492  0.3455  0.2468
10600W        W26409  12.061  18.204   2.960  0.2490 -0.0845 -0.2424
10601W        W26410   6.296  11.487  16.106 -0.1582  0.2183  0.1117
10602W        W26411   2.552   6.922   3.888 -0.0623  0.0948  0.1463
10603W        W26412  12.874  10.471   2.097 -0.0646 -0.0559  0.2409
10604W        W26413  11.070  17.949  14.982  0.1331 -0.0256  0.0232
10605W        W26414  10.990   8.639  14.775 -0.3839 -0.0794  0.0581
10606W        W26415  14.065  10.956  11.230  0.0569 -0.4111  0.3480
10607W        W26416   3.063  14.204   4.199 -0.2138 -0.1024 -0.2661
10608W        W26417  14.375  16.708  13.961 -0.0724  0.0734  0.1020
10609W        W26418   7.462  10.267  13.828 -0.1012  0.0273  0.2332
10610W        W26419  13.341   4.839   2.904  0.1765  0.2816  0.1321
10611W        W26420   2.601   5.543  15.213  0.0300  0.0543  0.0164
10612W        W26421   1.685   6.874  15.951  0.0024  0.1284  0.0828
10613W        W26422   6.134   8.242   2.553 -0.3548 -0.2120  0.0308
10614W        W26423  13.701  10.727   1.882 -0.1159  0.3755  0.3026
10615W        W26424   7.656  12.860  12.853  0.1784  0.1514 -0.0629
10616W        W26425   3.765  10.408  11.596 -0.2135  0.1593  0.0293
10617W        W26426   0.412   5.764   4.709 -0.1755 -0.0710  0.1441
10618W        W26427   8.448   1.495   5.507 -0.0730 -0.0557 -0.2131
10619W        W26428   7.540  11.645   3.436 -0.0734 -0.0437  0.2869
10620W        W26429   7.442  11.850   1.798 -0.1798 -0.3273 -0.1218
10621W        W26430   0.352   1.176   0.644  0.1474  0.1768 -0.0430
10622W        W26431  15.675  11.223   3.603 -0.1793  0.0077 -0.1436
10623W        W26432  18.091   0.514   5.063  0.3200 -0.0492 -0.2148
10624W        W26433  15.561   1.559   0.211  0.1114 -0.1407 -0.1667
10625W        W26434   1.755   3.809   5.207 -0.0879 -0.0651 -0.1618
10626W        W26435   9.615  14.539  10.903 -0.1989  0.1148  0.4050
10627W        W26436  14.424  13.375  11.846  0.1181 -0.3993 -0.0041
10628W        W26437  10.314   9.573   4.296 -0.2449  0.0883  0.0197
10629W        W26438   4.314  13.923   0.206 -0.2940  0.0366  0.1149
10630W        W26439   7.521  10.864   4.002  0.0622 -0.1238  0.1687
10631W        W26440  14.139   6.533  12.715  0.2386  0.1343  0.0002
10632W        W26441  10.267  10.820   3.777  0.0108  0.0610 -0.1611
10633W        W26442  18.092  17.313   3.628 -0.1829  0.0167 -0.1493
10634W        W26443  15.341  12.587  14.139 -0.1042  0.0234  0.0478
10635W        W26444   0.250  12.112   2.682 -0.1195  0.0548 -0.2546
10636W        W26445   2.031  11.473   4.040 -0.2700  0.0872 -0.2336
10637W        W26446   5.478  17.656  14.632 -0.1419  0.1113 -0.0557
10638W        W26447   1.242  12.784  15.292 -0.1326 -0.2939 -0.0412
10639W        W26448   2.479  16.876  12.730 -0.0388  0.0145 -0.1666
10640W        W26449   5.277  13.003   4.003 -0.1103  0.3539 -0.1504
10641W        W26450   4.636  15.464  14.038  0.0592  0.2532  0.3669
10642W        W26451   2.230  12.176  15.694  0.0512  0.0710  0.1105
10643W        W26452   0.457   8.249  14.842 -0.1008 -0.0238  0.1113
10644W        W26453   3.604  10.203   3.116 -0.0571  0.0861 -0.2560
10645W        W26454   6.791  14.209   2.106 -0.1936  0.0726 -0.2426
10646W        W26455   2.530   7.489  14.997  0.0728  0.1723  0.0068
10647W        W26456  17.902  14.969   2.160  0.3780 -0.3235 -0.0787
10648W        W26457   0.857   5.833   1.102 -0.3120  0.2361 -0.0562
10649W        W26458   4.531  15.214  14.954  0.1811  0.0080  0.1851
10650W        W26459  11.936  17.156   4.518 -0.1510 -0.1565  0.1880
10651W        W26460   9.802   3.042   1.467 -0.1231  0.1057  0.2077
10652W        W26461  15.438  11.474  12.399 -0.1000  0.1678 -0.0086
10653W        W26462   4.908   3.806   1.312 -0.0649 -0.1034 -0.0113
10654W        W26463   5.832   8.953   2.918 -0.1095  0.0166 -0.1066
10655W        W26464  12.616  17.488   3.382 -0.1713  0.0952  0.3619
10656W        W26465   5.146  10.561   4.133 -0.1476 -0.3182 -0.1401
10657W        W26466  10.710   2.113   0.882 -0.0882  0.2611  0.2992
10658W        W26467  10.278   9.400   3.454  0.0542 -0.0914  0.0864
10659W        W26468   0.898   5.432   2.252  0.1921 -0.0892  0.0271
10660W        W26469   4.194  11.435   0.472  0.3062  0.2714 -0.0427
10661W        W26470   5.888   9.314  14.813 -0.0788 -0.0501  0.0871
10662W        W26471  11.402  15.806  12.518 -0.0225  0.1349 -0.0719
10663W        W26472   9.245   0.419  12.764  0.0913 -0.5450  0.0802
10664W        W26473  16.097  12.835   3.690  0.0933  0.0412  0.0498
10665W        W26474  14.497   4.690  13.362 -0.0560 -0.1765 -0.2424
10666W        W26475   7.580   0.142  14.511  0.3730 -0.2170  0.1580
10667W        W26476   3.569  12.927   3.811  0.1645 -0.4201  0.1142
10668W        W26477  15.671  13.088   3.487 -0.1227 -0.1218 -0.2365
10669W        W26478  10.419  12.473   2.054  0.4286 -0.0451  0.0502
10670W        W26479  11.573   3.403   0.861 -0.0834  0.3952 -0.2894
10671W        W26480   1.313  10.235  13.288 -0.2831  0.1184 -0.1413
10672W        W26481   1.897   0.755  12.576  0.3953  0.0889 -0.1445
10673W        W26482   7.415   3.200   1.273  0.2766  0.1701 -0.0559
10674W        W26483   6.882  13.267   2.032  0.2601  0.0766  0.0891
10675W        W26484   8.202  11.309  13.496 -0.1045 -0.0208  0.2286
10676W        W26485  17.355   8.761  13.101 -0.1621  0.0279 -0.3802
10677W        W26486   9.386  13.358   1.558  0.0021 -0.5299  0.0873
10678W        W26487  11.690   2.523  16.193 -0.2209  0.0415 -0.0620
10679W        W26488   2.022   5.464  14.518  0.1243  0.0024  0.2388
10680W        W26489   0.683  14.552   2.756 -0.1087  0.0922  0.0778
10681W        W26490   1.875   2.854  15.805 -0.2628  0.0911 -0.1909
10682W        W26491  18.015  11.583   5.444 -0.1423 -0.0658 -0.0010
10683W        W26492  13.181  11.404   0.188 -0.1842 -0.3620 -0.0620
10684W        W26493   2.340   1.039   3.311 -0.0883 -0.1689 -0.0682
10685W        W26494   6.692   8.681   3.691  0.1443  0.0939 -0.1422
10686W        W26495  13.501   1.921  13.782  0.0318  0.0406 -0.0737
10687W        W26496   6.132   1.012   1.998 -0.0958 -0.0377 -0.2151
10688W        W26497  11.305   2.453   2.880  0.2578 -0.1018  0.0159
10689W        W26498  17.200   1.757  13.120 -0.3235  0.2658 -0.0115
10690W        W26499  15.275   2.258   4.765 -0.1200  0.2837  0.1996
10691W        W26500   2.795   1.549  14.240  0.2111 -0.1604 -0.2022
10692W        W26501   2.313   1.365   2.480  0.1097 -0.0087 -0.2088
10693W        W26502  12.994   6.516  15.330 -0.4205  0.0747 -0.4185
10694W        W26503   4.261   7.067  14.493  0.1330 -0.0146  0.0646
10695W        W26504  13.512  11.747  11.682  0.1520  0.2453 -0.1291
10696W        W26505  17.838   2.052   0.856 -0.0954 -0.0918  0.1724
10697W        W26506   5.310   3.843  15.648  0.0885  0.3369 -0.0400
10698W        W26507   8.686   4.671   5.207 -0.3815  0.0004  0.0811
10699W        W26508  10.758   9.073  13.579  0.1419 -0.0317  0.4684
10700W        W26509  16.252  13.112   0.399 -0.0821  0.2981  0.0021
10701W        W26510   0.317   3.860   2.912 -0.1248 -0.1038  0.1111
10702W        W26511   8.283  10.344  10.262  0.0205 -0.0635  0.0155
10703W        W26512   9.426  12.563  10.343 -0.2165  0.2302  0.0727
10704W        W26513   4.259  15.678   5.053  0.0030  0.2027  0.0586
10705W        W26514  17.894  14.049  13.410 -0.0016 -0.0767  0.0481
10706W        W26515   4.832  15.479  11.405 -0.0655 -0.1480 -0.1765
10707W        W26516   8.440   8.267   2.101 -0.0697  0.1752 -0.1392
10708W        W26517   9.528   6.526   0.237  0.0799  0.1501  0.0201
10709W        W26518   2.294  15.682   3.709 -0.1192  0.0213  0.2359
10710W        W26519   7.701  14.797   4.653  0.0863  0.1848 -0.2021
10711W        W26520  16.695   2.129  14.703  0.1558  0.0687  0.0896
10712W        W26521   2.627  12.029   2.712  0.1396 -0.0240 -0.2255
10713W        W26522   4.409   5.369   2.303 -0.1063 -0.0085  0.3228
10714W        W26523   6.159   2.841  14.804 -0.1202  0.0788 -0.1608
10715W        W26524   5.925   1.622   3.925 -0.1603  0.2484 -0.2824
10716W        W26525  14.071   3.619  16.039 -0.3150 -0.1380 -0.2706
10717W        W26526   0.220  14.284  15.879 -0.1612  0.3268 -0.1586
10718W        W26527   5.637  12.737  14.650 -0.2640  0.2498 -0.1636
10719W        W26528   3.757  12.218   0.142  0.0789 -0.1340 -0.1910
10720W        W26529  11.033   5.599  12.790  0.0438  0.1877 -0.1591
10721W        W26530   1.286  15.349   4.791  0.2039 -0.0915  0.1455
10722W        W26531   0.790   3.670   5.578 -0.1430  0.0498 -0.1350
10723W        W26532   7.114   3.457   2.445 -0.1050 -0.0600  0.0763
10724W        W26533  10.932  16.720   2.605  0.1228  0.0984 -0.0894
10725W        W26534  16.582   0.725   3.920  0.0001  0.2110  0.1160
10726W        W26535   2.477   8.202   4.518 -0.0677 -0.1393  0.1400
10727W        W26536  14.295  10.076   1.706 -0.0023  0.0747  0.2382
10728W        W26537   4.139  16.014  15.581 -0.2244 -0.2426 -0.0272
10729W        W26538   4.037   2.383   2.371  0.0338  0.0478 -0.1048
10730W        W26539   9.789   3.013   0.922  0.1039  0.0849 -0.2441
10731W        W26540   3.256   9.490   3.359 -0.1069  0.1242  0.1353
10732W        W26541   5.458   0.028  12.017  0.1764  0.1857  0.1088
10733W        W26542  12.917   6.433   3.353 -0.0271  0.0093 -0.0138
10734W        W26543  10.333   5.668  15.997  0.0749 -0.1165 -0.0204
10735W        W26544   1.099   9.111   3.861 -0.0989 -0.1920  0.2005
10736W        W26545   3.732  10.663   4.411 -0.0609  0.2045  0.3559
10737W        W26546   9.198   4.322  15.030 -0.2327 -0.1968  0.2819
10738W        W26547  13.633   4.805   1.160 -0.1322 -0.0849  0.0980
10739W        W26548   8.302   0.535   3.672 -0.4434  0.1308  0.1778
10740W        W26549  14.387   4.542   5.384  0.1132  0.0257  0.1476
10741W        W26550   1.486  15.393  14.642  0.3086 -0.3296 -0.2304
10742W        W26551  11.067   7.100  12.878  0.0318 -0.0278 -0.0273
10743W        W26552   4.158  15.396  11.877  0.5173 -0.1390 -0.1347
10744W        W26553  15.516  15.198  12.853  0.1848  0.1641 -0.0208
10745W        W26554  16.395   3.395   5.637 -0.1916  0.0443 -0.2383
10746W        W26555  16.581   0.294  12.175  0.2070 -0.1680 -0.1406
10747W        W26556   2.507   1.728  14.743 -0.1494  0.4353  0.1362
10748W        W26557   4.327  16.290  15.999 -0.2244 -0.1235  0.1880
10749W        W26558  17.093  14.762  13.400  0.1913  0.1913  0.1097
10750W        W26559   7.007  11.206   0.073 -0.2868  0.1275 -0.2364
10751W        W26560   7.495  16.283  16.157  0.2561 -0.1550 -0.1178
10752W        W26561   0.688  15.466  14.113 -0.0667 -0.1274 -0.0465
10753W        W26562   1.359  18.026   1.213 -0.0908  0.2889  0.4017
10754W        W26563  14.233   5.580   4.766  0.2073 -0.2302  0.2152
10755W        W26564   3.535  13.454  10.782  0.2260  0.2313 -0.0120
10756W        W26565   5.330   9.570  13.874  0.1249  0.1166  0.0128
10757W        W26566   6.911  17.819   4.835 -0.0455  0.1006 -0.2418
10758W        W26567   9.425  18.139  15.956  0.1212 -0.0578 -0.2231
10759W        W26568  13.843   1.070  14.959  0.0926 -0.0442  0.5067
10760W        W26569   1.262   8.135   4.415 -0.1150  0.1142  0.0324
10761W        W26570   9.971   0.705   3.147 -0.1585  0.0455  0.0491
10762W        W26571  16.655  11.744   4.561 -0.0532  0.1119  0.3360
10763W        W26572  10.942  14.045  12.651 -0.1273 -0.0806  0.0570
10764W        W26573   3.068   3.341   5.655  0.0186 -0.4631 -0.0179
10765W        W26574  17.500   9.032   3.140  0.3685 -0.1110 -0.0550
10766W        W26575  10.201   7.414   2.619  0.0046  0.0661  0.1744
10767W        W26576  12.440  12.748   2.134 -0.2008  0.0846  0.2675
10768W        W26577  10.354  10.672  13.555  0.1162 -0.0215 -0.1167
10769W        W26578  10.424  15.788   4.267  0.0055  0.0551 -0.0488
10770W        W26579  16.754   3.358   2.231 -0.1042 -0.1205 -0.1228
10771W        W26580   8.974   3.231  10.953 -0.2853 -0.0311 -0.1027
10772W        W26581   0.008   0.847   3.062 -0.2005  0.0884 -0.0861
10773W        W26582   0.165  10.350   4.333  0.3259 -0.2300 -0.0297
10774W        W26583  17.085   2.207   2.209  0.3506 -0.0549 -0.0303
10775W        W26584   6.631  17.386  15.106 -0.0322 -0.0968 -0.4484
10776W        W26585   5.552   5.466   1.607 -0.1343 -0.0781  0.0482
10777W        W26586   3.142   3.578  12.546 -0.2036 -0.3059  0.2207
10778W        W26587   8.465   5.780  13.820  0.2534 -0.2532 -0.1499
10779W        W26588   1.271  14.899  14.816  0.1082 -0.1487  0.2329
10780W        W26589   2.207   2.983  12.893  0.0130 -0.0188 -0.1059
10781W        W26590  13.633  13.905   2.135  0.0456 -0.0798  0.1181
10782W        W26591   6.069  10.279   0.805  0.0487 -0.1523 -0.1181
10783W        W26592  10.393  15.565  14.538 -0.0567 -0.0014 -0.0534
10784W        W26593   0.504   1.712  14.440 -0.0622 -0.2269 -0.2110
10785W        W26594   4.207  15.281  16.131  0.4034 -0.1409  0.0973
10786W        W26595   3.698  15.939  13.437 -0.0341 -0.3663  0.0892
10787W        W26596   7.544   7.806   2.051  0.2395 -0.0130 -0.3605
10788W        W26597   9.959  13.903   4.886  0.1333  0.4075  0.1748
10789W        W26598  15.669   2.859   2.716  0.2169 -0.2144 -0.1079
10790W        W26599   0.599  11.043  12.013  0.4579  0.3305  0.0432
10791W        W26600   6.680   5.160  11.247  0.0631  0.1555  0.1143
10792W        W26601  13.992  10.120   5.214  0.2837  0.4698  0.2039
10793W        W26602   6.605   7.365   2.872 -0.1532 -0.4243 -0.1943
10794W        W26603   9.694  17.074   5.491 -0.1634  0.3081  0.0953
10795W        W26604   8.980   4.248   5.928  0.0178  0.0032 -0.0048
10796W        W26605  14.172  14.293  12.467  0.0800 -0.0343 -0.1996
10797W        W26606   1.176  17.928   4.201 -0.1594  0.2446 -0.0977
10798W        W26607   9.004  11.590   4.832  0.0443  0.0851  0.0293
10799W        W26608   0.556  14.888  15.685  0.0164  0.1661  0.0968
10800W        W26609   9.986  14.105   3.746 -0.2269  0.0864 -0.2944
10801W        W26610   2.903   8.405  15.650 -0.0582  0.3785 -0.1425
10802W        W26611  13.647   5.722  11.161  0.0658  0.3260 -0.1390
10803W        W26612   6.986   2.149  11.968  0.1074  0.0039  0.1653
10804W        W26613   6.500   5.114  16.293 -0.3612 -0.2544  0.0077
10805W        W26614   7.875  15.018   5.112  0.1807  0.0160 -0.3420
10806W        W26615  13.151   4.492   4.853 -0.1153 -0.2557 -0.0034
10807W        W26616   0.540  15.398   2.298 -0.3128 -0.0610  0.3449
10808W        W26617  14.455  14.711  12.397 -0.1230  0.0171 -0.3670
10809W        W26618   1.740   4.794  15.172 -0.3148 -0.1497 -0.1382
10810W        W26619  17.261   4.437  13.193  0.0523  0.0407  0.0369
10811W        W26620  10.323   0.821  15.253  0.0896 -0.1262  0.0549
10812W        W26621   9.191  17.789  11.447  0.0453 -0.2106 -0.1759
10813W        W26622   0.978   4.105  11.975  0.2713 -0.0856  0.2511
10814W        W26623   3.430   2.759   4.252  0.0897  0.1176 -0.3709
10815W        W26624   1.755  16.947  13.773  0.0698 -0.1099  0.1047
10816W        W26625  13.809  16.507  11.345  0.0279 -0.1133  0.1801
10817W        W26626   8.961   8.882   5.527  0.1936  0.3925  0.1056
10818W        W26627  12.269   8.664  16.071  0.0895 -0.0791 -0.1721
10819W        W26628  14.952  13.981  12.535  0.0647 -0.0485  0.2049
10820W        W26629  10.213  15.320   3.096  0.3461 -0.0987 -0.1741
10821W        W26630   6.848   2.474  15.022 -0.2035  0.0633  0.0660
10822W        W26631  17.343   4.614  10.553  0.2026 -0.1573  0.2608
10823W        W26632  11.013   7.958  12.630  0.0148  0.1909  0.3002
10824W        W26633  11.458  13.898   1.154 -0.2394 -0.0018 -0.3212
10825W        W26634  13.598  10.492   0.327  0.3730  0.2092 -0.1372
10826W        W26635  11.352   8.633   3.991  0.1845 -0.1938 -0.2119
10827W        W26636  15.260   0.130   4.049  0.4057  0.0825 -0.1441
10828W        W26637   6.129   2.815  13.929  0.2222 -0.0589 -0.3316
10829W        W26638  15.223   1.646  12.223  0.0122 -0.1970  0.2300
10830W        W26639   4.667  15.178  16.298 -0.1307 -0.0201  0.0796
10831W        W26640   1.464  14.838  15.684 -0.3152 -0.1137  0.0749
10832W        W26641  10.681  10.851  13.245 -0.1533 -0.1676 -0.2430
10833W        W26642   8.284   8.836   0.821 -0.0847  0.3394  0.1779
10834W        W26643   7.415  12.478   5.560  0.1251  0.0216  0.1037
10835W        W26644   7.706   4.923  13.325 -0.0556 -0.1085 -0.1974
10836W        W26645  17.932  10.929  10.964  0.0573  0.2462  0.5078
10837W        W26646   4.332  17.073   5.127  0.0200 -0.0568 -0.4313
10838W        W26647   0.863   6.177   4.213 -0.0703  0.0171  0.1787
10839W        W26648   8.566   1.714  15.369  0.0514  0.0271 -0.1909
10840W        W26649   0.435  11.836   1.051  0.0256  0.0152  0.2817
10841W        W26650   6.390  11.421   4.245 -0.0068  0.2401  0.3652
10842W        W26651   5.656   3.615   2.337 -0.0350 -0.1084 -0.0580
10843W        W26652  16.299   8.708   3.562 -0.0034  0.1255 -0.0611
10844W        W26653  17.628  11.095  12.739  0.2186  0.0396 -0.2179
10845W        W26654  14.716   8.731  12.530 -0.1505 -0.0821 -0.0856
10846W        W26655  10.030   8.154  12.742 -0.1823 -0.0227 -0.2045
10847W        W26656   2.452   8.586   4.177  0.0156  0.2808  0.1353
10848W        W26657   6.617   5.489  15.067 -0.1302 -0.1044 -0.0688
10849W        W26658   9.588   8.749  14.382  0.1697 -0.1994 -0.0065
10850W        W26659   2.633   7.946  10.558  0.1708  0.0147  0.0135
10851W        W26660   9.433   0.375   0.936 -0.0480  0.1247  0.1244
10852W        W26661   0.841  16.974  13.459 -0.0331  0.0770 -0.0399
10853W        W26662  11.460  17.687  11.571  0.1545 -0.0667 -0.1716
10854W        W26663   5.473   7.205  15.410  0.2221  0.3923 -0.2866
10855W        W26664   8.757  16.517   2.501  0.2785  0.1743  0.0001
10856W        W26665   3.514   5.615   3.036  0.0724 -0.3349  0.0119
10857W        W26666  10.017   0.152  12.462 -0.2570  0.0114  0.4360
10858W        W26667   7.328   2.532  12.621  0.2203  0.0723 -0.1287
10859W        W26668  11.539   6.414   5.471  0.1359  0.0064  0.0724
10860W        W26669  15.918   8.554   3.050 -0.2184  0.3011 -0.2403
10861W        W26670  15.993   1.914  12.743 -0.1454 -0.0998 -0.2468
10862W        W26671  17.359   1.775   1.678 -0.2100  0.2956  0.0113
10863W        W26672  13.616   5.217   3.155 -0.0229 -0.1159  0.2396
10864W        W26673  14.645   7.596  11.505 -0.1641  0.0234 -0.0867
10865W        W26674  13.169   7.949   3.517  0.0605 -0.1410 -0.1604
10866W        W26675  17.887  16.337   1.519  0.2937  0.2168  0.0752
10867W        W26676   6.200   0.996  14.048 -0.3937  0.2207  0.0639
10868W        W26677   8.935  10.130   1.943 -0.1628 -0.0650  0.4205
10869W        W26678  16.687   3.023   5.814 -0.1487 -0.1248 -0.1001
10870W        W26679  11.426  12.067  14.050  0.1277  0.0189  0.1817
10871W        W26680  14.796  14.921  11.528  0.2271  0.1420  0.2393
10872W        W26681  13.727  11.003   2.300 -0.0221  0.1707 -0.0553
10873W        W26682  12.133   8.336   2.587  0.0069  0.1516 -0.1272
10874W        W26683   4.339   0.182  12.747 -0.0738  0.0759  0.1060
10875W        W26684  14.077   2.423  14.817  0.1840  0.3653 -0.1436
10876W        W26685   0.923   8.512   4.410  0.1359  0.3092 -0.3651
10877W        W26686   7.519   0.594  12.064  0.0595 -0.1239  0.0654
10878W        W26687  17.616  17.001   4.362 -0.0193 -0.3010  0.1463
10879W        W26688   7.552  12.210  15.911 -0.0398 -0.0440  0.2072
10880W        W26689  15.725  15.659  16.186 -0.1262 -0.0594  0.1042
10881W        W26690  11.881  13.146   4.322  0.1814  0.2579  0.1178
10882W        W26691   7.925  13.272   4.932  0.1770 -0.2629 -0.2157
10883W        W26692  15.088   9.959   1.520 -0.3181 -0.0163 -0.2190
10884W        W26693   9.253   3.538  14.182  0.2047 -0.2880  0.0677
10885W        W26694   4.551   6.298  15.293 -0.1567  0.0235  0.1609
10886W        W26695   9.256  16.591  14.630 -0.3738  0.1889 -0.0326
10887W        W26696  16.402  14.096  11.774 -0.3686 -0.0654 -0.0239
10888W        W26697  13.542   6.877  15.811 -0.2209  0.4096 -0.1556
10889W        W26698  15.811   3.962  11.934 -0.1473  0.0095  0.1569
10890W        W26699   3.036  17.674   0.294  0.3381 -0.0967 -0.3166
10891W        W26700   4.154   7.629  12.010 -0.0637  0.0546 -0.1795
10892W        W26701  10.546   9.806  11.450 -0.2612  0.1566  0.1875
10893W        W26702  16.405  16.799  14.085 -0.0276 -0.1662  0.0712
10894W        W26703   0.672  14.375  12.104 -0.0222 -0.3068 -0.1192
10895W        W26704   9.717  15.929   2.029 -0.0663  0.1369  0.0377
10896W        W26705  10.528  13.318   1.833 -0.1397  0.0317  0.0874
10897W        W26706   0.707   3.100   3.928 -0.1056  0.0429  0.0703
10898W        W26707   7.779  18.033   4.596 -0.1118  0.0266  0.0122
10899W        W26708   1.681   6.315  13.573 -0.0228 -0.0776  0.2408
10900W        W26709  11.074   6.234  11.077  0.2501  0.2783 -0.2836
10901W        W26710  17.664   3.792   4.363 -0.0815  0.0739 -0.0440
10902W        W26711  14.812   7.076  11.297  0.1538  0.0448  0.2269
10903W        W26712  15.981   1.501  14.925 -0.3022  0.0596 -0.1553
10904W        W26713  12.865   7.941  11.321  0.2485 -0.2028 -0.0024
10905W        W26714   7.118  17.864  12.900  0.2341 -0.2978  0.2044
10906W        W26715   8.257   9.144   3.058  0.0313  0.2017 -0.3573
10907W        W26716   3.597   9.756   0.317  0.0623 -0.2541  0.0605
10908W        W26717   3.663   2.223  13.546 -0.1811  0.3721 -0.3088
10909W        W26718  10.674   7.885   3.573  0.1123  0.0791 -0.1682
10910W        W26719   7.132  16.463  15.219 -0.2409 -0.2521 -0.0177
10911W        W26720  11.794   0.595   4.912 -0.0103 -0.0499  0.3877
10912W        W26721  13.809  17.736   3.741  0.6170  0.1582  0.1693
10913W        W26722  10.516  17.082   2.787  0.0339  0.2045 -0.1870
10914W        W26723   0.113  10.074   3.106  0.1339 -0.2961  0.0730
10915W        W26724   4.284   5.480  12.965  0.0664 -0.0698 -0.2950
10916W        W26725   5.279   4.217  14.655 -0.0192 -0.3329  0.1935
10917W        W26726  10.431  14.566  13.623 -0.2946  0.0144 -0.1419
10918W        W26727  13.995   9.462   3.164 -0.0053  0.2845 -0.3149
10919W        W26728  13.393   1.544  16.252 -0.1964 -0.1792 -0.1362
10920W        W26729   8.939  15.514  13.269 -0.1048 -0.2275 -0.0793
10921W        W26730   5.505   8.470   5.801 -0.0501  0.3055 -0.4018
10922W        W26731  14.409   2.163   4.648  0.3496  0.0413 -0.1374
10923W        W26732   2.744  13.057   2.116 -0.0523 -0.0878 -0.0329
10924W        W26733   6.915  10.017   1.647 -0.1000 -0.1410  0.1993
10925W        W26734   7.705   0.657  14.518 -0.2165  0.1601  0.0040
10926W        W26735   6.634   6.864  15.160  0.2154 -0.0857 -0.1856
10927W        W26736   6.802   4.362  15.968  0.1171  0.1687  0.0656
10928W        W26737   0.293  12.688  11.175 -0.0702  0.3636  0.1476
10929W        W26738  14.386  12.006  16.222  0.1798 -0.0248 -0.0105
10930W        W26739  17.772  10.995  15.474 -0.0096 -0.0071 -0.5864
10931W        W26740   7.061   9.513  15.601 -0.0273 -0.0141 -0.1365
10932W        W26741   3.478  13.072   0.379 -0.5658  0.1771 -0.0188
10933W        W26742  16.714   7.815   3.137  0.0655 -0.0214 -0.0202
10934W        W26743   0.449   8.583  13.852  0.1078  0.1913 -0.1084
10935W        W26744   4.755   8.532   1.462 -0.0121  0.1667 -0.0387
10936W        W26745  13.436  15.537  15.885 -0.0819 -0.1847 -0.1513
10937W        W26746  10.388   1.050  13.527 -0.0876  0.0145  0.1324
10938W        W26747   3.564  10.256  15.437 -0.1686 -0.1243 -0.0651
10939W        W26748  17.324  13.838  10.786  0.0965 -0.4514  0.1134
10940W        W26749  11.762   8.972  15.837  0.2650  0.0780 -0.1173
10941W        W26750   3.951   2.219   0.553  0.3638 -0.1114 -0.0437
10942W        W26751   6.640   4.647  15.089 -0.0821  0.1351  0.1467
10943W        W26752  15.967  17.380   4.368  0.1490  0.0821 -0.0869
10944W        W26753   5.325  17.927   9.912 -0.3237 -0.0900 -0.0817
10945W        W26754  10.084  13.204   2.307 -0.0015 -0.0450  0.0691
10946W        W26755   1.363   6.222   2.502 -0.1683 -0.0064  0.1254
10947W        W26756  15.704  13.598  14.916  0.1053 -0.1559 -0.0856
10948W        W26757   5.544   2.563   2.154  0.1195  0.1356 -0.1608
10949W        W26758  14.304   4.967  14.362  0.0142  0.3435 -0.2555
10950W        W26759   1.924   5.085  11.925  0.1470  0.0602 -0.1542
10951W        W26760  10.944   5.003   0.719 -0.0263  0.1867 -0.2457
10952W        W26761  11.372   4.953  13.459 -0.0574 -0.0379  0.0506
10953W        W26762  10.269   2.379   0.729 -0.1484  0.2898 -0.0361
10954W        W26763   2.209  14.007  14.413  0.0125  0.1167 -0.1222
10955W        W26764  11.999   1.517  11.891 -0.1213  0.0434 -0.0655
10956W        W26765  15.059   6.686   0.758 -0.0724 -0.2725 -0.0309
10957W        W26766  17.073   3.326   4.397  0.2402  0.1055  0.1454
10958W        W26767   6.527   2.189   2.655  0.2349 -0.0196  0.1201
10959W        W26768   3.710   5.164   1.521 -0.0287 -0.1853  0.1574
10960W        W26769   4.651   7.843   0.609  0.0391 -0.2278 -0.1007
10961W        W26770  10.661  15.890  13.349  0.0912  0.1747  0.1253
10962W        W26771   7.926   9.733   5.136 -0.2705  0.1674 -0.0967
10963W        W26772   6.913   1.225  12.547 -0.3552  0.1479 -0.0390
10964W        W26773  17.014   2.852  12.606 -0.0296 -0.0970 -0.0831
10965W        W26774   6.673   5.213   3.745  0.0571 -0.0907 -0.2344
10966W        W26775  13.237  11.220   2.330 -0.0255  0.0156 -0.0827
10967W        W26776  10.653   7.158   0.508  0.6849 -0.2018  0.0607
10968W        W26777   5.429   6.420   4.115 -0.2803 -0.1316  0.1468
10969W        W26778  16.737   3.191  13.072 -0.0545  0.0169 -0.2900
10970W        W26779   4.734  14.539   3.055  0.0566 -0.0186 -0.0014
10971W        W26780  16.676   1.097  11.557 -0.0040 -0.0898 -0.0027
10972W        W26781  15.822   4.835  11.196  0.0411 -0.1429  0.1411
10973W        W26782   7.357   2.425  14.055 -0.2259  0.2089 -0.1890
10974W        W26783   6.536   4.683  11.259 -0.1966  0.0395  0.1785
10975W        W26784  13.657  12.750   1.826  0.2636 -0.1278 -0.1964
10976W        W26785   3.030  14.368   2.428 -0.1045 -0.0777  0.1260
10977W        W26786   8.460  15.216  15.363  0.1158  0.0615  0.0582
10978W        W26787   7.053   3.815   0.132 -0.1547 -0.0625  0.2162
10979W        W26788  16.915  15.677   3.552  0.2554 -0.1612 -0.0726
10980W        W26789   2.581  15.474   3.253 -0.3584  0.1838 -0.1087
10981W        W26790   7.963  11.347   3.471 -0.1390  0.1382  0.0690
10982W        W26791   3.000   2.240  12.614 -0.0216  0.2761 -0.1809
10983W        W26792  13.299  13.502   0.312 -0.0133 -0.1006  0.1639
10984W        W26793  17.807  13.945  12.857  0.2190  0.2768 -0.1664
10985W        W26794  10.962   3.455  14.358 -0.1376  0.1500 -0.3633
10986W        W26795  10.991  17.659  11.680  0.1523  0.1133  0.1384
10987W        W26796  17.466   6.898   4.319 -0.2260 -0.0813 -0.1138
10988W        W26797  15.508   4.161  12.260 -0.0457 -0.1107  0.1503
10989W        W26798   9.178   5.089  13.332 -0.1258 -0.1050 -0.0747
10990W        W26799  12.431  15.368  13.905  0.2175 -0.0469 -0.2839
10991W        W26800   0.934   3.992   1.600  0.1684 -0.2566  0.0671
10992W        W26801   5.803   6.339  11.413 -0.3944  0.0033 -0.2387
10993W        W26802  11.156   0.799   1.483 -0.2528  0.2411 -0.1917
10994W        W26803   9.587   4.338  13.563 -0.2148 -0.4128  0.1462
10995W        W26804   3.677   0.881  12.597 -0.1130 -0.1298 -0.0213
10996W        W26805   6.895  11.923  12.988  0.0186  0.0495  0.1978
10997W        W26806   4.679  11.101  14.362  0.0815 -0.2307 -0.3891
10998W        W26807   0.167  11.167   2.661 -0.2750  0.1494 -0.0164
10999W        W26808  12.110   9.876   3.754 -0.0093  0.1399  0.3482
11000W        W26809   2.425   2.455   3.778 -0.2950  0.3420 -0.4249
11001W        W26810   1.627   7.221   5.549  0.3308 -0.2352 -0.0643
11002W        W26811  14.444   6.122  12.771 -0.2197 -0.1156 -0.0840
11003W        W26812   4.891   2.594  14.797  0.1176 -0.0922  0.3605
11004W        W26813   7.996  13.847   3.260 -0.0084  0.2236 -0.2874
11005W        W26814  17.927   4.680   0.082  0.2864 -0.0447 -0.3250
11006W        W26815   4.803   5.486   1.461 -0.0216  0.1098  0.0898
11007W        W26816   4.379  11.497   3.882 -0.1279  0.1256  0.0920
11008W        W26817  11.743   1.759  14.756 -0.1701  0.0403  0.0382
11009W        W26818   4.552  17.663  13.574  0.2154  0.0913 -0.4264
11010W        W26819  12.285  13.801   3.161  0.2471  0.0756 -0.3733
11011W        W26820  17.936   9.565   4.956  0.0143 -0.0144 -0.0892
11012W        W26821  13.007   0.576   2.042 -0.2423  0.1402  0.1510
11013W        W26822   8.614   9.491   2.816  0.3506 -0.0979  0.2047
11014W        W26823   4.146   5.911  15.944 -0.0617 -0.0408  0.0279
11015W        W26824   0.760   1.412  14.128 -0.1360 -0.0192  0.0232
11016W        W26825   3.245   1.949  11.783 -0.2004  0.1789  0.1651
11017W        W26826   1.177   9.807  14.258 -0.0451  0.2991 -0.0460
11018W        W26827   6.023  10.037   0.002 -0.0345 -0.1100 -0.1432
11019W        W26828  14.917   8.987  15.685 -0.2076  0.0073  0.0144
11020W        W26829  16.835   8.370  14.308 -0.1425 -0.0710  0.0845
11021W        W26830  10.925   1.672  12.683 -0.2681  0.1081  0.2491
11022W        W26831   9.495  12.385  13.298 -0.0490 -0.3701  0.1701
11023W        W26832   1.150   0.721  14.843 -0.0443 -0.1600 -0.0655
11024W        W26833   0.791  15.882   4.018 -0.1562  0.2040  0.1782
11025W        W26834   0.897  14.477  15.110  0.0688 -0.1288 -0.2004
11026W        W26835  12.190   0.013   0.901  0.0537  0.0684 -0.1458
11027W        W26836   5.287  15.953  11.461  0.2048  0.5699 -0.0854
11028W        W26837   0.065  16.199   0.172 -0.0278 -0.0170  0.0152
11029W        W26838   6.159   1.997   2.386  0.2603  0.0575  0.1565
11030W        W26839   3.520   9.265  13.543  0.2335  0.0496 -0.0230
11031W        W26840  11.210   4.500  10.895 -0.1257 -0.1263 -0.0646
11032W        W26841  13.467   1.209  13.107  0.1099 -0.2321 -0.1664
11033W        W26842  11.768  12.452   2.772 -0.1467 -0.2051  0.0005
11034W        W26843   6.522   3.323  16.118  0.0754 -0.0933  0.2614
11035W        W26844   6.015  10.024   4.959 -0.0841 -0.1357 -0.0028
11036W        W26845  17.309   6.978   2.091  0.3312  0.2090  0.2431
11037W        W26846   3.394  13.091   1.413  0.0726 -0.1515  0.2040
11038W        W26847   0.355  12.153   1.906 -0.1278  0.1500  0.2048
11039W        W26848   9.114   7.565   4.801 -0.2646 -0.1156  0.2136
11040W        W26849   3.504   3.728  16.054 -0.1156  0.0015 -0.0823
11041W        W26850   9.653   5.576   1.301  0.3052  0.1051  0.0894
11042W        W26851  15.312   5.121  10.301  0.0820  0.2473 -0.0605
11043W        W26852  15.727   7.936  12.160 -0.0760  0.1754 -0.1312
11044W        W26853  10.438   5.273   2.806  0.2004  0.4984  0.0890
11045W        W26854  18.151  14.271  12.328 -0.0767  0.0207  0.2097
11046W        W26855   7.484   1.383  10.934  0.2643  0.1214  0.0075
11047W        W26856   2.549   9.691  15.698 -0.1381 -0.2037  0.1621
11048W        W26857  16.217  17.821   5.748  0.0697  0.1783  0.0529
11049W        W26858  11.706   2.037   1.751  0.0324  0.2225  0.3989
11050W        W26859   1.812   3.992  14.723  0.1902  0.3268 -0.0119
11051W        W26860   9.838   2.412  12.731 -0.0571  0.0960  0.1229
11052W        W26861  11.534   7.825   0.566  0.1903 -0.1032  0.2443
11053W        W26862  13.378  12.065  11.209  0.0347 -0.3332 -0.1172
11054W        W26863  13.212   8.696  11.778 -0.1842 -0.2184  0.2750
11055W        W26864   3.404   6.125   1.414 -0.1473 -0.2770 -0.2247
11056W        W26865   6.350  13.255  12.017  0.3280 -0.2400  0.0362
11057W        W26866  10.178  11.370   4.028  0.0737  0.3446 -0.0789
11058W        W26867   9.193   9.106   5.135  0.0854 -0.1148  0.0237
11059W        W26868  16.577   3.727  15.951  0.0588 -0.1722 -0.0730
11060W        W26869   9.678   4.076   9.642  0.0673  0.3281  0.1217
11061W        W26870  12.663   0.046   1.323  0.2214  0.0251 -0.1411
11062W        W26871   4.851  14.424   0.674 -0.1730  0.0675  0.0709
11063W        W26872  15.197   4.153   3.092  0.4341  0.0864 -0.0884
11064W        W26873  10.741   1.773  14.773  0.2310 -0.0843  0.1171
11065W        W26874  11.007   7.170   3.064  0.1338 -0.2473  0.1638
11066W        W26875   5.297  11.706  13.830  0.0054 -0.1522 -0.2549
11067W        W26876  14.138   4.106   5.735 -0.0419  0.2260  0.0815
11068W        W26877   3.054   3.410  12.043 -0.0264 -0.1695  0.0984
11069W        W26878   1.481   7.774   0.869 -0.2523  0.3153 -0.2530
11070W        W26879  11.952  17.699   1.699 -0.1178 -0.0718 -0.0123
11071W        W26880  15.061   6.506   4.729 -0.1787  0.1723 -0.0786
11072W        W26881   1.661  16.624   5.510  0.2893 -0.1116 -0.0639
11073W        W26882   6.669   7.933   0.434 -0.1388  0.0762 -0.1737
11074W        W26883  12.689   4.596   6.181  0.4545 -0.1322  0.0570
11075W        W26884   9.615   1.512  12.934 -0.0508  0.1654 -0.4443
11076W        W26885  11.023   5.324  12.344  0.2122  0.0752 -0.1484
11077W        W26886   9.285  12.426   1.700 -0.0388  0.2327  0.2605
11078W        W26887   6.945   2.705   2.133  0.0115  0.1518  0.1752
11079W        W26888  10.557   0.417  15.992  0.0886 -0.3718  0.1795
11080W        W26889   6.612   1.248   4.384 -0.0233 -0.2487 -0.0754
11081W        W26890   9.567   6.975   1.391  0.1128 -0.2349  0.4249
11082W        W26891   4.070   4.814   1.488  0.1026  0.2368  0.0910
11083W        W26892   6.662   7.639  14.675 -0.2954  0.1435  0.0309
11084W        W26893   8.192   3.338  14.135 -0.1836 -0.1528 -0.0594
11085W        W26894  11.388  10.241   1.382  0.0346  0.0316  0.0551
11086W        W26895   3.839   3.641  13.569  0.0091 -0.2497 -0.1868
11087W        W26896   8.949   5.576  14.809  0.2964 -0.1734 -0.0687
11088W        W26897   6.751  16.145  11.620 -0.0865  0.2381 -0.0585
11089W        W26898   8.182   5.438  11.236  0.1353  0.1966  0.1012
11090W        W26899  14.010   3.708   3.908 -0.2858  0.1887  0.2548
11091W        W26900  12.908   1.830   4.794 -0.1642  0.2476 -0.1996
11092W        W26901   7.205   8.304   2.064  0.3165  0.0640 -0.0584
11093W        W26902   6.364   8.226   0.178 -0.2477 -0.2523  0.1664
11094W        W26903   1.926   9.073   2.109  0.0309 -0.2025 -0.2438
11095W        W26904  16.642   2.013   2.020  0.3409 -0.0330 -0.1615
11096W        W26905   6.804   7.889   2.799  0.0608 -0.0276  0.4709
11097W        W26906   9.376   5.138  10.567  0.1761 -0.1814 -0.2066
11098W        W26907   7.162  16.581  14.733  0.1462 -0.1226  0.0135
11099W        W26908  15.780   7.152  12.643  0.3674  0.1406  0.0412
11100W        W26909  15.718   1.402   0.675  0.0202  0.0260 -0.0287
11101W        W26910  16.106  10.760   2.975 -0.3345  0.1453 -0.1773
11102W        W26911  17.012   3.399   4.958 -0.1757  0.0768 -0.0879
11103W        W26912  15.958   5.714   2.461  0.3849 -0.0087 -0.0575
11104W        W26913   0.841   5.025   5.296  0.0409 -0.0902  0.2091
11105W        W26914   9.678   0.968  14.117 -0.1307  0.0518 -0.2113
11106W        W26915  13.396   7.143   2.895  0.0128  0.1041  0.1089
11107W        W26916  11.220   0.107  12.797  0.3226  0.0417 -0.2280
11108W        W26917   0.340   8.851  13.068  0.1124  0.2849 -0.0589
11109W        W26918  15.061   4.758   3.925  0.0787 -0.0789  0.2083
11110W        W26919   8.537   0.080  14.875 -0.0879 -0.0402  0.0344
11111W        W26920  13.053  10.563  15.971  0.0500  0.0600  0.1125
11112W        W26921  15.904  16.434  15.418 -0.2177 -0.1264 -0.1762
11113W        W26922  17.216   0.732  13.017  0.0779  0.0578  0.1995
11114W        W26923  17.259   0.438   3.922  0.1547 -0.0972  0.1952
11115W        W26924   5.574   7.771  15.394 -0.1043  0.0447  0.0564
11116W        W26925   7.510   1.732   2.264  0.1354 -0.1871  0.3152
11117W        W26926  14.088  15.443  12.996 -0.0321 -0.1832 -0.0322
11118W        W26927   2.054  12.264   4.227 -0.4584 -0.0129 -0.0701
11119W        W26928   0.249   6.157  15.330  0.3444  0.1601 -0.2061
11120W        W26929  10.479  17.623   3.807  0.0758 -0.1086 -0.2081
11121W        W26930  11.830   7.880  11.107  0.0790  0.0508  0.0780
11122W        W26931  15.554   8.439   0.748 -0.0449  0.1693  0.1126
11123W        W26932  14.971  17.096   5.961 -0.0554 -0.1185  0.2908
11124W        W26933   9.900  11.757   2.011 -0.3413  0.0016  0.0554
11125W        W26934   0.651   2.448  14.855  0.0881 -0.1970 -0.2951
11126W        W26935  12.810  13.003   1.229 -0.1045 -0.1916  0.1198
11127W        W26936  15.781  17.816   2.515  0.0381  0.1460 -0.0843
11128W        W26937  11.694   7.114  15.024  0.1407 -0.1090 -0.0966
11129W        W26938   9.085   9.805   4.016 -0.1285 -0.1197  0.0264
11130W        W26939   3.994   4.225   1.560  0.2247  0.3353  0.2456
11131W        W26940  13.185  12.416   5.466 -0.0821  0.0769  0.0886
11132W        W26941   5.207   3.033   2.811 -0.2731  0.1861  0.1177
11133W        W26942   0.100  14.798   4.117  0.0791 -0.1618  0.0110
11134W        W26943   6.382  12.235   4.524  0.1585 -0.1002 -0.0108
11135W        W26944   3.508  13.805  13.422 -0.0780 -0.2183 -0.1387
11136W        W26945  17.128  10.861  14.193 -0.2641  0.0725 -0.0626
11137W        W26946  17.511   0.602  14.934 -0.1915  0.2196 -0.0335
11138W        W26947   9.330   9.040  11.730 -0.1016 -0.2047  0.0398
11139W        W26948   1.391  17.356  15.482 -0.0139 -0.2883  0.2113
11140W        W26949   7.838   1.622  13.781 -0.4580  0.1961  0.3157
11141W        W26950   9.450   6.537   3.126  0.2390 -0.0613 -0.0478
11142W        W26951   5.714   4.531  14.803 -0.1795  0.0289  0.3444
11143W        W26952   2.165   3.393  12.476 -0.0454 -0.0243  0.4079
11144W        W26953   0.326   7.485  15.789  0.3129  0.1851  0.1319
11145W        W26954   7.265  17.818  15.219 -0.2970 -0.0738 -0.0071
11146W        W26955   2.429   8.624   3.700  0.0634 -0.0446  0.0276
11147W        W26956   8.359  10.564  13.307 -0.1200 -0.3415  0.0515
11148W        W26957   0.335   5.105   4.005 -0.1695 -0.2403  0.1662
11149W        W26958  17.791   0.638   3.178 -0.0232 -0.1142  0.0096
11150W        W26959   1.095   1.374   3.623  0.2657  0.0265  0.1705
11151W        W26960  11.251   0.652   2.835  0.1429 -0.2467 -0.0418
11152W        W26961  11.174  12.734   6.292 -0.1573 -0.1581  0.2803
11153W        W26962  12.086  12.679   0.149  0.1057  0.0791  0.1454
11154W        W26963   5.349  15.128   4.404 -0.2518 -0.2166 -0.3857
11155W        W26964  14.134   9.267   2.077 -0.4852  0.3181 -0.2715
11156W        W26965   5.055   3.973  11.738 -0.1472  0.0967  0.2256
11157W        W26966   9.267   2.220   1.377  0.1008 -0.1870 -0.1097
11158W        W26967  11.478   7.958  15.460  0.1039 -0.3249  0.1544
11159W        W26968  17.550   2.209   1.924  0.0084 -0.1518 -0.2379
11160W        W26969  11.925   5.128  12.195 -0.1920  0.3891  0.2099
11161W        W26970   9.041   6.747  14.255 -0.1875 -0.3380 -0.1051
11162W        W26971  12.836   1.729   3.415  0.0305  0.1081  0.0543
11163W        W26972  11.018  13.882  12.145 -0.0728 -0.0701  0.3563
11164W        W26973   8.117  16.381  14.130 -0.0839 -0.2657 -0.1054
11165W        W26974  15.339   5.718   1.770  0.1700  0.1827  0.0041
11166W        W26975  17.074   8.838  11.791  0.0767  0.1857  0.3549
11167W        W26976  16.038   2.398  11.637  0.2030  0.2663  0.1434
11168W        W26977  13.307   9.336   4.218 -0.2854 -0.2307  0.0404
11169W        W26978  16.422  16.592  11.535  0.0725 -0.2194  0.1924
11170W        W26979   4.162   0.200  11.555  0.3500  0.1163 -0.1413
11171W        W26980  16.242   7.672   2.826  0.1700 -0.5754 -0.2336
11172W        W26981   8.576   1.706   0.907  0.0346 -0.2756  0.0760
11173W        W26982  10.525  13.132  11.893 -0.4358 -0.1306 -0.1581
11174W        W26983  16.971   1.543   0.701  0.0346  0.0481 -0.0568
11175W        W26984   2.753   0.759   0.899  0.4320  0.3659 -0.0886
11176W        W26985  13.634   8.988   1.981 -0.2036  0.3913  0.0017
11177W        W26986  15.280   7.449   1.842 -0.1295  0.3829 -0.0636
11178W        W26987   4.616   6.550   0.317  0.1199 -0.2361 -0.1229
11179W        W26988  16.497  12.957  16.230  0.1052 -0.1829  0.2342
11180W        W26989   6.469   0.326   3.649  0.1930  0.2523 -0.1667
11181W        W26990  17.033   9.067   4.134 -0.2747 -0.1362  0.1431
11182W        W26991   2.028   0.045  14.379  0.0774 -0.1135  0.0649
11183W        W26992  11.903   6.051   1.577 -0.0810 -0.1813  0.0018
11184W        W26993   8.097   0.627   6.208 -0.0354  0.2208 -0.0364
11185W        W26994  11.724   1.284   3.500 -0.1460 -0.1947 -0.0651
11186W        W26995   4.348   2.375   2.757 -0.2386 -0.0571  0.1390
11187W        W26996  14.595   8.190   5.207  0.3258  0.0078  0.1417
11188W        W26997   4.183   4.138  11.249 -0.0709  0.2217 -0.3188
11189W        W26998   1.056  17.639  12.132  0.0699  0.1357 -0.0783
11190W        W26999   6.412   9.273  13.043 -0.2757 -0.2713 -0.0092
11191W        W27000   3.709  15.051   2.216 -0.0544  0.2546 -0.0576
11192W        W27001   1.206   5.917   5.605  0.1646  0.0136 -0.0886
11193W        W27002  15.211  10.252   3.090 -0.0133  0.3278 -0.3150
11194W        W27003  11.676  10.083  13.171 -0.1300  0.1176  0.2200
11195W        W27004  15.188   2.956   2.793 -0.0847  0.3025 -0.3520
11196W        W27005   0.534   5.323   1.428  0.2298 -0.2159  0.1852
11197W        W27006  17.610   9.577   2.928  0.0463  0.1142 -0.1398
11198W        W27007   1.153   8.040   5.926  0.2634  0.1142 -0.2149
11199W        W27008   5.803   0.911  13.423 -0.2051  0.4571 -0.2175
11200W        W27009   1.691   6.778   3.145 -0.0685 -0.1149 -0.2511
11201W        W27010   7.483  15.990   1.896 -0.0232 -0.0615 -0.1257
11202W        W27011   0.354   8.684  15.311  0.2033  0.3331 -0.0341
11203W        W27012  17.449  11.278  16.251 -0.2359 -0.1683  0.1703
11204W        W27013   1.721  16.742   1.177 -0.1409  0.0421  0.0539
11205W        W27014  16.196  10.785  16.037  0.3348 -0.0417  0.3580
11206W        W27015  14.588   0.633   3.849  0.1520 -0.4392 -0.0296
11207W        W27016  15.389  11.242   5.483  0.0161 -0.0513 -0.1312
11208W        W27017   1.996   3.132  14.648 -0.0026  0.1329  0.3890
11209W        W27018  16.038  11.782   5.308  0.2682 -0.0538 -0.2027
11210W        W27019   2.876  11.248  14.176  0.1153 -0.1792  0.2616
11211W        W27020  10.631   2.984  12.382 -0.3319 -0.2958 -0.1358
11212W        W27021  16.032  15.241   2.506 -0.1235  0.1471  0.2109
11213W        W27022   6.524   9.324   2.457 -0.2768  0.4229 -0.1987
11214W        W27023   4.477   9.799   3.907 -0.1122  0.1569 -0.2109
11215W        W27024   5.258  17.497   2.199 -0.0502  0.1257  0.1138
11216W        W27025  13.713   8.404  13.581  0.0029 -0.4010  0.1560
11217W        W27026  13.088  15.650   5.211 -0.0508 -0.0573 -0.2227
11218W        W27027   5.822  10.114   3.706 -0.0149  0.0127  0.1647
11219W        W27028  17.151  14.226   1.025  0.4446 -0.2903 -0.4087
11220W        W27029  11.847  17.727   2.229 -0.2032 -0.1040 -0.2421
11221W        W27030   8.416   3.746   1.228  0.2732 -0.2787 -0.1029
11222W        W27031   8.518  15.592  13.566 -0.0104  0.3018 -0.4336
11223W        W27032  17.223   0.072  13.904  0.1301 -0.2736  0.0394
11224W        W27033   2.490   4.315   2.058  0.1343  0.0596 -0.0316
11225W        W27034   5.477   3.082  11.675  0.0909 -0.0066  0.0869
11226W        W27035   7.531   2.717   1.293  0.0612  0.1996 -0.0105
11227W        W27036  15.203  15.765  11.096 -0.0360 -0.0287 -0.2922
11228W        W27037  12.529   7.743  13.550 -0.1017  0.3617  0.1726
11229W        W27038   8.488   0.770  11.776  0.1793  0.3133  0.0053
11230W        W27039  16.760   3.248  12.325 -0.0819 -0.0529 -0.2365
11231W        W27040  14.415  14.026  15.076 -0.1375  0.2293 -0.0140
11232W        W27041   3.636   4.606   1.385  0.0086  0.2057  0.1145
11233W        W27042   7.984  13.500  11.527 -0.2327  0.2554  0.0387
11234W        W27043   9.980  14.581  13.863 -0.1096  0.1577 -0.0745
11235W        W27044   9.641  10.982   1.346 -0.0208  0.0688 -0.1508
11236W        W27045  10.380  17.343  15.297 -0.0834  0.0102 -0.1082
11237W        W27046  18.182   1.534   2.205 -0.1087  0.1053 -0.0667
11238W        W27047   3.167   1.214   0.076  0.3512 -0.2291  0.2359
11239W        W27048   4.776  13.138  16.324 -0.0916  0.0630 -0.1268
11240W        W27049  12.261   8.635  15.504 -0.1811  0.0724  0.2185
11241W        W27050   7.469  17.061  11.527 -0.0003 -0.1659 -0.0297
11242W        W27051   5.251   3.515  16.105  0.0959 -0.0936  0.1181
11243W        W27052  12.305   6.384  15.967  0.0604 -0.0546  0.2247
11244W        W27053   1.374   4.763  14.784  0.4283  0.0673 -0.4811
11245W        W27054   4.926  17.968   0.709  0.1513 -0.0678 -0.0808
11246W        W27055  13.205   7.487  12.608 -0.1475 -0.2486 -0.0518
11247W        W27056   9.523   6.384   4.840 -0.2581  0.1473  0.2665
11248W        W27057   2.943  17.369   2.587  0.0907  0.0265  0.0774
11249W        W27058  13.632   8.663   3.350 -0.0407 -0.0640  0.0590
11250W        W27059  16.440   1.290  16.104  0.0762 -0.1009 -0.1427
11251W        W27060   4.977   4.006   3.028  0.0212 -0.1201  0.0271
11252W        W27061   1.453   3.413   2.251 -0.3827  0.1109 -0.1492
11253W        W27062   6.561  12.156   0.540 -0.0696  0.0405  0.2123
11254W        W27063  14.154   1.022  12.897  0.1319  0.3388 -0.2925
11255W        W27064  17.043   6.879  12.748  0.1816  0.0309 -0.1004
11256W        W27065   0.797   9.234   2.597 -0.0081  0.0588 -0.2713
11257W        W27066  14.208   4.620   3.957  0.1434 -0.0559  0.0700
11258W        W27067   0.028  15.940  11.802 -0.1200 -0.1795 -0.0646
11259W        W27068  16.476   7.084   1.427  0.1452  0.0098  0.2507
11260W        W27069  16.637   2.880   0.563 -0.0932  0.0497  0.2280
11261W        W27070   5.505   4.682  12.763 -0.0515  0.0588  0.3488
11262W        W27071   4.382   2.310   0.303  0.1548 -0.3098 -0.0473
11263W        W27072  16.078   0.319  13.770 -0.0496  0.0245 -0.0068
11264W        W27073   8.047   3.134   9.819 -0.1061 -0.2272 -0.0342
11265W        W27074   5.225  12.017  12.418  0.0148  0.2345 -0.1877
11266W        W27075  16.895  16.407  12.411  0.0819  0.0067 -0.0858
11267W        W27076   4.778  11.774  13.118 -0.0288 -0.1522 -0.1883
11268W        W27077   6.459  13.682  15.134  0.0252  0.1833  0.1230
11269W        W27078   6.036   8.445  11.188 -0.1051  0.0616 -0.0460
11270W        W27079   5.974  17.975  11.961 -0.1936 -0.1307  0.0205
11271W        W27080   8.628  14.803   5.565  0.2716  0.1182 -0.1589
11272W        W27081  11.273  16.049   4.955  0.2064  0.0627 -0.2323
11273W        W27082   4.762   3.964  15.342  0.2683  0.3724  0.1489
11274W        W27083  14.865  10.630  14.753  0.0792 -0.1570  0.1532
11275W        W27084  15.535  14.134   3.399 -0.1394  0.1651 -0.3666
11276W        W27085   5.807   5.021  12.039 -0.0233 -0.2795 -0.0716
11277W        W27086  16.777   9.015   0.854 -0.1641  0.1616 -0.0237
11278W        W27087  14.114   0.763  13.356  0.3648  0.0526  0.0107
11279W        W27088  11.388   0.359   2.383  0.5296 -0.2578 -0.0922
11280W        W27089  10.182  11.669   3.225 -0.1285  0.2712  0.0512
11281W        W27090   7.676   7.436  13.110  0.2403 -0.2655  0.0821
11282W        W27091  14.680  16.213   4.934 -0.0213  0.2913 -0.1413
11283W        W27092   7.788   2.440   4.616 -0.0245  0.1814 -0.3119
11284W        W27093  15.973  12.564  12.988 -0.0293 -0.0646 -0.0273
11285W        W27094  14.822  10.893   5.351  0.1027  0.1776 -0.4208
11286W        W27095  16.865  16.376   5.301  0.0629 -0.1617 -0.1365
11287W        W27096   0.606  13.070  13.637 -0.1059  0.2921  0.2828
11288W        W27097  13.757   0.221  12.838  0.4092 -0.1520  0.1855
11289W        W27098   6.912  17.263   5.515 -0.1015  0.0267  0.1286
11290W        W27099  11.484   0.484  14.773 -0.0339  0.0164  0.1191
11291W        W27100   1.306  13.520   3.440  0.1223 -0.0052 -0.1271
11292W        W27101  13.006   8.175   5.068  0.1133 -0.0054  0.2876
11293W        W27102   8.882   5.885   0.015 -0.0565 -0.4193 -0.0397
11294W        W27103   5.713   5.428  13.936 -0.1930  0.2517 -0.1049
11295W        W27104   4.519   8.504   3.846 -0.1960  0.2167  0.0881
11296W        W27105   5.754  11.036   2.016 -0.1745  0.3176  0.1120
11297W        W27106   5.624  14.411  15.898  0.1727  0.1491  0.2288
11298W        W27107   7.761   3.408   0.610 -0.2531  0.2179 -0.1453
11299W        W27108  14.939  10.740  15.291  0.0763 -0.1091  0.1198
11300W        W27109  15.349   9.916  11.876  0.0464  0.1000 -0.0646
11301W        W27110  16.625   5.199   0.469  0.4925 -0.2600 -0.1161
11302W        W27111   5.328  11.176  14.135  0.1152  0.0079 -0.1302
11303W        W27112   0.924  13.124  12.417  0.0670 -0.0485 -0.0024
11304W        W27113   1.584  18.051  11.367  0.2629 -0.0659 -0.1963
11305W        W27114   3.737   9.876  16.163  0.0089 -0.0853  0.0310
11306W        W27115   8.224   4.546  15.486 -0.5133  0.1710 -0.0854
11307W        W27116  13.112  17.409   2.707  0.1798  0.2965  0.0986
11308W        W27117   0.925   0.590   0.286 -0.0117  0.1539 -0.0520
11309W        W27118  10.254   3.074   4.359  0.1849  0.0074 -0.0696
11310W        W27119  15.607  17.370   2.817  0.0941  0.0150  0.0905
11311W        W27120   2.270  17.844  14.517 -0.1344  0.0682 -0.1233
11312W        W27121  11.865  14.840  11.574  0.0020  0.0502  0.0315
11313W        W27122   6.665   9.765   0.830 -0.3695 -0.0504 -0.0496
11314W        W27123  15.422   9.467   2.362 -0.5117  0.0432 -0.1652
11315W        W27124   7.686   4.569   4.614  0.1031  0.2611 -0.1164
11316W        W27125   3.473   2.225   0.389 -0.0708  0.2106 -0.0433
11317W        W27126   7.308  17.923  12.044 -0.1345  0.0402  0.0201
11318W        W27127   8.192  14.510  12.437 -0.1401 -0.0823 -0.2526
11319W        W27128   7.277   5.823  11.409 -0.0162  0.1736 -0.0031
11320W        W27129   7.347  10.413  11.923 -0.0465 -0.4823  0.1369
11321W        W27130   9.768  11.885  15.628 -0.0631  0.0707 -0.2889
11322W        W27131   4.220   0.633   4.414 -0.2754 -0.0563 -0.0532
11323W        W27132   4.005  15.322   4.185 -0.0346 -0.0087 -0.0711
11324W        W27133   2.869   4.476  14.381 -0.2818 -0.0447 -0.1532
11325W        W27134  17.802  16.848  11.458  0.1168 -0.3090  0.3389
11326W        W27135   4.592  17.224   4.021 -0.2585  0.1685  0.1618
11327W        W27136  13.626  17.948   2.300  0.4200 -0.0908  0.5242
11328W        W27137   4.249   1.490   2.729 -0.3047  0.3050  0.3457
11329W        W27138   5.853   4.635  11.395  0.0394 -0.0192  0.3328
11330W        W27139   2.907  14.103  12.523 -0.0912 -0.2987  0.0022
11331W        W27140  16.828  11.288   3.842  0.0747  0.0614  0.2407
11332W        W27141   2.011   1.903   3.272 -0.1661 -0.3314  0.0097
11333W        W27142  15.780  16.864  13.497  0.2179  0.0092  0.0543
11334W        W27143  16.408   4.777  12.688 -0.2189  0.0069 -0.1594
11335W        W27144  17.773  14.790  13.839  0.3365  0.0152 -0.0102
11336W        W27145  16.150   1.458  12.328  0.0781  0.1637 -0.1507
11337W        W27146  11.879   3.110   3.126  0.2354 -0.0597  0.1030
11338W        W27147   7.610   5.440   1.169 -0.1222  0.1453 -0.0343
11339W        W27148   4.713   4.971   1.303 -0.0138  0.0343 -0.1470
11340W        W27149   9.803   7.757   4.199 -0.1589  0.1031 -0.1312
11341W        W27150   4.382   0.234  14.115  0.1683  0.0600  0.1791
11342W        W27151  15.701  10.332  10.427  0.0878  0.0996  0.0857
11343W        W27152   8.183   7.612   4.823 -0.2227  0.1483 -0.1288
11344W        W27153  17.929   3.465   3.087  0.1043 -0.0290  0.0728
11345W        W27154   0.165  13.628  12.370 -0.2753  0.2665  0.1294
11346W        W27155  15.036  14.721   1.476  0.1726 -0.1242  0.1645
11347W        W27156   0.844  11.876   3.260 -0.1391 -0.2960  0.1400
11348W        W27157  11.066  17.809   4.379  0.4136 -0.0317  0.1155
11349W        W27158  15.056   2.842  14.459 -0.2861 -0.2013 -0.0608
11350W        W27159   8.411  15.094   5.871 -0.0217  0.1545 -0.2496
11351W        W27160  10.937   2.398   2.458  0.1424  0.2420  0.2637
11352W        W27161   9.370  16.291   0.651 -0.0939  0.1253  0.0756
11353W        W27162   7.635   2.403  16.188 -0.0701 -0.2403 -0.0214
11354W        W27163  16.533  13.323   0.748 -0.1963 -0.0224 -0.2061
11355W        W27164  17.875   8.685   2.986 -0.1918 -0.0862 -0.0639
11356W        W27165   4.316  12.540  12.397  0.4647  0.0804 -0.2395
11357W        W27166   3.039   9.310   4.579  0.0298 -0.0273 -0.1347
11358W        W27167   5.705   3.516  15.843  0.1787 -0.2098  0.3331
11359W        W27168   2.308   3.474  15.807 -0.3890 -0.1720  0.0789
11360W        W27169   4.023   5.751  12.650 -0.1772  0.2196 -0.1460
11361W        W27170   9.784  10.073  16.082  0.0649  0.2216 -0.1391
11362W        W27171  13.535  17.347   1.071  0.3061 -0.0246  0.2888
11363W        W27172   2.002   9.885  13.846 -0.0183  0.3832  0.1429
11364W        W27173   7.031   2.893   4.706  0.3491 -0.1695 -0.0430
11365W        W27174  13.038  14.580  14.922 -0.0508  0.0394  0.0419
11366W        W27175  11.778  15.871  12.899 -0.0545 -0.0266  0.0155
11367W        W27176  17.999   2.873  13.363  0.0283  0.1412 -0.0101
11368W        W27177  13.203   0.522  10.597  0.1262 -0.1701  0.2253
11369W        W27178  11.088   7.800  15.910 -0.1336  0.1145  0.1655
11370W        W27179  13.941   8.641   5.461 -0.0348 -0.3712 -0.0365
11371W        W27180   0.373   8.382   2.344  0.0389  0.1843 -0.2026
11372W        W27181   1.267   4.708  16.006  0.0642  0.1954 -0.0142
11373W        W27182  10.846   0.845   3.822  0.2036  0.1244  0.0098
11374W        W27183  17.016   8.463   0.554  0.0205  0.4837  0.0265
11375W        W27184   2.946  11.804  14.419  0.1587  0.3867  0.0555
11376W        W27185   8.492  17.932   3.548 -0.3032  0.1649  0.0121
11377W        W27186  16.630  17.233   0.374 -0.2128 -0.1975 -0.2417
11378W        W27187  14.457  17.682  15.447  0.3373 -0.2239  0.2637
11379W        W27188   7.356   8.172  13.458  0.0850 -0.3449  0.0662
11380W        W27189   9.011   1.544   0.265  0.1762  0.1404  0.2125
11381W        W27190  13.098   3.485   4.467 -0.0645  0.1848 -0.0142
11382W        W27191  12.496  11.826  13.820  0.0476 -0.0320  0.0146
11383W        W27192   6.536   0.044  15.487 -0.2035  0.3989 -0.0040
11384W        W27193  10.601   6.895  12.798  0.1495 -0.2661  0.0477
11385W        W27194   7.891  17.178   3.591  0.3366 -0.4053  0.2438
11386W        W27195   0.915  17.280  13.843  0.0097  0.0620  0.1089
11387W        W27196  10.085   1.585   3.651  0.2389  0.0967 -0.1567
11388W        W27197   5.556  16.137   3.269 -0.0342 -0.0140  0.0956
11389W        W27198   6.760  14.258   0.745 -0.1677  0.1046  0.2661
11390W        W27199   0.951   9.083  15.971  0.1528  0.0020  0.3343
11391W        W27200   4.512  13.042  11.860 -0.2882  0.0174  0.1708
11392W        W27201   3.633  13.185   2.468  0.0618 -0.0971  0.0066
11393W        W27202   3.958   0.872   0.983  0.1763 -0.2605  0.0803
11394W        W27203   5.191  15.153   3.515  0.1507  0.0869 -0.3258
11395W        W27204  10.941   5.577   2.634 -0.1911 -0.2028  0.3966
11396W        W27205   0.595   4.095  14.329 -0.0187 -0.0956  0.0565
11397W        W27206   5.404   7.936   0.181 -0.0466  0.1193 -0.0033
11398W        W27207   2.817  10.839  13.370 -0.0304  0.0947 -0.1991
11399W        W27208   8.966   8.392   0.517 -0.1856  0.1809 -0.2231
11400W        W27209  16.084  14.864   0.035  0.1344 -0.0859  0.0719
11401W        W27210   9.594  10.213   3.437  0.0566  0.1497 -0.0383
11402W        W27211   4.607  11.196   0.690 -0.1301 -0.3773 -0.0624
11403W        W27212   0.555   2.887   2.121 -0.0592 -0.1328  0.0653
11404W        W27213   4.439  11.408   2.871  0.4226 -0.3477  0.1156
11405W        W27214  13.603   8.370  11.913  0.1578  0.0490 -0.4519
11406W        W27215   1.549   3.318   4.392 -0.1526  0.2454 -0.2515
11407W        W27216   9.213   4.019   0.962 -0.0861  0.0171  0.0733
11408W        W27217   7.464   9.936  15.012 -0.1771  0.4577 -0.0369
11409W        W27218  17.543   2.668   3.050  0.0993  0.0381  0.1089
11410W        W27219   6.828  10.236  13.140  0.1832 -0.0668 -0.1946
11411W        W27220   0.196  17.698  14.247 -0.0400  0.1039  0.1402
11412W        W27221   7.836   2.537  12.451  0.0947 -0.1663 -0.1297
11413W        W27222   4.181  15.879   0.616  0.4376  0.1211  0.0795
11414W        W27223   8.647   4.118   3.405  0.2433 -0.1402  0.2836
11415W        W27224  16.511  14.082   5.263 -0.0507  0.0732 -0.1217
11416W        W27225  16.094  13.521  14.599 -0.1350 -0.1583 -0.0051
11417W        W27226   1.550   4.124   3.569  0.0964  0.0790 -0.2638
11418W        W27227  13.752  17.778   4.666 -0.4092 -0.1453  0.0134
11419W        W27228  17.099  16.181  15.396  0.2697  0.2339 -0.0208
11420W        W27229   6.057   9.428   1.998  0.0778  0.1367  0.2011
11421W        W27230  14.478  16.395  15.791 -0.0286 -0.0602 -0.2895
11422W        W27231   0.663   0.382   5.766 -0.1704  0.0342  0.1916
11423W        W27232  15.633   1.437  14.505  0.3092  0.2007  0.1859
11424W        W27233   9.475   7.087  14.089 -0.1029 -0.0160  0.2051
11425W        W27234  16.074   7.038  13.163 -0.3193 -0.0330 -0.2164
11426W        W27235  15.085   3.147   4.693  0.0997  0.2293  0.0893
11427W        W27236   4.507   0.310   3.198  0.0918 -0.1608  0.0673
11428W        W27237   4.729   4.883   5.328  0.1529  0.1622  0.1798
11429W        W27238  17.135   2.319  14.990  0.0524  0.2188 -0.0142
11430W        W27239  10.812   7.199  14.618  0.0044 -0.0867  0.0869
11431W        W27240  10.914  13.657   1.783 -0.0161  0.1812 -0.3700
11432W        W27241  15.724  17.688   5.791 -0.1662 -0.0982  0.1707
11433W        W27242   2.515   6.406   3.754 -0.3422  0.3127 -0.0948
11434W        W27243   7.294   9.231  14.223  0.0983  0.1034 -0.3795
11435W        W27244   3.992   7.535   3.337 -0.0492 -0.1885 -0.3172
11436W        W27245  11.540   8.659  12.498  0.1932 -0.0417  0.1950
11437W        W27246  14.519   4.201   1.272 -0.1743  0.0685  0.2540
11438W        W27247   7.734   5.873   6.403 -0.1631 -0.0364  0.0343
11439W        W27248   3.240  13.457   1.100  0.0251  0.4041 -0.0365
11440W        W27249  16.307  16.571   5.490 -0.0420 -0.0276  0.0096
11441W        W27250   5.552   1.476  15.587 -0.2333 -0.1831  0.2249
11442W        W27251   3.658  12.314  11.701 -0.2067  0.0440 -0.2273
11443W        W27252   4.907   8.424   1.967  0.1711  0.1924 -0.0045
11444W        W27253   1.991   0.642   0.294  0.0065  0.4195 -0.0356
11445W        W27254  10.041  11.629  14.682 -0.2444 -0.0477  0.2891
11446W        W27255  13.541   9.723   2.007  0.0318  0.0797 -0.0243
11447W        W27256  17.487   7.673   2.928  0.1058  0.3421 -0.0275
11448W        W27257   5.246   3.429   1.683 -0.0819 -0.0574  0.0064
11449W        W27258   2.749  14.576   2.938  0.1181  0.2494 -0.1003
11450W        W27259  12.340   8.597  13.014  0.0301 -0.0821  0.0833
11451W        W27260   8.479   9.842  13.787 -0.0024  0.1074 -0.1058
11452W        W27261  13.596  10.324   2.819  0.1519 -0.0487  0.0076
11453W        W27262  10.794   6.962  16.313 -0.1637 -0.1695  0.6081
11454W        W27263  13.366   1.689   3.235 -0.1114  0.2801 -0.1148
11455W        W27264  10.236   4.301   4.783  0.1531  0.0873  0.0464
11456W        W27265  14.163  15.130  12.631  0.0760  0.1287  0.0433
11457W        W27266   4.098  14.905  15.678 -0.3055 -0.0597 -0.2768
11458W        W27267  10.530   3.305  12.852 -0.1140 -0.1952  0.1862
11459W        W27268  16.970  11.699   6.700 -0.1034  0.0556 -0.1131
11460W        W27269   6.862   2.413  12.471  0.0932  0.0217  0.0228
11461W        W27270  10.983  15.652   5.996 -0.3448 -0.0157  0.1217
11462W        W27271   7.887   1.310   0.336  0.2356 -0.0974  0.0541
11463W        W27272   8.400   5.713   2.408 -0.0497 -0.2327  0.2488
11464W        W27273   7.421   3.649   0.932 -0.5043  0.1891  0.2604
11465W        W27274   2.636   5.161   1.845 -0.0411  0.2461 -0.3323
11466W        W27275  12.127  10.368  14.584 -0.1125 -0.4153  0.0202
11467W        W27276   8.900   5.011   3.984 -0.1610  0.2032 -0.0776
11468W        W27277  17.486   8.728  14.481 -0.0602  0.0909 -0.0488
11469W        W27278   1.555  16.171  14.074  0.0562 -0.0893  0.0258
11470W        W27279   9.551  10.934   1.930  0.2667  0.0213 -0.0709
11471W        W27280   9.023  17.698  14.248  0.2470  0.2854  0.2152
11472W        W27281   4.541  11.504   5.123  0.2615  0.0454  0.0018
11473W        W27282   1.530   7.992  13.286  0.0327  0.1927 -0.0215
11474W        W27283   8.406   4.237  11.211  0.0307  0.1709 -0.1141
11475W        W27284   3.092   5.362  14.191 -0.5511 -0.2414  0.0931
11476W        W27285   4.118  15.324  14.179  0.0507 -0.1253 -0.2477
11477W        W27286  11.091   5.279   1.153  0.0376  0.4972  0.0994
11478W        W27287   9.632   8.981   3.153  0.1357  0.0837  0.0603
11479W        W27288   6.423   2.476  16.238 -0.2889 -0.1432 -0.1513
11480W        W27289   3.330   0.271  15.764  0.0413 -0.0800 -0.2196
11481W        W27290   4.714   1.154  16.115 -0.0149  0.1637 -0.0445
11482W        W27291  17.033   5.378   5.013 -0.1437  0.3910 -0.0087
11483W        W27292   8.985  17.455   1.934  0.1069  0.3309  0.2051
11484W        W27293   7.060  14.158   1.608 -0.0280 -0.3875  0.3898
11485W        W27294  13.897  13.608   1.452  0.3072 -0.5346 -0.1402
11486W        W27295  10.963   2.426   3.886  0.0404 -0.2850  0.1284
11487W        W27296  10.397   7.176  14.941  0.1307 -0.0815  0.0459
11488W        W27297  15.233  14.813   5.681 -0.3457  0.2377 -0.2527
11489W        W27298  11.351   5.896  11.815  0.0028 -0.1110 -0.0384
11490W        W27299  13.645  16.120   4.560  0.1571 -0.1329 -0.1566
11491W        W27300  18.130   4.593  11.680 -0.1374 -0.1955 -0.0736
11492W        W27301   1.710  13.715   3.074 -0.0624  0.0869  0.2717
11493W        W27302  12.223   5.574  12.134  0.2650  0.0235  0.1424
11494W        W27303  14.409  12.506   1.221 -0.1633 -0.1483 -0.3820
11495W        W27304  13.380  13.205   3.806  0.0903  0.1927 -0.2764
11496W        W27305   3.082   4.434   0.769  0.2242  0.1317 -0.0753
11497W        W27306   8.110  13.277   2.288  0.0618  0.0249  0.1460
11498W        W27307   9.626   6.001  15.799  0.2360 -0.0781 -0.0797
11499W        W27308  12.779  13.084   4.986 -0.2754  0.0693 -0.3597
11500W        W27309   1.866  14.015   1.407 -0.1847  0.3233  0.0971
11501W        W27310   5.964   6.877   0.754  0.1372  0.0250  0.0540
11502W        W27311  11.238  14.561   4.333  0.1959 -0.2777  0.2816
11503W        W27312   3.779   7.986   3.281  0.1108 -0.1082 -0.1074
11504W        W27313  13.843  12.966   2.253 -0.1230  0.0829 -0.0061
11505W        W27314   6.226  12.169   1.581 -0.0683 -0.0381  0.2282
11506W        W27315  10.630   3.775   2.755 -0.0910  0.0931 -0.1614
11507W        W27316   3.420  15.332   4.876  0.1462  0.1137 -0.1017
11508W        W27317  12.268  15.942   5.125  0.1070 -0.0131  0.0916
11509W        W27318   2.710   8.300  12.719 -0.2074  0.0761 -0.0581
11510W        W27319  12.353   8.119   3.050 -0.0932  0.0970 -0.0793
11511W        W27320  12.622  14.100   4.964 -0.0125 -0.0057 -0.1299
11512W        W27321  16.187  12.308  13.710  0.0142 -0.0209 -0.0872
11513W        W27322  11.812  11.344   2.018  0.1348  0.2095  0.0176
11514W        W27323  14.866  15.436  11.347  0.1415 -0.1876  0.0765
11515W        W27324   8.195   1.005   2.613 -0.0979 -0.1087  0.3314
11516W        W27325  11.006   0.564  13.544  0.1783 -0.2733 -0.0882
11517W        W27326   7.919   9.659  12.528  0.0341 -0.1584  0.2449
11518W        W27327  17.593   6.245  15.113  0.0968 -0.1902 -0.1640
11519W        W27328   5.549   5.736   4.175 -0.1449 -0.0003  0.2676
11520W        W27329   6.112   3.737  14.933 -0.3488 -0.1408  0.1769
11521W        W27330  11.438  14.999   0.587  0.0768 -0.0723  0.0908
11522W        W27331  10.348   4.984  11.746 -0.4377 -0.1358 -0.1624
11523W        W27332  17.598   1.727  14.996 -0.2178  0.1760 -0.3346
11524W        W27333  16.057   3.859   5.545  0.2231 -0.1318 -0.1975
11525W        W27334   7.867   4.325   5.346 -0.1234 -0.1235  0.0870
11526W        W27335  13.201  12.181  11.916 -0.1605 -0.1075  0.3030
11527W        W27336   3.514   6.469   5.452 -0.0391  0.1898  0.3674
11528W        W27337  12.668  16.535  15.964  0.1378 -0.1896 -0.1610
11529W        W27338   8.828   7.732   1.431  0.0466 -0.0603 -0.2838
11530W        W27339   5.803  16.332  15.307 -0.0977  0.1001  0.2535
11531W        W27340   8.497  13.594  15.494  0.1585  0.2945 -0.1095
11532W        W27341  17.856   2.261  14.583  0.1834  0.0525  0.0452
11533W        W27342   9.864  11.804   4.805  0.0428 -0.2885 -0.1900
11534W        W27343   6.982  10.426   3.017 -0.1837  0.0014 -0.1620
11535W        W27344  13.425  14.329  11.326  0.1367 -0.1387  0.1446
11536W        W27345   9.392   9.086   1.160 -0.1434  0.1497 -0.0434
11537W        W27346  12.561   5.415   3.745 -0.1162 -0.1132 -0.1487
11538W        W27347   5.684  17.113  16.006 -0.0893  0.0010  0.1207
11539W        W27348   1.788  12.108  11.560  0.0412  0.1079 -0.1821
11540W        W27349   5.370   3.348   4.679  0.0492  0.0383 -0.1277
11541W        W27350   1.159   9.106   4.351 -0.0216  0.2317  0.1112
11542W        W27351  14.680   7.445   1.536  0.0479  0.0410  0.4304
11543W        W27352  16.888   3.296  14.810 -0.0375 -0.1573  0.0371
11544W        W27353   8.042  10.038   0.264 -0.0317  0.0371 -0.0984
11545W        W27354   5.934  14.056   2.611 -0.2382 -0.0692 -0.0521
11546W        W27355   2.138  14.363  15.810 -0.2788 -0.0586 -0.2934
11547W        W27356   5.656   2.356   3.071  0.1842 -0.2334  0.0042
11548W        W27357   2.457   3.570   6.308 -0.1765 -0.2354 -0.2134
11549W        W27358   1.331   6.426  15.865  0.1572 -0.1574  0.0395
11550W        W27359  12.551   9.039  15.635 -0.0622 -0.0422 -0.0993
11551W        W27360   0.589   8.440  12.136 -0.0197  0.0304  0.0246
11552W        W27361   6.770   4.277  13.135 -0.1706 -0.1040  0.3298
11553W        W27362  11.933  14.481   0.899  0.0242  0.0511 -0.1137
11554W        W27363  16.021  15.531  15.343  0.1848  0.2081 -0.1570
11555W        W27364   3.051  18.167   2.173  0.1594 -0.0369 -0.1393
11556W        W27365  17.798  10.638  11.750  0.0192  0.1112  0.0662
11557W        W27366   3.927   7.353   0.741 -0.0856 -0.0418  0.1168
11558W        W27367   9.351  11.041   3.575  0.1194 -0.1364 -0.1075
11559W        W27368  14.104   1.361   2.549 -0.0169 -0.2243 -0.0084
11560W        W27369   5.955   9.067   2.420  0.0191  0.1252  0.1350
11561W        W27370   4.639  18.167   0.336  0.1812 -0.2283  0.0152
11562W        W27371   8.524  16.947   2.805  0.2501  0.0458  0.1569
11563W        W27372  12.373   6.210  10.927 -0.1253  0.0286  0.1483
11564W        W27373  10.115   3.588  16.219  0.0759 -0.1358  0.3490
11565W        W27374  10.669   4.637  12.714 -0.4000 -0.1680  0.1825
11566W        W27375  17.671   3.892   0.230  0.1001 -0.3706 -0.0952
11567W        W27376   3.965  12.642   2.513 -0.0689 -0.0839 -0.2161
11568W        W27377  15.141  11.819   2.357 -0.1191 -0.0976  0.0577
11569W        W27378   3.185   7.561   4.314  0.1664  0.0967  0.0603
11570W        W27379  14.017  17.113   2.423  0.3697 -0.1390  0.1214
11571W        W27380  13.674   4.100   3.933  0.1664 -0.0239 -0.0557
11572W        W27381  15.532  10.123   4.091  0.0033 -0.0625  0.2774
11573W        W27382  14.687   0.802   0.329  0.3175 -0.0439  0.1523
11574W        W27383  12.355  15.719  10.731  0.2176 -0.0123  0.0754
11575W        W27384   7.850   7.331   5.174  0.2877 -0.1369 -0.1374
11576W        W27385  15.804  10.465   4.526  0.0887 -0.2362  0.2834
11577W        W27386   8.554   7.380   4.063 -0.3254  0.0702 -0.2917
11578W        W27387   7.057   9.531   1.062 -0.2853  0.3632  0.1026
11579W        W27388   0.260  15.307   2.693 -0.4028  0.1013  0.0324
11580W        W27389  13.005  16.195  14.683 -0.1382 -0.2409 -0.2411
11581W        W27390   3.137  14.346  15.328  0.1134 -0.0190 -0.1277
11582W        W27391  13.505   4.077   3.112 -0.1617  0.2410  0.0852
11583W        W27392  17.205   5.943   0.368  0.1108  0.1478  0.0490
11584W        W27393  12.234  12.831  14.875 -0.2130  0.1288 -0.0576
11585W        W27394  15.073   3.335  15.552 -0.1344  0.0847  0.1234
11586W        W27395  12.130   7.257   2.312 -0.0611  0.1876  0.0164
11587W        W27396   9.650   2.415  13.374  0.0846 -0.1696  0.1122
11588W        W27397  10.706  14.496   5.244 -0.0662 -0.2534 -0.0755
11589W        W27398  13.163  11.640   2.598  0.2016  0.3589 -0.1012
11590W        W27399   8.281  12.424   2.563 -0.0599  0.1404  0.1886
11591W        W27400   0.620   9.635   5.929  0.3478  0.1207  0.0753
11592W        W27401  14.844  12.134   2.618  0.2117 -0.0163 -0.3943
11593W        W27402  11.367   0.702   4.710  0.2055  0.1120 -0.4682
11594W        W27403  17.349  13.768  14.033 -0.0945  0.0548 -0.0581
11595W        W27404   4.958  10.851   2.232 -0.0417  0.1930  0.4307
11596W        W27405   2.423   2.843   5.011 -0.0537 -0.0417  0.1535
11597W        W27406   8.481  17.285   1.460 -0.2952 -0.2959  0.1273
11598W        W27407   4.942   9.140  16.107 -0.0230  0.1415 -0.2110
11599W        W27408  16.447   6.061  13.896 -0.1302 -0.2382 -0.1027
11600W        W27409  14.986  11.427  14.902  0.1589 -0.2120  0.1234
11601W        W27410  10.708   1.038  16.313 -0.0477 -0.1629  0.1583
11602W        W27411  16.944   1.150  16.012 -0.0645  0.1866 -0.1026
11603W        W27412  12.753   3.432  13.343  0.2784 -0.0321 -0.0168
11604W        W27413   1.208   1.644  16.038  0.0301 -0.2851  0.0810
11605W        W27414  16.432  13.489   2.641 -0.2399 -0.2392 -0.1586
11606W        W27415   2.052  17.695   5.268  0.1934  0.2418 -0.0554
11607W        W27416   1.749  17.051   0.056 -0.1689  0.2890 -0.2900
11608W        W27417   4.409   7.837   3.496  0.0442 -0.0866  0.0011
11609W        W27418  13.505   0.122   2.674 -0.2666  0.0481  0.0276
11610W        W27419   4.431   8.228  11.334  0.0150  0.1800 -0.1556
11611W        W27420   9.621  10.527  14.662 -0.0263  0.0107 -0.1457
11612W        W27421   2.810  12.169  15.762 -0.0217 -0.3797  0.0237
11613W        W27422   8.684   5.565   4.129  0.3674  0.0439  0.2961
11614W        W27423  15.740   1.907   2.688 -0.0184  0.3126  0.1433
11615W        W27424  16.662   8.550  15.571 -0.1226 -0.0043 -0.2893
11616W        W27425   9.952  15.688  11.299  0.1470  0.0769 -0.1283
11617W        W27426  10.839  13.969   0.173 -0.2321  0.0657  0.5424
11618W        W27427   8.151   0.586   4.126  0.0087 -0.1807 -0.1280
11619W        W27428   1.884  12.341   1.624  0.0122 -0.0334  0.0265
11620W        W27429  14.866   9.424  15.920  0.0099 -0.0291  0.1502
11621W        W27430  17.905   4.577   1.163 -0.0083 -0.0956  0.0697
11622W        W27431   7.931  15.413  14.964 -0.1128 -0.2621  0.0660
11623W        W27432  10.517  10.796   5.813  0.1380 -0.0509 -0.1776
11624W        W27433   9.835  13.390  12.839 -0.1406  0.1214  0.1028
11625W        W27434   5.278   6.362  12.256 -0.1366  0.0056  0.0841
11626W        W27435   1.541   5.054  12.192  0.0259  0.2105  0.1868
11627W        W27436  10.453   5.062  10.579 -0.0876 -0.0277 -0.0075
11628W        W27437  17.739  12.201  13.908 -0.1596 -0.1638 -0.3439
11629W        W27438  17.276   2.351   5.635 -0.3005 -0.0010  0.0987
11630W        W27439  13.036   6.234   0.890 -0.1953 -0.0004  0.2112
11631W        W27440  10.999  18.057  13.258  0.0569  0.0461 -0.0638
11632W        W27441   1.439   5.894   4.784  0.3725  0.0730 -0.0866
11633W        W27442  16.715  14.427  13.657  0.1912 -0.0742 -0.0240
11634W        W27443   3.190   7.548   3.596  0.1038  0.1627  0.1624
11635W        W27444   1.471  11.636  14.546  0.3357  0.2958  0.1510
11636W        W27445   3.795   1.893   0.199 -0.2806  0.2285 -0.1159
11637W        W27446   8.915  16.772   3.271 -0.1839  0.0102  0.1395
11638W        W27447   1.245   4.286  14.616  0.1085 -0.0813  0.0414
11639W        W27448  11.729   7.930  14.064  0.0951 -0.0245  0.1799
11640W        W27449   9.402   4.300   2.975  0.0617  0.0325  0.2247
11641W        W27450   5.010  17.421  14.629 -0.0535  0.0524  0.1122
11642W        W27451   3.352   1.037  13.389  0.1538 -0.3094 -0.3587
11643W        W27452   7.006  14.912  11.977 -0.2199  0.0957  0.3041
11644W        W27453   0.382   1.809   3.184  0.3671  0.2856 -0.1952
11645W        W27454  13.792   8.997  14.466 -0.3232  0.2697  0.0103
11646W        W27455   1.539  12.363  14.606  0.1896  0.3549  0.1467
11647W        W27456   1.570  10.267   0.685  0.1636  0.3734  0.0179
11648W        W27457  13.315   0.722  16.108  0.1319  0.2808 -0.0890
11649W        W27458   5.655   9.875  15.909 -0.4262  0.0657 -0.1148
11650W        W27459  11.505   2.292   1.373  0.0419  0.1925 -0.2108
11651W        W27460   0.434  11.503   6.454 -0.0040  0.1388 -0.0392
11652W        W27461  18.077  13.171  14.169 -0.0523  0.3236  0.0774
11653W        W27462   6.693   5.177  13.296  0.1263 -0.0495 -0.0850
11654W        W27463  14.907  12.696   1.437  0.1049  0.0975  0.0493
11655W        W27464   2.702  10.020   4.960 -0.0959 -0.0544 -0.2199
11656W        W27465  16.507   5.009  13.606  0.0732 -0.1524 -0.0162
11657W        W27466   4.661  17.966   4.158 -0.0200 -0.0621  0.0487
11658W        W27467   6.796   2.997  13.160  0.3774  0.0814  0.2636
11659W        W27468  12.800   1.804  15.126 -0.0225  0.1396 -0.2085
11660W        W27469   0.836   2.419  12.123 -0.0817  0.1070 -0.3041
11661W        W27470  16.451  13.491  13.047 -0.0684  0.0173 -0.2395
11662W        W27471  13.034  14.006   1.466  0.3086  0.0936 -0.1608
11663W        W27472  13.634   6.880   1.034  0.0361  0.1659  0.1693
11664W        W27473  12.712  14.558  12.416  0.0507  0.4152 -0.0828
11665W        W27474   4.217   1.677  15.754 -0.1315  0.0577  0.3492
11666W        W27475   2.480  13.164  12.097 -0.0197  0.0271  0.2965
11667W        W27476   5.929  14.982   2.855  0.0103  0.1857  0.3087
11668W        W27477  17.891  12.998   5.457 -0.3116  0.0261 -0.0976
11669W        W27478   0.619   5.297   3.120  0.0160  0.2242  0.1731
11670W        W27479  17.101   4.968   4.045 -0.4032 -0.1555  0.0709
11671W        W27480   0.627   7.505  11.862  0.1246 -0.2604 -0.1430
11672W        W27481   8.904  12.413  16.210  0.0021 -0.0043  0.0695
11673W        W27482  17.858   0.906  16.283  0.1074  0.1140  0.0530
11674W        W27483  11.996   7.937  12.020 -0.0456 -0.1115  0.4406
11675W        W27484   9.201   9.045  12.308  0.2423  0.1649 -0.2613
11676W        W27485  17.561  10.647  14.033  0.0188  0.2467 -0.0513
11677W        W27486  12.684  11.400  12.260 -0.0789 -0.0564 -0.1394
11678W        W27487   7.784   0.504   1.084  0.0326 -0.0165  0.1368
11679W        W27488  13.555   3.300  13.892  0.0087  0.2197 -0.0350
11680W        W27489   1.795   1.011   5.524  0.2140  0.0668  0.1516
11681W        W27490   0.150   2.110  14.524 -0.3424 -0.1442  0.2744
11682W        W27491  13.264   8.480  13.744  0.0430  0.3731  0.4397
11683W        W27492   0.056   7.630  16.237 -0.3444  0.1101  0.1324
11684W        W27493  15.071  15.107   4.926 -0.4195 -0.1231 -0.1041
11685W        W27494  14.847  13.237   1.421 -0.0898  0.0799 -0.4224
11686W        W27495  15.244   7.970  10.866  0.1768  0.0287  0.1501
11687W        W27496   6.200  17.647   5.514 -0.0895 -0.0676  0.1987
11688W        W27497   2.352  17.987  10.764  0.1557  0.1179  0.3368
11689W        W27498   9.609  13.270   3.400 -0.1554  0.2340  0.0308
11690W        W27499   3.072  16.902   1.020  0.0276 -0.2446  0.2822
11691W        W27500   8.115  14.593   1.011  0.0514 -0.3133 -0.2521
11692W        W27501   1.741  13.417   5.888 -0.2334 -0.1013  0.1781
11693W        W27502  12.644  17.657   4.657  0.0097 -0.2897  0.3210
11694W        W27503  17.918  12.241   4.680 -0.1457 -0.2257 -0.1016
11695W        W27504  17.555   1.076  12.601  0.1190 -0.0436  0.2869
11696W        W27505  10.185   0.588   1.904  0.0250  0.2456  0.0046
11697W        W27506  12.277   0.808  15.919  0.2053  0.1085 -0.1783
11698W        W27507   6.422  13.668  14.630 -0.0345 -0.1523 -0.3170
11699W        W27508  11.195   8.335   0.526 -0.1303 -0.2298  0.0233
11700W        W27509  15.085   4.282   4.696 -0.1099 -0.0914  0.2329
11701W        W27510   8.095   1.562   4.604  0.2468  0.0588 -0.2193
11702W        W27511  16.307   5.732  14.952  0.1975 -0.2062  0.0311
11703W        W27512  16.443  11.693   0.942  0.0719  0.0484  0.0950
11704W        W27513  15.135   2.319   5.240  0.2564  0.1165 -0.1624
11705W        W27514   5.372  15.230  14.549 -0.2030 -0.3923  0.0106
11706W        W27515   7.524   7.529  15.368 -0.0138  0.2468  0.2687
11707W        W27516   6.552   7.519  13.199  0.1234  0.2350  0.1596
11708W        W27517   9.076   0.601  10.744  0.3443  0.1593  0.0218
11709W        W27518  15.543  11.190  15.492 -0.3013  0.1596 -0.0568
11710W        W27519  12.100   7.865   4.769 -0.1666  0.1262 -0.0389
11711W        W27520  11.565  16.196   3.423 -0.2494 -0.2028 -0.2170
11712W        W27521  14.194   7.899   3.171  0.0021 -0.5028  0.1147
11713W        W27522  10.422   8.478  12.595  0.0315  0.2189  0.1530
11714W        W27523   9.732  17.317  16.253  0.5640  0.0674 -0.0760
11715W        W27524  16.988   1.755   3.337 -0.2850  0.1302 -0.2775
11716W        W27525   9.545   3.567   1.037 -0.2437 -0.1708  0.2198
11717W        W27526   6.720  17.547  14.301 -0.1265 -0.1212  0.1820
11718W        W27527   5.987  17.963   2.351  0.0417  0.2656 -0.3089
11719W        W27528   5.896  16.122   2.778 -0.1745  0.1620 -0.2761
11720W        W27529   8.067  16.447  12.475 -0.4262  0.0085 -0.0481
11721W        W27530   4.755   4.822   2.233 -0.1144  0.4969 -0.1842
11722W        W27531   0.970  14.868  11.885  0.0476 -0.0891  0.0511
11723W        W27532  17.565  13.736  13.581 -0.0047  0.1212 -0.0888
11724W        W27533   6.332   7.168   4.525 -0.1405 -0.1181  0.1092
11725W        W27534  11.012  13.500   4.602 -0.3374  0.0690 -0.1499
11726W        W27535   1.474  14.863   3.127  0.1467  0.0981  0.0279
11727W        W27536  16.664  14.540  12.660 -0.0519  0.4835 -0.0568
11728W        W27537   6.314   8.513   2.135  0.0892 -0.1992  0.2089
11729W        W27538  14.028  12.509  11.760  0.2968 -0.1390 -0.0362
11730W        W27539   4.803   7.684   5.747 -0.0642 -0.1251 -0.1475
11731W        W27540   3.241  16.685   3.251  0.0368  0.1649 -0.0528
11732W        W27541  11.924  17.672  15.675 -0.2385 -0.3779 -0.0554
11733W        W27542  11.119   4.958   1.516 -0.2726  0.2203  0.1658
11734W        W27543   2.724   1.136   1.375 -0.0856  0.0418  0.0385
11735W        W27544   9.034   1.525  12.144 -0.2572  0.1369 -0.0928
11736W        W27545   1.928  10.594  15.623  0.0474 -0.0521 -0.1010
11737W        W27546   8.916   2.968  13.171 -0.0244  0.0703  0.0437
11738W        W27547  16.791  13.998   2.669  0.1910 -0.1217 -0.0662
11739W        W27548  13.848  10.186  13.317 -0.2767 -0.0330  0.2007
11740W        W27549   3.033   1.071  15.160 -0.0720 -0.3433  0.0157
11741W        W27550   8.859  15.615   4.547 -0.1178  0.0865  0.1209
11742W        W27551   6.985  10.174   2.596  0.0162  0.2834  0.2276
11743W        W27552  11.485   0.891   0.619 -0.2106  0.2066 -0.2068
11744W        W27553  13.361  18.022   4.899 -0.0525  0.2032 -0.2197
11745W        W27554  16.378  16.446   4.472 -0.0566  0.0365  0.3776
11746W        W27555  16.626  12.146   1.193  0.1172  0.1836 -0.0004
11747W        W27556  12.632   4.293   4.666 -0.1661 -0.1483  0.1567
11748W        W27557   6.156   3.541   2.677  0.3608 -0.1685 -0.0865
11749W        W27558  12.203  15.810  15.676  0.0985  0.0077 -0.0442
11750W        W27559   8.010   2.998  11.635  0.0976  0.1172  0.0611
11751W        W27560   5.114   5.690   1.746  0.1097 -0.1423  0.0566
11752W        W27561   5.923   1.585  16.037 -0.2071  0.0600  0.1582
11753W        W27562   7.061   3.584  13.013  0.3089  0.1471 -0.1790
11754W        W27563  10.698   2.494  12.521 -0.0818  0.2343 -0.2397
11755W        W27564   1.398   0.160  15.166 -0.2210 -0.0612 -0.1685
11756W        W27565   5.002   9.941   0.181  0.0107 -0.0290  0.0087
11757W        W27566   7.433   5.443  13.091 -0.0172 -0.2044  0.2621
11758W        W27567   7.039  17.250   2.804 -0.3562 -0.0148  0.1317
11759W        W27568   5.106   1.461  14.140  0.5312 -0.2578 -0.2386
11760W        W27569   2.677  16.114   2.520 -0.2272  0.0826 -0.0656
11761W        W27570  18.082  11.073   0.895 -0.0041  0.2804  0.1191
11762W        W27571  13.160  13.336  14.506  0.1286  0.0473  0.2450
11763W        W27572  10.724   0.847   5.095 -0.0415 -0.1597  0.2553
11764W        W27573   8.056   1.729  15.604  0.1920 -0.1383 -0.2311
11765W        W27574   1.271   2.659   1.279  0.2045  0.2677  0.1244
11766W        W27575   1.643  10.777   4.714 -0.1043  0.2953  0.0413
11767W        W27576   0.369  10.731   3.860  0.0671  0.0919  0.0403
11768W        W27577   1.492   9.072  13.223  0.1557 -0.1921  0.3203
11769W        W27578   7.753  12.264   5.247 -0.1538  0.0826  0.1520
11770W        W27579  11.457   4.240   3.733  0.1350  0.3239  0.2553
11771W        W27580  14.613  13.941  11.750  0.2384 -0.0648 -0.1154
11772W        W27581   5.901  10.516  16.122  0.0565  0.1149 -0.1029
11773W        W27582  11.704  17.505   4.822  0.1875 -0.0264 -0.0886
11774W        W27583   8.137   8.947  14.861 -0.0047 -0.2262 -0.0741
11775W        W27584   9.598  13.119   2.382 -0.0297 -0.0408 -0.0105
11776W        W27585   2.172   2.383   2.492 -0.0056 -0.1680 -0.0098
11777W        W27586   1.855   8.914  13.604 -0.1678  0.1093  0.1125
11778W        W27587  14.075   0.330   0.983 -0.0625  0.0531 -0.0580
11779W        W27588   1.372   2.289  10.699 -0.4128 -0.0099  0.1844
11780W        W27589  11.187   4.472  13.452 -0.1769 -0.0202 -0.0639
11781W        W27590   0.369   7.890  14.501 -0.1864  0.0997  0.0399
11782W        W27591  15.203   2.580   2.370  0.0903 -0.0327  0.0136
11783W        W27592  13.296   4.926  15.925 -0.1539 -0.3378 -0.1123
11784W        W27593  10.233  11.900  13.328  0.0635  0.0090 -0.1496
11785W        W27594  15.121   6.699  14.101 -0.2766  0.2431 -0.0012
11786W        W27595  13.423  14.738   4.443 -0.0306  0.3823 -0.0556
11787W        W27596   8.685  17.515  12.137 -0.2173  0.0884  0.1127
11788W        W27597   5.259  16.399  16.215  0.0719 -0.2243  0.4576
11789W        W27598  10.250  17.474   3.284  0.0893  0.1031 -0.0178
11790W        W27599  13.856  11.935  14.420  0.2342 -0.0986  0.0798
11791W        W27600   3.863  10.915  11.608 -0.0067  0.1655 -0.2576
11792W        W27601  13.836   3.407   2.867 -0.0792  0.4094 -0.1074
11793W        W27602  10.504  10.451  16.320  0.1151  0.2644  0.1211
11794W        W27603   3.674  16.534   4.941  0.2142  0.0544 -0.2514
11795W        W27604   4.968   9.818  12.034 -0.1319 -0.3211 -0.0458
11796W        W27605   2.278   3.630   2.909 -0.1138 -0.0759  0.1950
11797W        W27606   8.585   7.758  12.613 -0.1396  0.1341  0.0482
11798W        W27607  12.880   6.872  14.542 -0.1611 -0.1872  0.1945
11799W        W27608  15.705  17.934   5.090 -0.0403  0.1657  0.2480
11800W        W27609   2.618   5.444  14.162  0.1510  0.1075 -0.0832
11801W        W27610   5.251  10.385   0.353 -0.0840 -0.0135  0.1396
11802W        W27611   2.609  16.871   0.742  0.3683 -0.1747 -0.0723
11803W        W27612   4.418  17.842  12.754 -0.0710 -0.1148 -0.0364
11804W        W27613   2.127   8.574   0.785  0.2436  0.1344  0.1471
11805W        W27614   5.702   6.106   3.762  0.2135 -0.3628  0.0519
11806W        W27615  12.932  18.210  13.866  0.0973  0.0730  0.0734
11807W        W27616   5.977   6.869   1.295 -0.1604  0.1404 -0.1963
11808W        W27617  13.671   2.689  12.610  0.1657  0.0862  0.1825
11809W        W27618  15.911  12.684   2.932  0.0433  0.1742 -0.4383
11810W        W27619   3.975   7.905   1.578 -0.2834  0.1448  0.0886
11811W        W27620   1.001  15.049  15.957 -0.1829  0.2657  0.2070
11812W        W27621   4.702  14.314  12.894 -0.0797  0.3034  0.1916
11813W        W27622   6.818   4.623   3.028  0.0878 -0.2532 -0.1459
11814W        W27623   4.927   1.115   0.932  0.1695 -0.3107 -0.2461
11815W        W27624  14.265   3.878  15.038 -0.1700  0.0510 -0.3405
11816W        W27625   4.854   3.251  12.347  0.0660  0.0604 -0.0149
11817W        W27626  14.939  10.428   1.477  0.1513 -0.1823 -0.0952
11818W        W27627   7.418  13.034   3.552 -0.0040 -0.0379 -0.1175
11819W        W27628  10.785  13.836   2.701  0.1746 -0.1012  0.1246
11820W        W27629   8.042   9.747  14.477 -0.0547 -0.2413  0.0379
11821W        W27630   8.106   3.641   1.802 -0.1504 -0.0395 -0.1713
11822W        W27631   1.386  16.648   2.237 -0.1305 -0.2444  0.2620
11823W        W27632   4.095   0.647  12.430  0.1085  0.0003 -0.2527
11824W        W27633  11.492  15.858  11.185 -0.1621  0.1092  0.1070
11825W        W27634   7.085   6.172   2.785 -0.5010  0.1402 -0.1415
11826W        W27635  11.126   0.662  12.860  0.0482 -0.0548 -0.1033
11827W        W27636  12.212   8.548  12.275 -0.0008 -0.0056  0.0884
11828W        W27637  14.614   4.876   4.170 -0.4417 -0.1229  0.4521
11829W        W27638   3.867   9.282   1.618  0.2392 -0.1356 -0.0034
11830W        W27639   1.537   4.644  12.715 -0.0239 -0.0892  0.0796
11831W        W27640  10.939   6.350  15.282 -0.3978 -0.1696  0.0225
11832W        W27641  15.244   5.810   1.179  0.1657  0.2106 -0.5338
11833W        W27642   9.242   5.163  11.062 -0.3188 -0.0039 -0.3113
11834W        W27643  12.549  11.508   4.603 -0.0022 -0.0834  0.0075
11835W        W27644   6.574   4.713   2.293 -0.0979 -0.4036 -0.4643
11836W        W27645  10.090  11.760  16.021 -0.0938 -0.0920 -0.0367
11837W        W27646  10.197  13.250  15.079 -0.0160 -0.1446 -0.0547
11838W        W27647  12.640  13.966  12.596  0.0746  0.0100 -0.0428
11839W        W27648  16.412  15.360  10.673 -0.1746  0.0285 -0.2927
11840W        W27649  12.938  15.468   4.760  0.1841  0.1788 -0.0252
11841W        W27650  12.723   6.998   1.308  0.2796  0.3859  0.2991
11842W        W27651  13.552  14.458  15.538  0.1168  0.0181 -0.2954
11843W        W27652   4.745   0.999   0.352 -0.1203 -0.0574  0.2118
11844W        W27653  15.471   6.753   1.548 -0.2272  0.1593  0.1166
11845W        W27654  14.729  14.062  11.261  0.1570  0.0822 -0.1370
11846W        W27655   4.483   8.009  14.718  0.1797 -0.0602 -0.0506
11847W        W27656   6.849   9.826   0.226 -0.1268  0.2264 -0.0487
11848W        W27657   5.912   2.624   3.536 -0.1953 -0.1974  0.1712
11849W        W27658   9.232  15.707  14.432 -0.1673  0.0334  0.1101
11850W        W27659  12.770  14.373   1.162  0.0011 -0.1973  0.3643
11851W        W27660   5.948  15.395   4.198  0.3123  0.3048  0.1075
11852W        W27661   8.788   7.335   0.017  0.0641  0.4505  0.0708
11853W        W27662  15.528  16.811  15.446  0.1240  0.0238 -0.1112
11854W        W27663  18.012   2.216   1.668  0.1046 -0.0126 -0.1171
11855W        W27664  16.003   8.427   0.460  0.0950 -0.0824  0.0610
11856W        W27665   5.416  14.056   0.810  0.4872  0.0657 -0.0554
11857W        W27666  15.644  17.970   0.963 -0.1590 -0.0920  0.0938
11858W        W27667  14.805   5.856  14.824  0.2517  0.3359 -0.0760
11859W        W27668  17.788  16.540   4.267 -0.0426  0.0990  0.0352
11860W        W27669   5.606  17.840   3.656 -0.0031  0.0105  0.2420
11861W        W27670  14.643   6.889   2.880  0.2828  0.1103  0.0243
11862W        W27671  12.192   6.109  11.855  0.0618  0.5055 -0.0696
11863W        W27672  12.864   8.922   3.056  0.1181 -0.2029 -0.0329
11864W        W27673   1.113  17.536  11.652  0.0659 -0.0508 -0.1950
11865W        W27674   0.007   7.447  11.759 -0.0050 -0.1489 -0.0689
11866W        W27675  14.562  11.954   2.938  0.0700  0.3391  0.0856
11867W        W27676  10.495   2.213   2.525  0.0361  0.0748  0.2625
11868W        W27677   5.969   7.757  10.453 -0.1130  0.2085  0.1542
11869W        W27678  15.193  18.147   1.089  0.0321 -0.0294 -0.1019
11870W        W27679  14.733   8.195   3.200 -0.1637  0.2364  0.1754
11871W        W27680   9.514   7.647  12.241 -0.1054 -0.0766  0.2185
11872W        W27681  12.890   3.117   0.265 -0.1219 -0.0674 -0.1402
11873W        W27682  17.769   9.998   1.629  0.1032 -0.1740  0.0453
11874W        W27683   3.448  17.484   5.341  0.1115 -0.1207  0.0626
11875W        W27684   1.311  15.740   2.162  0.2661  0.0831  0.1209
11876W        W27685  17.361  17.721   0.017 -0.3814 -0.0958  0.0481
11877W        W27686   5.244   9.187  14.189  0.3262  0.0848 -0.0067
11878W        W27687   9.970   9.537  16.233  0.2933  0.1213  0.3829
11879W        W27688  11.821   2.831   4.329  0.0575 -0.0950  0.1677
11880W        W27689  17.051   5.216   0.176  0.2914 -0.2236  0.0606
11881W        W27690   7.899  12.105   1.831 -0.0697 -0.0040 -0.2162
11882W        W27691   3.928   1.065  13.391 -0.2241 -0.1833 -0.1534
11883W        W27692   6.406   4.814   2.857  0.0490  0.2256 -0.2546
11884W        W27693  15.596   9.737   4.971  0.1088  0.0353  0.1635
11885W        W27694   5.485   9.927   1.253  0.0325  0.1836  0.1263
11886W        W27695   9.801   2.405   4.876  0.2024 -0.2781 -0.1288
11887W        W27696  12.661   9.921   2.842  0.0971 -0.0497 -0.0741
11888W        W27697   0.624   9.119   1.271  0.2476 -0.3082 -0.0256
11889W        W27698   8.494  17.517   5.445  0.0567  0.0298  0.1642
11890W        W27699   3.088   9.105  11.681  0.0675  0.0487  0.1630
11891W        W27700   0.165   3.742   0.977  0.0974 -0.2022  0.1619
11892W        W27701   9.818   8.772  13.565 -0.1999 -0.2453  0.1058
11893W        W27702   9.395   0.542   5.790 -0.6080 -0.1172  0.3624
11894W        W27703   6.909  12.730   1.473 -0.0349  0.3256 -0.1108
11895W        W27704   7.085  14.761   1.377  0.2367  0.1873  0.0568
11896W        W27705  12.650  16.105   1.046 -0.0448  0.0979 -0.0593
11897W        W27706   7.540   2.408   4.084 -0.3118  0.1152  0.1545
11898W        W27707  16.026  15.822   4.275  0.2927  0.2151  0.1330
11899W        W27708   8.768  13.040  13.709  0.1861  0.1312  0.2414
11900W        W27709  13.921   8.164  11.534 -0.1219  0.0023 -0.1559
11901W        W27710  17.551   3.440  15.847 -0.0659 -0.1677 -0.2232
11902W        W27711   7.302   9.108   0.046  0.0404 -0.3659 -0.0230
11903W        W27712  17.563   8.805  11.709 -0.1223  0.0643  0.1060
11904W        W27713   5.419  10.960   4.731  0.1550 -0.0876 -0.1498
11905W        W27714  12.008  16.922   4.950 -0.0712 -0.1613  0.1578
11906W        W27715   2.884  15.066  16.200  0.1713  0.1880  0.0377
11907W        W27716   2.819   3.166   4.918 -0.1634  0.2961 -0.1177
11908W        W27717   8.502   2.305  11.358 -0.1616  0.0006  0.1146
11909W        W27718  13.997   9.017   5.778  0.1109 -0.2343  0.1593
11910W        W27719  11.987   5.238  14.525  0.0781 -0.2259 -0.0235
11911W        W27720  13.709   0.387   3.954  0.0919 -0.0251  0.4692
11912W        W27721   1.123  16.422   0.489 -0.0297  0.2500  0.2440
11913W        W27722   6.827   8.651   2.800  0.3141 -0.0381 -0.0684
11914W        W27723   9.673   5.756   4.393  0.2245 -0.0444  0.0824
11915W        W27724   6.602   8.134  14.586  0.0628 -0.1496  0.0118
11916W        W27725   8.544   6.270   4.933 -0.1508 -0.1382  0.2802
11917W        W27726   6.435  10.321  16.201  0.0196  0.0787 -0.1793
11918W        W27727   5.376  16.959   1.877  0.3080 -0.0031 -0.1618
11919W        W27728  13.523   3.707  12.058  0.2883 -0.0710 -0.0841
11920W        W27729  10.281  13.274  13.749  0.3239  0.0685  0.0019
11921W        W27730   4.975  12.227   1.364 -0.1241  0.2075  0.1424
11922W        W27731   6.771  16.245  14.975  0.4404  0.2057 -0.0096
11923W        W27732   1.269  15.120   3.512 -0.0040  0.0215  0.1541
11924W        W27733   5.213  12.099  15.335 -0.2128  0.0512  0.1978
11925W        W27734   6.520   3.177  12.018  0.0208 -0.2913  0.1825
11926W        W27735   3.834   4.083   2.583 -0.2754 -0.0386 -0.0536
11927W        W27736  11.250  10.070  16.253 -0.0537 -0.0098 -0.1418
11928W        W27737  17.175   0.683   5.666  0.0108  0.7202 -0.2935
11929W        W27738   9.136  16.321   0.123  0.0991  0.3681  0.0547
11930W        W27739  14.102  14.682  15.013 -0.2177 -0.1459  0.0574
11931W        W27740  13.494   0.758   0.240  0.1326  0.1152  0.2098
11932W        W27741  13.469   7.085   4.459 -0.0572 -0.0064  0.1421
11933W        W27742   6.363   8.639  16.212 -0.2713  0.1491  0.3536
11934W        W27743   9.149   5.618  14.034  0.0431 -0.3159 -0.3195
11935W        W27744  15.997  13.025   4.712  0.3232 -0.5177 -0.0148
11936W        W27745  15.295  12.763   0.617 -0.1422 -0.0910 -0.1361
11937W        W27746   7.024   6.420  13.060  0.0206 -0.3206 -0.1100
11938W        W27747  13.159   6.588  13.000  0.2641 -0.3632 -0.0155
11939W        W27748  14.745  10.814  11.543  0.1852 -0.1726  0.0474
11940W        W27749  17.812   5.067   2.380  0.0239 -0.0318 -0.0239
11941W        W27750   2.329  11.278  15.043 -0.3382  0.0958 -0.3944
11942W        W27751  18.051   3.689  12.938  0.1646 -0.0706  0.1090
11943W        W27752   5.009   4.846  14.079  0.2326  0.0999 -0.0319
11944W        W27753  15.095   0.807  13.299  0.1148 -0.3412  0.0860
11945W        W27754  13.686  11.424  12.094 -0.1745 -0.0737 -0.3183
11946W        W27755  15.563  15.074  15.454 -0.2448 -0.0532  0.2324
11947W        W27756   1.857  12.732   3.454 -0.1850  0.0516  0.1386
11948W        W27757   0.376   8.170  13.552 -0.0267 -0.0338 -0.1084
11949W        W27758   5.020  10.040   2.974  0.0075  0.0586 -0.0683
11950W        W27759  16.996   6.463  15.877  0.0714 -0.0680  0.1085
11951W        W27760   4.571   7.155   2.643  0.1182  0.0182  0.4300
11952W        W27761  16.894   0.357  12.613  0.1080  0.2399 -0.1390
11953W        W27762  13.765  14.416   1.987 -0.0470  0.2762 -0.1664
11954W        W27763  15.285  16.573  12.598 -0.2355  0.1470  0.0965
11955W        W27764   3.654  14.900  11.163  0.0038 -0.1448 -0.2127
11956W        W27765  10.496  14.014  12.108 -0.0380 -0.2174  0.1154
11957W        W27766  10.619   1.115   4.592 -0.0130  0.1421 -0.0026
11958W        W27767   9.069  10.961   0.054  0.5434 -0.0871  0.2010
11959W        W27768   0.107   1.673   1.671 -0.0489 -0.2058 -0.1381
11960W        W27769   5.328   9.973  14.906 -0.0836  0.1209 -0.0213
11961W        W27770  12.730  14.459   0.446 -0.0288 -0.3681 -0.0345
11962W        W27771  15.888  10.521  13.977 -0.1357 -0.3976  0.3376
11963W        W27772   9.248   0.427  15.127  0.0480 -0.0410 -0.0357
11964W        W27773   5.709   0.758   2.024 -0.1264 -0.1578  0.0164
11965W        W27774   2.529  11.461   5.066 -0.3461  0.0764 -0.2250
11966W        W27775   3.442  17.695   2.719 -0.0633 -0.0722 -0.1079
11967W        W27776  14.015   5.627  16.026 -0.3432 -0.2792  0.0494
11968W        W27777   6.484   6.542   2.440  0.3182 -0.1663 -0.0261
11969W        W27778  14.091  10.900  13.640  0.2901 -0.1625 -0.1239
11970W        W27779   5.897  10.576  12.329 -0.1518  0.3613 -0.2408
11971W        W27780  15.791   9.668   2.749  0.0678 -0.1242 -0.1658
11972W        W27781   7.728  14.054  12.665  0.1544  0.2786  0.0135
11973W        W27782   3.308   2.205  13.955  0.0465 -0.0692 -0.2709
11974W        W27783   2.690   6.728   3.382  0.2942 -0.1862 -0.0232
11975W        W27784   3.459  15.896  12.504  0.0418  0.4103 -0.0919
11976W        W27785  17.537  14.191   4.001 -0.1617  0.1942  0.0473
11977W        W27786   3.942  15.790  11.518 -0.1442 -0.0641 -0.0527
11978W        W27787   1.050  14.849   2.898 -0.1156  0.0554  0.0108
11979W        W27788  17.069  17.114   3.298 -0.0489 -0.0062 -0.3686
11980W        W27789  12.253   6.803   0.753  0.0322 -0.1643 -0.0351
11981W        W27790  12.343   3.148   0.186 -0.1166  0.3859 -0.1510
11982W        W27791  16.194  12.899   2.149 -0.1197 -0.1374 -0.1421
11983W        W27792   4.828  10.940  12.612 -0.1670 -0.0278 -0.1381
11984W        W27793   5.656  12.435  13.709 -0.2638 -0.0458 -0.0469
11985W        W27794   0.044   0.630   4.003 -0.0838 -0.2048 -0.5505
11986W        W27795  16.213  13.562   3.159 -0.2871  0.2976 -0.0659
11987W        W27796  14.941   5.922  13.961  0.2973 -0.1515  0.1968
11988W        W27797   8.487   6.312  13.634 -0.1659  0.0580 -0.1448
11989W        W27798  13.057  10.094  12.801 -0.0156 -0.0343 -0.2220
11990W        W27799   8.265   8.374   1.149  0.0131  0.0958 -0.0451
11991W        W27800   4.428   8.370   2.193 -0.0290  0.3670  0.0068
11992W        W27801   3.518   9.990  11.462  0.1176  0.0810 -0.0605
11993W        W27802   1.494   3.863   4.348 -0.0460  0.0648 -0.2935
11994W        W27803  13.380   0.620   1.271 -0.0907 -0.0995  0.1189
11995W        W27804   8.514   3.750   5.678 -0.2156  0.1784  0.0038
11996W        W27805   4.706  10.560   0.920 -0.2437 -0.0503  0.0198
11997W        W27806  10.600  10.100  12.811 -0.0900 -0.0751 -0.0631
11998W        W27807  10.717   6.262   0.807  0.0770  0.2161 -0.1467
11999W        W27808  15.782  12.601   3.437 -0.0840 -0.3201  0.3014
12000W        W27809   7.097   9.888  12.872  0.5154 -0.0774 -0.1277
12001W        W27810  17.060   0.713   2.034 -0.0816  0.1065 -0.1389
12002W        W27811  15.358  13.165  14.928  0.2075  0.1584 -0.4009
12003W        W27812  17.220   0.921  15.160 -0.0329  0.0109 -0.3770
12004W        W27813   0.381  13.409   4.230 -0.3907  0.0471 -0.0956
12005W        W27814  11.440  14.015   3.392  0.1522  0.0542 -0.2658
12006W        W27815  16.487  11.447   3.479  0.1708 -0.0007 -0.0984
12007W        W27816   4.810  15.133   0.396 -0.0714 -0.0914 -0.0259
12008W        W27817   2.978  10.416   3.741  0.0920 -0.0624  0.0038
12009W        W27818   6.040   2.642  15.895 -0.1939  0.1965  0.0815
12010W        W27819  17.496  17.434   5.475  0.0025 -0.3932 -0.1780
12011W        W27820   3.006  17.445   5.093 -0.0353 -0.0190 -0.1638
12012W        W27821   6.500  14.624   0.950 -0.0076  0.1016  0.0697
12013W        W27822  17.054   4.068   1.248  0.0251 -0.0804 -0.0827
12014W        W27823  13.313   9.251   3.242  0.1884  0.0019 -0.1257
12015W        W27824   9.512  15.333   1.992  0.2389 -0.0279 -0.1891
12016W        W27825   3.859  13.816   1.636 -0.0741  0.2828  0.1824
12017W        W27826   9.274   4.113   5.081 -0.0463  0.1219 -0.1174
12018W        W27827  14.002   2.319   4.433  0.3661  0.3299 -0.2613
12019W        W27828  11.915   0.227  16.178 -0.3664 -0.2190 -0.2066
12020W        W27829   2.249  12.260   2.999  0.1315  0.0285 -0.1704
12021W        W27830   7.204   8.226   3.805 -0.2836 -0.1184 -0.0884
12022W        W27831   5.698   0.513  15.344 -0.4292 -0.0620  0.1816
12023W        W27832   6.069   4.395   1.469 -0.0764  0.1062 -0.0670
12024W        W27833  16.420  18.024  13.377  0.0540  0.3378  0.1273
12025W        W27834  13.193   9.120  10.912 -0.0531  0.4110 -0.1451
12026W        W27835  12.523  15.152   5.989  0.1197  0.1404  0.0971
12027W        W27836  10.992   3.890  14.638 -0.0062 -0.0910 -0.0450
12028W        W27837  17.813   3.507   5.181  0.0837  0.1160 -0.1384
12029W        W27838   1.564   0.658   1.245  0.0322  0.4499  0.2059
12030W        W27839   0.490   6.990  13.361  0.0634 -0.0823 -0.2696
12031W        W27840  15.989   3.680  13.944  0.0516 -0.3328 -0.3187
12032W        W27841   1.607  15.116  11.406 -0.1264 -0.1540  0.0471
12033W        W27842  10.672   9.168   4.268  0.0697 -0.2789  0.3465
12034W        W27843   5.784  14.353   2.945 -0.0359  0.1836  0.2279
12035W        W27844   8.199   7.639  14.430  0.0337  0.0858 -0.2097
12036W        W27845   5.050  15.399   3.103  0.2070  0.1220 -0.0479
12037W        W27846  11.250  10.116  14.548 -0.2143  0.2136 -0.1031
12038W        W27847   5.418  15.650   2.332 -0.1415 -0.7013  0.2135
12039W        W27848   2.324   2.494  11.976 -0.0140 -0.0467 -0.0645
12040W        W27849   6.450  16.020  13.195 -0.1900  0.0804 -0.0885
12041W        W27850  16.187   6.210  14.855 -0.1967  0.1802 -0.2520
12042W        W27851  17.793  16.826  12.377  0.1197 -0.0787  0.1873
12043W        W27852   3.165   3.992  15.759  0.1170  0.1702  0.1318
12044W        W27853   0.499  14.918  12.902  0.1901  0.0859 -0.0032
12045W        W27854   4.161   4.784  14.724 -0.3401 -0.2618 -0.1754
12046W        W27855   5.021   4.562  13.013  0.0605  0.1404 -0.2081
12047W        W27856  12.487  10.660   0.867  0.4524  0.0578  0.0214
12048W        W27857  12.333  10.747  11.125 -0.2582 -0.0078  0.0232
12049W        W27858  12.426   3.540   5.769  0.1046  0.2151 -0.1443
12050W        W27859   2.104   9.468   0.604  0.0487 -0.0456 -0.0929
12051W        W27860   4.429   7.425   4.147  0.2647 -0.1479 -0.1514
12052W        W27861  13.732  16.492  14.397 -0.1031 -0.1961 -0.1329
12053W        W27862   1.029   0.362   3.009  0.0793 -0.1188 -0.1718
12054W        W27863  17.582   2.508  14.180  0.0315 -0.2036  0.2307
12055W        W27864  10.059   0.664  13.478 -0.1452  0.1349 -0.1167
12056W        W27865   7.918  18.123  14.830 -0.2295  0.1224  0.0660
12057W        W27866   5.384  10.559  15.966  0.2013  0.0137  0.2335
12058W        W27867  15.235  17.606  13.706 -0.1587 -0.0753  0.0159
12059W        W27868  17.398  17.088  14.347 -0.0969  0.2344  0.0271
12060W        W27869   3.974  15.116   3.264 -0.0033 -0.1157  0.0440
12061W        W27870  12.781  15.224  14.599  0.0872  0.2912 -0.2924
12062W        W27871   1.061  14.335   0.660  0.0645  0.0088 -0.1558
12063W        W27872  18.183  11.317   0.475  0.0681  0.1184 -0.1821
12064W        W27873  10.536  17.752   4.458 -0.2173  0.3112 -0.0854
12065W        W27874  17.576   6.172  12.694  0.2535 -0.1757 -0.2148
12066W        W27875   7.100   9.539   5.233 -0.2633  0.0960 -0.0454
12067W        W27876  13.319  12.925  16.364 -0.0565 -0.1298 -0.1631
12068W        W27877  13.145  12.537  12.508 -0.4008 -0.0096 -0.1613
12069W        W27878  10.324   7.707  15.436  0.2007 -0.2438 -0.2029
12070W        W27879   1.129   7.328   4.860  0.2529  0.0833  0.2256
12071W        W27880   5.127   4.932   5.650 -0.3476  0.1475  0.1346
12072W        W27881   3.003   9.646  14.985  0.2207 -0.1461  0.0462
12073W        W27882   3.436  15.279   3.253 -0.5957  0.0862  0.1848
12074W        W27883  10.394  17.259  11.301 -0.1025  0.1365 -0.0716
12075W        W27884   7.423   7.068  13.409  0.1566  0.0155  0.0285
12076W        W27885  13.824   2.971   3.236 -0.0577  0.1959 -0.0300
12077W        W27886   2.433   7.733   1.279 -0.1530  0.2045 -0.0481
12078W        W27887  10.329   7.109  11.728  0.4473 -0.0831  0.2838
12079W        W27888   0.585  13.689  12.685 -0.1618 -0.1617  0.0940
12080W        W27889   4.958   9.932  11.402  0.1608 -0.1514 -0.0821
12081W        W27890  17.037  11.124   2.474 -0.0750 -0.2969  0.0981
12082W        W27891   8.917  12.492   0.329  0.2281 -0.1894 -0.0037
12083W        W27892  10.207   3.220  11.201 -0.0677 -0.1119 -0.0398
12084W        W27893  14.244   5.325  12.647  0.1082 -0.3447 -0.4960
12085W        W27894   3.537  15.589  13.130  0.0308 -0.1372  0.0551
12086W        W27895   6.983  16.054   6.275 -0.0730  0.3897  0.3049
12087W        W27896   4.621   2.782   1.668 -0.1696 -0.0104 -0.1332
12088W        W27897   5.109  16.086   0.674  0.2023  0.0131  0.2577
12089W        W27898   2.193  18.124   5.061  0.2209  0.3012  0.2825
12090W        W27899   3.411  17.187  11.919 -0.4232 -0.0203  0.1540
12091W        W27900  10.909   0.567   2.392  0.1567 -0.0445 -0.0119
12092W        W27901  10.977   5.947  11.481  0.0565 -0.0082  0.1579
12093W        W27902   8.761   1.646  13.275 -0.1917 -0.2581 -0.3265
12094W        W27903  11.146   9.007   0.660 -0.1926  0.1073 -0.3621
12095W        W27904   4.579   1.443   0.651  0.1599  0.0530 -0.1010
12096W        W27905   8.468   9.775  11.515  0.4322  0.2775  0.0584
12097W        W27906   2.109  17.210   2.712  0.0533  0.1795  0.1261
12098W        W27907   9.444   2.374  13.872 -0.1907 -0.0957 -0.4228
12099W        W27908   5.111   0.927   2.774  0.2000 -0.0082  0.1000
12100W        W27909  17.930  15.546   5.715  0.1658 -0.2375 -0.1072
12101W        W27910   4.922  15.087  14.359 -0.2150 -0.2496 -0.1090
12102W        W27911   9.684  16.928  15.855  0.0396 -0.2941 -0.0559
12103W        W27912   1.954  14.847   2.872 -0.0313  0.1482  0.2478
12104W        W27913   4.235   5.256  14.383 -0.2828 -0.3943  0.0099
12105W        W27914  10.564   5.447  12.963 -0.1184  0.0100 -0.0467
12106W        W27915   3.487  12.739   2.305  0.0216 -0.0758  0.0981
12107W        W27916   9.891   4.486   1.895  0.1166 -0.0512 -0.0759
12108W        W27917   8.545   1.831   4.385  0.1089  0.2963  0.0038
12109W        W27918   4.968  17.145   2.791  0.2096 -0.0176  0.1892
12110W        W27919  17.942  16.018   1.087  0.2477 -0.1581 -0.3117
12111W        W27920  12.266   5.716   1.317  0.0833 -0.1062 -0.1361
12112W        W27921   6.241  16.068  15.349 -0.1591 -0.0745  0.0779
12113W        W27922  15.619   7.443  12.991  0.0426  0.0652 -0.3465
12114W        W27923  11.534  12.984  12.608  0.0055 -0.1887  0.1770
12115W        W27924  13.560   5.336   2.217  0.1015 -0.1135  0.1860
12116W        W27925   8.846   0.888   1.437  0.1794  0.3045  0.1810
12117W        W27926   5.172   1.383  15.927 -0.0417 -0.1099  0.0163
12118W        W27927  12.465   5.855   3.503  0.1947  0.2362  0.0699
12119W        W27928   5.631  15.928  13.219  0.0695 -0.2261 -0.1490
12120W        W27929   1.623  10.636   3.752 -0.1041 -0.0488 -0.0610
12121W        W27930   9.651   9.530   2.874  0.1076 -0.0012  0.1256
12122W        W27931   9.723   9.031   1.608  0.4447 -0.0170  0.0812
12123W        W27932  18.026  12.935  12.755  0.0416  0.0665 -0.0466
12124W        W27933   2.313  18.088  11.931 -0.1778 -0.3063  0.0347
12125W        W27934   2.804  15.635   3.835  0.0603 -0.1235  0.1950
12126W        W27935   2.881   7.952   1.588  0.0484  0.0621 -0.4163
12127W        W27936   1.404  13.503   5.118  0.1784  0.1340  0.0796
12128W        W27937  17.778   3.798  16.106 -0.3969  0.1270 -0.3103
12129W        W27938   6.763  12.141   0.041  0.0602 -0.1962  0.0395
12130W        W27939   3.258  18.008  11.349  0.3167 -0.2512 -0.1709
12131W        W27940   5.905   9.313   5.481  0.3345 -0.0701  0.1140
12132W        W27941  17.206   1.253   1.640  0.2180  0.2575 -0.1818
12133W        W27942   7.631  12.069   1.341  0.0473  0.1732  0.2390
12134W        W27943   1.419  14.926  16.219 -0.1123  0.2950 -0.5198
12135W        W27944   5.085   1.352   3.769 -0.0080  0.0519 -0.0818
12136W        W27945  18.060  13.348   1.481  0.4516  0.2127 -0.2458
12137W        W27946   3.168   1.306  13.963  0.4412 -0.1788  0.0771
12138W        W27947   1.906   0.214   4.028  0.2150 -0.2717  0.2427
12139W        W27948  12.596   1.035  13.265 -0.0795  0.0287  0.0792
12140W        W27949  13.817  15.878  15.156  0.2131 -0.0151 -0.2150
12141W        W27950   3.205  14.882   9.929 -0.1155  0.0615  0.0760
12142W        W27951   3.230  12.063  11.602 -0.4253  0.1326  0.0256
12143W        W27952   5.512  14.797  11.894  0.4382  0.1501 -0.0319
12144W        W27953  14.059   4.097   1.306  0.0206 -0.0469  0.0477
12145W        W27954  16.216   7.974  12.419  0.0409  0.1981  0.0065
12146W        W27955   7.100  12.675   0.447  0.3251  0.3210 -0.1764
12147W        W27956  15.407  10.594  15.288 -0.1178 -0.2055 -0.0701
12148W        W27957  13.201   1.615   4.268 -0.2579  0.1863 -0.0925
12149W        W27958   2.729  14.716   0.654 -0.0969  0.2356  0.0877
12150W        W27959  15.347   0.542   4.307  0.2519 -0.1718 -0.2917
12151W        W27960   2.184  14.565  12.043  0.1916  0.0637  0.0680
12152W        W27961   4.777   0.414   0.116 -0.0295 -0.3952 -0.0685
12153W        W27962   5.247   6.468  14.811  0.1672 -0.1936 -0.2002
12154W        W27963  18.128   0.045  10.530  0.3700 -0.1677  0.2289
12155W        W27964   2.105  13.041  16.272  0.1296  0.3930 -0.4442
12156W        W27965  15.430  11.647  14.277  0.0378 -0.0625 -0.0609
12157W        W27966  17.712   9.186  11.411 -0.0594 -0.2002  0.0700
12158W        W27967   1.409   3.149   3.142  0.1698  0.1145 -0.2877
12159W        W27968  14.767   0.821   2.502 -0.1661 -0.1118 -0.1179
12160W        W27969  15.560   8.367  12.392 -0.1285  0.2250 -0.4281
12161W        W27970   4.721  11.863   1.567 -0.0059 -0.0397  0.1242
12162W        W27971  16.824   5.097  12.768  0.2270 -0.1822  0.2944
12163W        W27972  13.555  15.530  12.091  0.0652  0.1964  0.1110
12164W        W27973  14.306   0.579   3.023 -0.1930 -0.1871  0.3743
12165W        W27974   4.863  16.793   1.229  0.0483  0.2504  0.2279
12166W        W27975  15.213   8.204  15.338  0.1885 -0.0721 -0.3945
12167W        W27976   8.038   3.840  12.760 -0.0103  0.5232  0.0433
12168W        W27977  15.541  15.079   4.025  0.0457  0.2458 -0.0855
12169W        W27978  16.971   9.764  13.929 -0.1056 -0.1436  0.0454
12170W        W27979  13.487  11.000  11.936 -0.0583 -0.0031 -0.1416
12171W        W27980  11.035   7.268  15.068  0.1838 -0.0518 -0.0870
12172W        W27981  15.653   1.586   4.502 -0.3786  0.0237  0.0104
12173W        W27982   1.295  10.053  16.155  0.1085 -0.1594  0.0268
12174W        W27983  15.037   5.601   2.398  0.0643 -0.0312  0.1183
12175W        W27984   4.381   0.768   5.079 -0.2360  0.0200 -0.0497
12176W        W27985  14.290   0.591  14.903 -0.1507  0.1367 -0.3871
12177W        W27986   6.284   3.803   3.114 -0.0339  0.0914  0.0441
12178W        W27987  12.911   8.093  13.470 -0.0868 -0.1487  0.0775
12179W        W27988  14.629   3.462   4.618  0.0366  0.0605 -0.2209
12180W        W27989  13.880   3.652  12.993  0.1076  0.0557  0.2135
12181W        W27990   2.579   2.547  13.645  0.1233 -0.3341  0.0123
12182W        W27991   0.219  15.219  15.505  0.1575  0.1295  0.1557
12183W        W27992  11.763  15.822  15.986  0.3184 -0.0287 -0.0463
12184W        W27993  12.052  14.969  14.014 -0.1593  0.0405 -0.0877
12185W        W27994   9.765   5.089  15.715  0.0223  0.0332  0.0590
12186W        W27995  11.724  14.400   3.706  0.1324  0.2079  0.0304
12187W        W27996   8.109   4.066   1.545  0.1883 -0.3936  0.2944
12188W        W27997  13.734   6.813   1.609  0.0126 -0.0382  0.0944
12189W        W27998   4.363   3.025   1.336 -0.0783 -0.1879  0.0314
12190W        W27999   8.287   0.501  14.987 -0.0535  0.1307 -0.3859
12191W        W28000  12.845   8.094  14.912 -0.0416 -0.2546 -0.1230
12192W        W28001   7.364  15.756   3.720  0.1649  0.1080  0.1816
12193W        W28002  18.070  14.320  16.322 -0.5115 -0.2905 -0.0251
12194W        W28003   2.995   3.330  13.340  0.1378 -0.1086  0.1690
12195W        W28004  18.216  10.358  11.686  0.3163  0.3296  0.0953
12196W        W28005   3.238  16.495  14.853 -0.2462 -0.0923  0.0577
12197W        W28006   1.891   7.510   4.168  0.4469 -0.0415 -0.1255
12198W        W28007  11.217  17.143   3.830  0.1650 -0.2198  0.1312
12199W        W28008   9.807   1.500  15.416 -0.1122 -0.0520 -0.2260
12200W        W28009  17.596  10.199   6.373 -0.0804 -0.1856 -0.4356
12201W        W28010  15.439   2.654   5.703 -0.1550  0.1072 -0.3413
12202W        W28011  10.384   6.428   4.850 -0.1646 -0.1117  0.3325
12203W        W28012  11.385   1.641   0.992  0.3176  0.2415  0.1311
12204W        W28013   6.406   1.080   2.444 -0.0805  0.0729  0.0935
12205W        W28014  15.484   1.652  14.971  0.0711  0.2105  0.1591
12206W        W28015  17.833  15.321  13.497  0.1403 -0.1094 -0.1613
12207W        W28016  13.857  14.160  15.813  0.2764 -0.1708 -0.0671
12208W        W28017  17.582   0.962   5.620 -0.3073  0.4217  0.0884
12209W        W28018   5.882  18.162   1.349  0.2446  0.0598  0.2801
12210W        W28019  17.269  15.097  14.843 -0.0734  0.2764 -0.1172
12211W        W28020  16.824  16.923  11.754 -0.0582 -0.2192  0.2821
12212W        W28021  16.148   6.428   4.169  0.1435  0.0542  0.0438
12213W        W28022   5.034  16.230  14.098  0.0629 -0.0037  0.3850
12214W        W28023  11.791   3.658  14.324 -0.0470 -0.2304  0.0716
12215W        W28024  17.605  17.895   3.098 -0.2579 -0.1117  0.1967
12216W        W28025   1.979   3.335   3.232  0.1842  0.0765 -0.1710
12217W        W28026  15.311   2.445  14.599 -0.1432  0.1263  0.0116
12218W        W28027  11.409   6.292  13.019 -0.1418 -0.0837 -0.1432
12219W        W28028  10.236  13.523  12.159 -0.1507 -0.0005  0.3066
12220W        W28029   0.308  16.686   6.325  0.2451  0.2748  0.0906
12221W        W28030   1.616  13.023   1.643  0.1597  0.1067 -0.4108
12222W        W28031   7.237  15.345  12.022 -0.2526 -0.2334 -0.0931
12223W        W28032  13.866   8.904   5.009  0.0994  0.1705 -0.0850
12224W        W28033   0.703   4.885  12.734  0.0901 -0.0012 -0.1480
12225W        W28034  13.397  11.017   4.303  0.0618 -0.1325  0.3098
12226W        W28035   0.974   7.572   3.851 -0.2414  0.0901  0.2231
12227W        W28036   7.598  11.007   0.321  0.3007  0.0184 -0.1169
12228W        W28037  15.687   7.361   5.290  0.2084 -0.2122 -0.0668
12229W        W28038   0.154  17.103   0.447  0.0736 -0.0843 -0.2292
12230W        W28039  16.096   2.434   3.513  0.0710  0.0111 -0.2001
12231W        W28040   6.773  11.356  15.440  0.1361  0.1113 -0.0808
12232W        W28041   7.939  10.233   4.955 -0.0469 -0.2807  0.2120
12233W        W28042  15.143   7.203  14.374 -0.0310 -0.0074 -0.1961
12234W        W28043   9.246  15.587  12.479 -0.2664 -0.2204 -0.4301
12235W        W28044   0.702   5.794   5.694 -0.3715 -0.0578 -0.0896
12236W        W28045  11.880   0.214  14.076  0.2149 -0.1713  0.1253
12237W        W28046   7.164  10.052  14.173  0.0196  0.1816  0.1147
12238W        W28047   1.288  11.648   3.695  0.1459  0.0317  0.1547
12239W        W28048  11.121  13.653   0.460 -0.2349 -0.4077  0.5149
12240W        W28049  15.447   9.185   1.977  0.1003 -0.3021  0.0131
12241W        W28050   9.824   7.196  12.601  0.0379 -0.2408 -0.0750
12242W        W28051  15.342   6.170  14.143 -0.2254  0.0824  0.0767
12243W        W28052   0.407   6.969   0.460 -0.0770  0.2474  0.1520
12244W        W28053  12.118   0.240   6.179  0.0854  0.1653  0.1321
12245W        W28054  16.242   9.622   1.540 -0.1550  0.0648  0.0095
12246W        W28055  10.145  18.078   1.355 -0.3881 -0.2025 -0.2158
12247W        W28056  17.845  15.173  11.958 -0.0082 -0.0390  0.1375
12248W        W28057   4.358   3.510  16.221  0.0875 -0.2930  0.0463
12249W        W28058  13.243  15.070  14.904  0.1989 -0.0852 -0.0424
12250W        W28059  14.176   4.848   4.405 -0.0770  0.0212 -0.0167
12251W        W28060  15.866   1.868  13.630  0.0216 -0.0660 -0.2084
12252W        W28061   0.600   2.871   4.350  0.0615 -0.2681  0.2017
12253W        W28062  12.318   7.327  14.444 -0.2180  0.0621  0.1510
12254W        W28063   2.076   5.561   0.648  0.2495 -0.2795  0.1676
12255W        W28064  14.150   2.786   4.041  0.0114  0.0492  0.1923
12256W        W28065  15.504   8.288   0.264  0.2254  0.0936 -0.0825
12257W        W28066  16.049   2.366  13.644  0.1890 -0.2551  0.1154
12258W        W28067  13.771  17.234  14.473  0.2598 -0.2844  0.1706
12259W        W28068  11.944   4.941   0.277 -0.1950 -0.0387 -0.1890
12260W        W28069  11.218  13.017  13.164  0.0988  0.1943 -0.1531
12261W        W28070  12.632   4.147  14.062  0.0060  0.2688  0.1067
12262W        W28071   5.406  14.544   0.752  0.1552  0.0285 -0.0744
12263W        W28072  16.580   5.525   1.946  0.2357  0.0340  0.2041
12264W        W28073  15.452  15.193   2.603 -0.1158 -0.0585 -0.1489
12265W        W28074  12.212  13.175  12.425  0.0086 -0.2188 -0.0130
12266W        W28075  10.046   1.682  11.698  0.0802 -0.0528 -0.1145
12267W        W28076  15.433   0.390  14.029  0.0915 -0.1668  0.0625
12268W        W28077   0.511  10.038   4.426 -0.1739  0.2639  0.3437
12269W        W28078   4.276   4.636  11.519  0.1923 -0.1588 -0.1564
12270W        W28079  12.966  15.798  15.670  0.1672  0.2855  0.1405
12271W        W28080   1.421   3.515  15.277  0.3683 -0.0984 -0.1879
12272W        W28081   7.443   7.818  14.614  0.2624  0.0653 -0.0338
12273W        W28082  16.853  16.797   6.073  0.0338  0.0422  0.1710
12274W        W28083  10.086  12.206   3.998 -0.0259  0.0228 -0.1985
12275W        W28084  15.835  15.112  15.037 -0.0204  0.1044 -0.1189
12276W        W28085   1.248  17.636  11.180  0.0196  0.0690  0.0237
12277W        W28086   8.995  13.377  14.153 -0.1634 -0.1655 -0.0289
12278W        W28087   4.868  11.824  16.167  0.2202  0.2453  0.1515
12279W        W28088   7.825   8.069  11.292 -0.1806  0.1306  0.2822
12280W        W28089   3.209   9.109   2.847 -0.0554 -0.0154 -0.0292
12281W        W28090   9.234   3.087   1.923  0.0791 -0.3093 -0.1256
12282W        W28091  15.502   4.300  11.708 -0.0387 -0.0301  0.0579
12283W        W28092   0.392  15.382  12.893  0.0905  0.3157 -0.1015
12284W        W28093   1.254   1.901   2.318  0.2009  0.2748 -0.0128
12285W        W28094   7.126  14.364   5.220  0.2530 -0.2267  0.2424
12286W        W28095   3.298  12.230  13.160  0.1344  0.0670  0.2201
12287W        W28096   1.504   7.285   0.873  0.0616 -0.1010 -0.1391
12288W        W28097   9.155   0.321  12.008  0.0106  0.0239  0.1361
12289W        W28098   6.518  10.385  11.709  0.2669  0.0884 -0.2100
12290W        W28099   5.326   7.877  13.767 -0.2157  0.0527 -0.2436
12291W        W28100   8.515  17.844  13.923  0.0108 -0.2107  0.1713
12292W        W28101   1.042  13.156   1.026  0.0659  0.0926 -0.3979
12293W        W28102   5.844   2.566   0.015 -0.2050  0.0314  0.1619
12294W        W28103  15.342   2.701   4.695  0.2172 -0.2876  0.1174
12295W        W28104  17.089   9.125  14.620 -0.1730 -0.1580 -0.0682
12296W        W28105  16.465   4.938   2.788 -0.2170 -0.0179  0.0232
12297W        W28106   1.373   3.716  11.018  0.0600  0.0698 -0.3025
12298W        W28107  12.567  12.799  13.319  0.0050 -0.2956 -0.1127
12299W        W28108  12.071  10.964   4.858  0.2718  0.1251 -0.0200
12300W        W28109  13.355   0.563  14.459 -0.1083 -0.2306 -0.0568
12301W        W28110   7.814  11.000  11.580 -0.1162 -0.0369 -0.1616
12302W        W28111  11.319  17.212  12.358  0.1583  0.1902 -0.3378
12303W        W28112   4.006  10.458   2.268  0.1535 -0.0303  0.1556
12304W        W28113   6.746   1.809  16.249 -0.0520 -0.1677  0.0245
12305W        W28114   2.091  15.639  12.950 -0.2900  0.1151  0.0653
12306W        W28115  14.430   7.059  14.500 -0.0507  0.0584 -0.0887
12307W        W28116   6.548  16.526   4.365 -0.1267 -0.1717 -0.1283
12308W        W28117  11.580  14.189   4.140 -0.1272  0.0532  0.3339
12309W        W28118  14.329   3.784   1.568 -0.1312  0.0033 -0.3369
12310W        W28119   9.209  14.255  14.582  0.3472  0.1274  0.0841
12311W        W28120   7.050  11.994  11.202  0.4854 -0.0994 -0.1715
12312W        W28121  13.519  15.328  11.489 -0.2751 -0.2173 -0.2491
12313W        W28122  14.158  10.946  14.932  0.2097  0.3333  0.0107
12314W        W28123   3.580   7.875  12.448 -0.1176  0.0917 -0.0265
12315W        W28124   5.139  16.439   5.587 -0.3250 -0.3470 -0.1412
12316W        W28125  17.417   7.278  13.894  0.1245  0.2274  0.0990
12317W        W28126  12.417   3.663   1.985  0.1245  0.0744 -0.0226
12318W        W28127   3.572   9.786  12.056  0.1812 -0.1103  0.1107
12319W        W28128   5.203   5.307  14.259  0.0776  0.0117 -0.0775
12320W        W28129  17.562   0.886   1.646  0.0679  0.1077  0.0848
12321W        W28130  15.065  12.253  13.111 -0.1026  0.1304 -0.0903
12322W        W28131   8.120  14.369   3.504 -0.0774  0.0573  0.1513
12323W        W28132  16.980  13.688   1.349  0.0074 -0.2779  0.1365
12324W        W28133  14.583   9.696  12.945  0.2096 -0.0412 -0.1012
12325W        W28134  18.103  15.384   3.124  0.1615  0.1197 -0.1211
12326W        W28135  15.448   5.671   2.712 -0.4820  0.0832 -0.2490
12327W        W28136   8.819  12.074   0.988 -0.2426 -0.2147 -0.0129
12328W        W28137   5.581   8.307   5.185  0.3029 -0.0331  0.3027
12329W        W28138   7.979   4.307  12.122  0.2017  0.0153  0.0951
12330W        W28139  13.457  15.694  13.643  0.2536 -0.3433  0.0515
12331W        W28140  11.408   8.844   5.330  0.3298  0.0149 -0.0820
12332W        W28141  17.465   9.423  12.388  0.2379 -0.0159 -0.2516
12333W        W28142   9.517   4.368   0.904 -0.3505  0.1025 -0.3194
12334W        W28143  15.689   6.229   0.333 -0.1077 -0.1206  0.3499
12335W        W28144   0.743  13.402  11.144 -0.1501 -0.1379  0.1756
12336W        W28145   4.225  17.593   4.034 -0.1774 -0.0144 -0.0613
12337W        W28146  11.899   3.292  11.989 -0.4544 -0.3302 -0.1782
12338W        W28147   3.296  10.911   1.995  0.0169 -0.0793  0.0697
12339W        W28148   7.562   5.289   2.035  0.2055 -0.4293  0.2029
12340W        W28149   1.377   0.119  11.698 -0.2975  0.3814 -0.0791
12341W        W28150   0.659   7.855  11.536 -0.1061 -0.1306 -0.2903
12342W        W28151  11.672   2.424   0.823 -0.2232  0.2225 -0.0008
12343W        W28152   8.831   9.135  11.853  0.0682 -0.6973  0.0243
12344W        W28153  11.797   3.596   4.920  0.0611 -0.0902 -0.1919
12345W        W28154  10.246  13.675   0.306  0.1197 -0.2722  0.2501
12346W        W28155  16.428  17.694  14.804  0.1541 -0.0687 -0.0377
12347W        W28156  11.178  14.275  15.568 -0.2141 -0.1763 -0.1215
12348W        W28157  12.480  15.955   3.219 -0.1531  0.0719  0.1548
12349W        W28158   7.584  17.794   5.415 -0.0952  0.2106  0.2479
12350W        W28159  16.780  13.487   3.982  0.1620 -0.1184  0.0172
12351W        W28160  17.247   4.355   0.365 -0.0175 -0.1051 -0.0727
12352W        W28161   8.992   2.018  15.288  0.0559 -0.0198  0.0019
12353W        W28162  10.870   5.326   4.185 -0.0462  0.0148  0.0336
12354W        W28163   2.709   2.069   1.375 -0.0571  0.2271  0.0242
12355W        W28164   2.426   6.402   0.212 -0.1826  0.0406 -0.0386
12356W        W28165   3.776  16.850  10.864 -0.3892  0.3140 -0.3407
12357W        W28166  16.231   5.473  13.457  0.1226 -0.3478  0.0196
12358W        W28167   0.586   7.262   2.497 -0.0817  0.0475 -0.0645
12359W        W28168  16.957   1.839  14.442  0.0226 -0.1560  0.0899
12360W        W28169  16.738   9.770   1.715  0.1085  0.1910 -0.0783
12361W        W28170   1.339  15.592  10.757  0.3426 -0.1767 -0.0435
12362W        W28171  15.279   2.550  15.124 -0.2735 -0.0951  0.0409
12363W        W28172   4.378   7.830   4.556  0.1988  0.0492  0.0212
12364W        W28173  13.769   0.386   1.450  0.1069  0.2296  0.0903
12365W        W28174   9.001  11.262   4.391 -0.2245 -0.0604  0.1400
12366W        W28175   0.156  17.088   5.460 -0.1166  0.1728  0.0870
12367W        W28176   6.490   9.428   3.896 -0.1800 -0.1245  0.1568
12368W        W28177   8.331  11.989  14.913 -0.1087  0.1091 -0.0719
12369W        W28178   5.930   0.279  11.811  0.2386  0.1433  0.1056
12370W        W28179   6.697   9.966  11.936  0.2599  0.0863  0.2040
12371W        W28180   7.603  17.682   5.920 -0.0780  0.1003 -0.3223
12372W        W28181  15.504   6.717  12.553 -0.3554  0.0361 -0.0115
12373W        W28182  14.030  11.599   5.579 -0.1996 -0.1750 -0.1510
12374W        W28183  17.962   0.386   1.673  0.2556  0.2138  0.0734
12375W        W28184   2.850   5.102   3.650  0.1121  0.1707 -0.1880
12376W        W28185  17.931  14.590   2.514  0.0836 -0.0659 -0.1640
12377W        W28186  16.181  17.595  15.376  0.0154 -0.0510  0.2191
12378W        W28187  16.352   8.099  15.435 -0.1273  0.3906 -0.1383
12379W        W28188   1.451   8.468   4.695 -0.3742  0.1204 -0.2179
12380W        W28189  17.137   4.664   1.964 -0.3714  0.2150  0.0701
12381W        W28190   5.213  13.142   1.788 -0.3985 -0.0969 -0.2287
12382W        W28191   6.342  14.800  13.731 -0.1782  0.0253 -0.3257
12383W        W28192   5.145   1.768   3.340  0.0352  0.2045 -0.1336
12384W        W28193  17.829  10.826   5.184  0.0301  0.2016  0.2832
12385W        W28194  12.225  14.081  13.266 -0.2038  0.2272  0.0057
12386W        W28195   5.335   1.770   3.817 -0.0483  0.0223 -0.0946
12387W        W28196   9.987   9.873   2.592 -0.0350 -0.2882 -0.1788
12388W        W28197  14.038  14.788   1.762  0.0032 -0.1274 -0.0028
12389W        W28198   7.432   0.084  12.794  0.1878  0.3755 -0.1226
12390W        W28199   2.408  16.124  14.721 -0.0325 -0.0034 -0.1451
12391W        W28200   0.584   3.981  11.476  0.2185  0.1563  0.0017
12392W        W28201  17.538  15.103  16.320 -0.1595  0.0978 -0.2719
12393W        W28202   6.691  17.853   1.731 -0.0188  0.2716  0.0387
12394W        W28203  10.460   9.468  13.532 -0.1149  0.0789  0.0391
12395W        W28204  10.282   3.160  13.232 -0.0631 -0.0829 -0.1155
12396W        W28205  15.075  13.057   2.878  0.1181  0.0345  0.1427
12397W        W28206  17.441  12.857   3.352  0.0583 -0.0898  0.0181
12398W        W28207  13.933  15.411   3.879  0.0569 -0.1331 -0.0960
12399W        W28208   6.065   9.405   4.989 -0.0376  0.1143 -0.0828
12400W        W28209   5.902  13.894  14.641  0.2462 -0.0648 -0.1121
12401W        W28210  16.665   1.977   2.980 -0.0081  0.4180 -0.3415
12402W        W28211  10.741   8.535   0.608  0.1849  0.0781  0.1755
12403W        W28212  11.734  10.200   0.071  0.0012  0.0950 -0.1676
12404W        W28213  10.576  15.655   3.089 -0.0032 -0.0457 -0.1934
12405W        W28214   7.970   6.429  10.233 -0.1985 -0.0587  0.0497
12406W        W28215   3.309   2.886   5.705  0.1187 -0.0049  0.0853
12407W        W28216   2.861  10.403   5.897  0.2087  0.1784  0.0748
12408W        W28217   2.186  17.254  13.674 -0.0400  0.3862 -0.0370
12409W        W28218   4.257   1.768   3.647 -0.0175 -0.1322  0.1622
12410W        W28219   4.824  16.875  14.702 -0.3443 -0.0555 -0.3457
12411W        W28220   8.790   8.734  13.681  0.2862 -0.0105  0.2951
12412W        W28221  12.045   1.689  12.921  0.2466  0.1478  0.0652
12413W        W28222   0.009  16.706  13.281 -0.2738  0.0269 -0.2621
12414W        W28223  17.334  14.049   3.516  0.0855  0.1275  0.3041
12415W        W28224   4.631   0.424   2.712  0.0810 -0.0152  0.2122
12416W        W28225  10.026  18.061  11.394  0.0661 -0.2954 -0.2492
12417W        W28226  16.601   8.336  12.472  0.0168  0.0444  0.0662
12418W        W28227   4.389   8.313   4.738 -0.2447  0.2385  0.0403
12419W        W28228   7.816  11.878   4.222  0.0912 -0.0084  0.0861
12420W        W28229  14.305  11.797  14.268  0.0944 -0.1274  0.2447
12421W        W28230   8.035   1.312  15.232  0.3485 -0.1602  0.1189
12422W        W28231   1.106   8.467  14.028 -0.0283 -0.1659 -0.0259
12423W        W28232   5.492  12.332   4.310 -0.1110 -0.0065 -0.1402
12424W        W28233   0.361   9.775   5.526 -0.2107 -0.0763 -0.0847
12425W        W28234  11.690  18.128  12.818  0.0638  0.0457 -0.1320
12426W        W28235   6.144   7.734   1.418  0.0505  0.0623 -0.0324
12427W        W28236  10.618  15.344   0.829  0.0639 -0.0974  0.0225
12428W        W28237  10.118  16.817   1.035  0.1677 -0.1342  0.1808
12429W        W28238  15.421  12.183   2.513  0.1466 -0.0675  0.0874
12430W        W28239   3.893   9.638   1.194  0.2131  0.0964 -0.0333
12431W        W28240   2.383   5.069  11.781  0.0265 -0.1174 -0.0267
12432W        W28241  16.087   7.040   4.614  0.1002 -0.1518 -0.1827
12433W        W28242   6.735  10.856  15.578 -0.1673 -0.2133  0.1488
12434W        W28243   8.598  16.720   5.167  0.0562 -0.0200 -0.4070
12435W        W28244  16.993  16.832  13.946 -0.0100  0.0509  0.1550
12436W        W28245   8.146   0.462   2.532 -0.3179  0.3535  0.2346
12437W        W28246  14.775   2.079   0.303 -0.1069 -0.4199 -0.2364
12438W        W28247  14.093  12.085  12.343 -0.0492  0.0870 -0.1547
12439W        W28248  15.712  15.687  11.953  0.1454 -0.1702  0.2028
12440W        W28249  16.827  15.112  11.841  0.0232  0.0677  0.1451
12441W        W28250   5.647   9.681   1.654  0.1953  0.1573  0.1600
12442W        W28251  13.114  17.586   5.034 -0.1017 -0.0350 -0.1998
12443W        W28252  17.893   8.747  10.439  0.1481  0.2749  0.2557
12444W        W28253  13.628  14.944   2.050  0.0679 -0.1900  0.1020
12445W        W28254  17.848  18.064  15.191  0.3625 -0.0907 -0.1104
12446W        W28255  12.652   4.854  13.305 -0.0842 -0.0025  0.4292
12447W        W28256  15.901   4.003   2.363  0.1350  0.0714 -0.2409
12448W        W28257  16.917   5.019   4.532 -0.0124 -0.1030  0.1530
12449W        W28258   1.224   9.335   3.164 -0.0990 -0.2089 -0.3973
12450W        W28259   7.478   1.831  11.627 -0.1122 -0.1051  0.1734
12451W        W28260  10.751   7.542   2.603 -0.0919 -0.2467 -0.1302
12452W        W28261   7.419   1.877   0.853  0.1190 -0.1315  0.0253
12453W        W28262  13.271   7.281  14.500  0.0943  0.1934 -0.0076
12454W        W28263  17.617   3.564   2.579 -0.2034 -0.3228  0.1809
12455W        W28264  12.593   1.571  14.142  0.2908  0.0671 -0.0571
12456W        W28265  13.498  17.495   3.442 -0.0837 -0.0397  0.0229
12457W        W28266   7.506   3.993  12.694 -0.3895  0.1133 -0.2321
12458W        W28267  11.801  12.103   5.408  0.0425  0.0397  0.1563
12459W        W28268   3.802   1.612  13.215 -0.1581 -0.0706  0.3135
12460W        W28269   3.052  14.581   4.759 -0.1980 -0.2429  0.0519
12461W        W28270  16.114   6.344   3.427 -0.1684  0.1788  0.1357
12462W        W28271   7.873  16.351  13.271  0.1556  0.1364 -0.0751
12463W        W28272  11.906   3.331  14.717  0.2650 -0.0255  0.2016
12464W        W28273  13.159   8.263   2.692  0.1047 -0.2383 -0.1253
12465W        W28274   9.894   9.797  12.414 -0.0534 -0.0175  0.0453
12466W        W28275   6.880  16.920  15.301  0.1542  0.0086  0.1935
12467W        W28276  16.784  13.437  13.436  0.0579 -0.0179  0.2189
12468W        W28277   1.277   5.936   3.497  0.0967  0.2309  0.1929
12469W        W28278   9.245  12.855   1.408 -0.1048  0.2090 -0.2082
12470W        W28279   1.185   7.684  13.940  0.0935  0.2798 -0.0871
12471W        W28280  11.123  11.644  12.793  0.0410  0.1644 -0.2466
12472W        W28281  13.749   2.060   1.004 -0.3532 -0.0280  0.1375
12473W        W28282  10.576   4.236  12.428  0.1848 -0.1844 -0.0517
12474W        W28283  11.866  15.608   5.708  0.1425  0.0402 -0.1876
12475W        W28284  17.111   4.858   0.521  0.0383  0.0463  0.0584
12476W        W28285   6.364   2.237  15.246  0.1022  0.0084 -0.1537
12477W        W28286  16.336   9.106  12.981 -0.3037  0.0365 -0.3166
12478W        W28287   9.550  10.970  13.043 -0.0124  0.2724 -0.0397
12479W        W28288  13.416   7.835  12.190 -0.0251  0.1611 -0.3189
12480W        W28289   2.538   7.368   3.596 -0.3417 -0.1664  0.3394
12481W        W28290   1.926  13.942   0.910  0.1731  0.0848 -0.0252
12482W        W28291  11.607  14.749   1.657 -0.2704 -0.3290  0.0533
12483W        W28292  14.223   3.788   6.416  0.0510 -0.2676 -0.0897
12484W        W28293   9.439   1.232  15.744  0.1191 -0.2518  0.1016
12485W        W28294   9.554   2.190  15.442  0.0987  0.0158  0.1994
12486W        W28295   5.477   1.454   1.373 -0.1757 -0.0356  0.3192
12487W        W28296  13.944   5.729   2.834  0.0331 -0.1795  0.0193
12488W        W28297   8.138  12.221   4.887 -0.0724  0.3952 -0.1767
12489W        W28298  10.876   9.254   0.329 -0.0605 -0.0834 -0.0277
12490W        W28299  13.689   8.533  14.574 -0.1427  0.2404 -0.0453
12491W        W28300   2.494  14.044  15.672 -0.0084  0.1008 -0.1289
12492W        W28301  12.910  16.678   4.863  0.6357  0.4305 -0.3746
12493W        W28302   3.814   6.916   5.759 -0.2341  0.0772  0.1299
12494W        W28303   1.587  12.238   2.430 -0.2166  0.5651 -0.0374
12495W        W28304   5.975   5.321   1.838 -0.3791  0.2691  0.1881
12496W        W28305  13.625   7.773  15.837 -0.3301  0.1260  0.0867
12497W        W28306   2.010   2.896  13.664 -0.0968  0.4707  0.1953
12498W        W28307  13.306   9.531  13.726  0.1742 -0.0767  0.0514
12499W        W28308   9.992   3.933   1.773  0.0741  0.1573  0.2266
12500W        W28309   1.467  11.163  14.361 -0.0227  0.0442  0.2192
12501W        W28310   9.191   5.389   4.146 -0.0233 -0.4449 -0.1647
12502W        W28311  16.315   2.436  14.804  0.2715 -0.0279 -0.1983
12503W        W28312   2.311  12.842   2.755 -0.1476  0.0217 -0.0394
12504W        W28313  14.108   6.787   1.209 -0.1855 -0.0694 -0.5402
12505W        W28314  16.171   5.905  14.431 -0.2747 -0.0118 -0.1411
12506W        W28315  16.925   6.301   5.796 -0.0534 -0.1370 -0.1156
12507W        W28316   1.057   2.691   4.344 -0.2024  0.2839 -0.1334
12508W        W28317   3.206  17.351  12.347 -0.1042  0.0887  0.0839
12509W        W28318   8.205  10.692  11.428 -0.0367 -0.1006 -0.1083
12510W        W28319  15.669   4.143   5.601 -0.3619 -0.0888 -0.2566
12511W        W28320  10.689  11.346  14.062 -0.0572  0.1728  0.0755
12512W        W28321  14.653   7.991   5.669  0.0141 -0.1976  0.1432
12513W        W28322   6.458  11.655  12.791  0.0929 -0.1213 -0.0934
12514W        W28323   6.017  15.669  14.521  0.0353 -0.1985  0.0936
12515W        W28324   4.270   8.822   5.497 -0.2911 -0.1588  0.2675
12516W        W28325   8.669  13.814  10.487  0.3317  0.0524 -0.1236
12517W        W28326  12.045   4.858  16.121  0.1403 -0.2601 -0.1116
12518W        W28327  17.139   9.658   4.317 -0.1665  0.1689  0.0137
12519W        W28328   8.271   1.666  16.045 -0.0908  0.0866  0.0577
12520W        W28329   1.381  12.939   3.508  0.0023  0.1898 -0.0117
12521W        W28330   4.588  10.106  13.000 -0.0185 -0.2432 -0.0817
12522W        W28331  10.920  13.066   3.747  0.0812  0.0079  0.0704
12523W        W28332  12.368   9.855   0.696 -0.2793 -0.1688  0.1092
12524W        W28333   5.397  13.116   4.960 -0.0350 -0.1587  0.1810
12525W        W28334  13.065  13.516   5.217 -0.0195  0.0196 -0.1498
12526W        W28335  10.152  15.498   2.653  0.1431 -0.0683 -0.1462
12527W        W28336   4.701  16.640   0.639  0.1721  0.0059 -0.2276
12528W        W28337   4.006  17.709  13.707  0.1795 -0.1702  0.1302
12529W        W28338  14.128   6.453  16.182 -0.1042  0.1592 -0.0658
12530W        W28339   3.983  16.107   5.062 -0.0663 -0.0355 -0.2135
12531W        W28340  11.356   9.672  12.984 -0.3725  0.1562  0.0848
12532W        W28341  14.697   4.976   2.252  0.1348 -0.1444 -0.2946
12533W        W28342  16.049  12.421  14.168  0.0498  0.0940  0.1661
12534W        W28343  12.590  13.816   4.296 -0.1388 -0.0165  0.0814
12535W        W28344   8.797  17.472  10.164 -0.0642  0.0023 -0.0499
12536W        W28345   2.446   9.080   4.990  0.3862  0.1401  0.0697
12537W        W28346  12.856  18.100   5.594 -0.1548  0.1334  0.1055
12538W        W28347  11.763  13.708   1.488  0.0511  0.0248 -0.1700
12539W        W28348  12.821   5.691  14.137 -0.0209  0.1321 -0.2733
12540W        W28349  16.574  14.071   0.061  0.1776 -0.2350  0.0466
12541W        W28350  11.246  11.090   5.556 -0.2858  0.1870  0.0912
12542W        W28351   3.537  11.078  13.362 -0.1363 -0.1593  0.0210
12543W        W28352  15.203   7.720  14.469 -0.0570 -0.2466 -0.0274
12544W        W28353  14.829   8.381   4.308  0.0656 -0.0924 -0.0191
12545W        W28354  13.635   1.797   5.668  0.0896  0.1075  0.3041
12546W        W28355   5.861   5.950  14.538  0.0152  0.1046 -0.0245
12547W        W28356   4.215  10.401   4.445 -0.0190  0.0455 -0.0934
12548W        W28357  14.609  16.209   4.313  0.0316  0.0488  0.1939
12549W        W28358  15.299   4.684   4.888  0.2074 -0.0445 -0.3594
12550W        W28359   9.694   6.433  15.598  0.0207  0.0911 -0.3066
12551W        W28360   9.511  10.160  13.627  0.0213 -0.1405 -0.2479
12552W        W28361   4.799   2.504  14.274  0.1174 -0.1247  0.0659
12553W        W28362   4.963  10.770  15.262 -0.3535 -0.0721 -0.0818
12554W        W28363   6.586   0.442  11.799 -0.2154 -0.2860 -0.0216
12555W        W28364   0.105   1.570   3.575 -0.3947  0.2213 -0.0106
12556W        W28365   6.226   9.031  13.722 -0.0507 -0.0600 -0.1791
12557W        W28366   2.620  16.640   3.826 -0.2599 -0.0251  0.1543
12558W        W28367   2.236   3.660  14.567 -0.0385  0.0273  0.2142
12559W        W28368   8.011  10.360  15.698  0.1686  0.1547  0.1284
12560W        W28369  15.235  14.731  13.802  0.0653 -0.2256  0.0050
12561W        W28370  15.044  11.383  13.377 -0.0061  0.1152  0.0668
12562W        W28371  10.458   5.897  11.787 -0.1119 -0.0171 -0.2214
12563W        W28372   8.602  15.634  15.225 -0.1339  0.0385 -0.1755
12564W        W28373   1.676   1.101   2.448  0.3626 -0.0618 -0.0461
12565W        W28374   9.320  17.649  16.248 -0.2802 -0.1350 -0.1106
12566W        W28375   8.763  17.852   5.085 -0.0207 -0.0689  0.0046
12567W        W28376  12.164   0.331  12.347 -0.3953  0.1980 -0.3144
12568W        W28377  15.898   4.547   0.275  0.2401  0.0829 -0.0172
12569W        W28378   0.705   3.692  13.981 -0.3549 -0.0723 -0.0730
12570W        W28379  13.805  14.968  14.220  0.2857  0.3207  0.1022
12571W        W28380  10.226  16.397  14.466 -0.1418  0.0320 -0.0618
12572W        W28381   7.380  11.204  12.293  0.1300 -0.0384  0.3314
12573W        W28382  17.539   1.152   4.504  0.1328  0.0246  0.2633
12574W        W28383   8.617  12.386  10.901  0.2221 -0.1375  0.0282
12575W        W28384   8.338  14.929  14.325 -0.0330 -0.0509 -0.0455
12576W        W28385  10.718   8.254  14.907 -0.0743 -0.0682  0.1190
12577W        W28386   9.515  17.405  14.916 -0.2141  0.1894 -0.2652
12578W        W28387  15.847  15.564   2.867  0.0080 -0.0563 -0.1711
12579W        W28388   3.370   1.808   3.053  0.1921 -0.0980 -0.3434
12580W        W28389   3.637   3.919  13.164 -0.0131 -0.4396 -0.0379
12581W        W28390   5.294   7.159   0.176 -0.0045  0.0566  0.2257
12582W        W28391   8.925  13.955   3.963  0.1701  0.2225 -0.3263
12583W        W28392   8.276  14.877  13.408 -0.1475 -0.0272 -0.1769
12584W        W28393   7.568   9.343   4.943  0.0729 -0.1383 -0.3216
12585W        W28394   5.649   5.864   6.477 -0.0176  0.2621 -0.0079
12586W        W28395  12.050   0.476   3.220  0.1233 -0.1661 -0.0265
12587W        W28396   4.150  14.995  11.010  0.0124 -0.1499 -0.0106
12588W        W28397  12.689   4.698   3.097  0.2937  0.1043  0.2104
12589W        W28398  16.917   0.784   1.580  0.0657 -0.0124 -0.1193
12590W        W28399   3.102   8.028   0.516  0.1721  0.0351  0.1796
12591W        W28400   2.610  13.952  14.765 -0.0410 -0.1046  0.1489
12592W        W28401   7.427   0.667   4.707 -0.0992  0.0395 -0.2929
12593W        W28402   3.552   6.291   2.427 -0.1191  0.1122  0.1941
12594W        W28403   3.415  11.815  12.023 -0.0390 -0.1355 -0.2350
12595W        W28404   0.333   0.610   4.841  0.0348  0.2927  0.3307
12596W        W28405   6.674   0.628  13.152 -0.1181  0.1708 -0.0816
12597W        W28406  15.947   9.211   0.341 -0.0072  0.0945  0.0061
12598W        W28407   5.794   6.109  14.008 -0.0139  0.1261 -0.0320
12599W        W28408  16.774   8.157   2.497 -0.0832 -0.0814 -0.1891
12600W        W28409   3.451  17.065   0.708 -0.1391 -0.0283  0.0937
12601W        W28410   0.151  17.786  12.481 -0.2013  0.1991 -0.1025
12602W        W28411  16.147   5.329   0.003 -0.3335 -0.0314 -0.1615
12603W        W28412   0.631  12.016  16.265 -0.2382 -0.1679 -0.1014
12604W        W28413   2.213   7.143   1.733  0.0520 -0.0025 -0.3358
12605W        W28414   0.253  17.513   0.185 -0.0719 -0.0569 -0.4421
12606W        W28415  17.340   2.542  15.808  0.1371 -0.4185  0.1182
12607W        W28416   2.266   2.850   2.354 -0.3111 -0.1253  0.4083
12608W        W28417  10.665   2.681   0.733  0.3428  0.0414 -0.0358
12609W        W28418   7.099   3.976   0.608 -0.4593  0.0307  0.3906
12610W        W28419  10.849   8.005  14.127  0.0994  0.6337  0.2835
12611W        W28420  11.393  10.710  12.108 -0.0086  0.0216  0.0424
12612W        W28421  10.219   1.455  11.285  0.0106  0.1657 -0.0655
12613W        W28422   1.344   1.629   5.014  0.0476 -0.3439  0.0083
12614W        W28423   9.499   9.213  13.421  0.3699 -0.4438  0.2833
12615W        W28424   0.771   7.404  15.148 -0.0873 -0.0608  0.0567
12616W        W28425   4.273  15.508   0.981 -0.2689  0.3057 -0.0994
12617W        W28426  18.153   3.937   3.208  0.1023 -0.1133 -0.1580
12618W        W28427   3.646  11.796   4.188 -0.1874  0.0432 -0.0054
12619W        W28428  14.289  12.748   2.391  0.2511  0.0464  0.0837
12620W        W28429   1.721  11.615   4.892  0.0054 -0.1022 -0.1211
12621W        W28430   4.620  10.745  14.837 -0.1704  0.1869  0.0059
12622W        W28431   9.409  10.411   0.091  0.2425 -0.1758  0.1093
12623W        W28432  18.183   9.120  12.456 -0.2226  0.1475 -0.0252
12624W        W28433   2.510  13.331  12.757 -0.0281  0.0730 -0.3010
12625W        W28434   4.025   1.578  16.209  0.2088 -0.0131 -0.0130
12626W        W28435   8.030  15.856   1.695  0.0453 -0.0698 -0.0249
12627W        W28436   5.293   4.760   2.065 -0.0396  0.1949  0.3684
12628W        W28437   8.841   6.747   4.293 -0.0328 -0.1505  0.0014
12629W        W28438  14.657   5.482  12.824 -0.0174 -0.0354 -0.1311
12630W        W28439  17.754  13.938  11.797  0.1432  0.1559  0.1093
12631W        W28440  12.351  14.303   4.519 -0.1939 -0.1688 -0.2159
12632W        W28441  18.166  13.365   3.478 -0.0454 -0.2878 -0.1175
12633W        W28442   8.620   7.899   0.606  0.0120  0.3129 -0.0450
12634W        W28443   1.855  11.493  14.231  0.3526 -0.2199 -0.2866
12635W        W28444   8.822   0.030   0.385  0.1977 -0.2287  0.1977
12636W        W28445   1.783   8.019  12.404 -0.0746 -0.1376  0.0505
12637W        W28446  17.700   8.089  10.331  0.1707  0.0812  0.2482
12638W        W28447  15.210   0.150   4.785  0.0414  0.0509  0.1227
12639W        W28448   6.323  15.412   1.391  0.3310  0.1475 -0.2158
12640W        W28449  15.520   2.576   6.307  0.0126  0.1377 -0.1329
12641W        W28450   4.462  15.478   4.106 -0.4935 -0.1403  0.1351
12642W        W28451  16.326  15.791  12.151 -0.0630 -0.1987  0.0398
12643W        W28452   4.834   7.927  13.595  0.1254 -0.2881 -0.0330
12644W        W28453   1.546  10.104  15.619  0.1339 -0.0377 -0.3393
12645W        W28454  12.021  11.310   4.562 -0.1373 -0.0137  0.0694
12646W        W28455   4.425   3.489   5.946  0.0999  0.3588  0.0397
12647W        W28456  14.117  16.489   1.164  0.1036  0.1689  0.1501
12648W        W28457   2.458   5.563   0.344  0.0167 -0.0379 -0.0892
12649W        W28458   6.807   3.434   4.795 -0.1703 -0.0629  0.1151
12650W        W28459   3.845  15.702  14.432 -0.3012  0.1858  0.6277
12651W        W28460   3.167   1.608  12.813 -0.1467  0.2724  0.1864
12652W        W28461   6.671  12.130   3.625  0.1732  0.0275 -0.0954
12653W        W28462   5.362  13.423  12.192  0.0976  0.2836  0.1578
12654W        W28463   9.326   0.201   3.699 -0.1453  0.0665  0.0842
12655W        W28464   8.250   1.855   3.714  0.0801 -0.5160 -0.0461
12656W        W28465   6.530  15.652  12.880  0.0031 -0.2432 -0.1930
12657W        W28466  11.176   0.725  15.525 -0.2855 -0.3026  0.0011
12658W        W28467   0.228   7.491  14.236 -0.1027 -0.2184  0.1100
12659W        W28468  16.754   6.417   4.031  0.3871 -0.0635  0.0485
12660W        W28469   8.941  13.841   2.408 -0.1012 -0.0791 -0.1444
12661W        W28470   4.474   5.312  14.834 -0.2112 -0.1114  0.3550
12662W        W28471   3.798  12.834  12.934 -0.0464  0.2391 -0.0811
12663W        W28472  13.205   8.036   1.291  0.0093  0.0700  0.1886
12664W        W28473   2.573   3.129   1.396  0.0991  0.2658 -0.0611
12665W        W28474   4.770   2.109  14.723  0.1334  0.0542 -0.0454
12666W        W28475   0.650   9.376   3.310  0.1903 -0.0940  0.0073
12667W        W28476  14.189   2.898   1.142 -0.1042  0.1309 -0.0532
12668W        W28477   5.235  11.846   5.711  0.2952  0.1282  0.2842
12669W        W28478   9.466   8.099   0.771  0.0112 -0.1012  0.0410
12670W        W28479   2.625  14.084   2.903 -0.1890  0.0332 -0.0032
12671W        W28480   7.186   0.383   3.417  0.0183 -0.3100 -0.1945
12672W        W28481  15.420  15.775  14.301  0.2047 -0.0460 -0.0997
12673W        W28482   4.398   7.729  11.399  0.1750 -0.1822 -0.2436
12674W        W28483   4.520  14.801   0.669  0.1990  0.3193  0.1325
12675W        W28484   9.147  15.133  11.628 -0.2944  0.0565 -0.2947
12676W        W28485  16.908   4.460   0.946  0.0745  0.1094  0.1583
12677W        W28486   7.284   9.636   0.044 -0.1657  0.0447 -0.1184
12678W        W28487  16.643  17.393  15.921  0.4498  0.0003  0.0963
12679W        W28488   1.981   0.303   6.047 -0.3085 -0.0624 -0.0711
12680W        W28489   6.740   3.326  15.378 -0.1227 -0.0134  0.1324
12681W        W28490   5.102   9.172  11.945 -0.0564 -0.0331 -0.5917
12682W        W28491  16.627  13.525  14.685 -0.0394 -0.1087 -0.0617
12683W        W28492  13.382  16.124  15.358 -0.0730 -0.1530  0.1178
12684W        W28493   3.816  17.094   3.345 -0.0225  0.0020  0.0974
12685W        W28494  14.592   1.044   1.139  0.3239 -0.0552  0.2015
12686W        W28495   9.797   1.878   3.181  0.1225  0.1494  0.0346
12687W        W28496  15.192   7.815  13.427 -0.0704  0.1434 -0.2202
12688W        W28497  10.384   3.723   1.539  0.0795 -0.0776  0.1136
12689W        W28498   3.730   6.474  15.207 -0.0225 -0.0574  0.0917
12690W        W28499   5.225  11.375   4.989  0.1089 -0.0254  0.1816
12691W        W28500  15.488   4.306  13.758 -0.0684 -0.5210  0.0689
12692W        W28501  10.338  11.825  10.994  0.0670  0.5013  0.1728
12693W        W28502   1.038  14.024   5.816 -0.2308  0.0541 -0.1079
12694W        W28503   5.997  13.972  11.862  0.1482  0.2575  0.3424
12695W        W28504  10.944  15.582   0.092 -0.2761  0.1334 -0.0140
12696W        W28505   7.681   1.577   4.977  0.1962  0.0653  0.1923
12697W        W28506  10.272  10.800   2.558 -0.5212 -0.3131  0.0502
12698W        W28507  15.834  10.152  12.151 -0.0851  0.1594  0.1024
12699W        W28508  17.842   0.336  14.632 -0.4513  0.1198 -0.1100
12700W        W28509   0.104  14.642  15.576  0.1134  0.2180  0.1809
12701W        W28510   2.515  14.345   2.520 -0.1933  0.0895 -0.1648
12702W        W28511  12.617   3.841  13.076  0.0174 -0.2023 -0.1032
12703W        W28512  15.925  11.366  14.115 -0.0558 -0.3601 -0.2675
12704W        W28513  15.451  17.808  12.925  0.2610  0.1036  0.0071
12705W        W28514   2.496  12.586  15.838 -0.1715  0.0927 -0.1273
12706W        W28515  17.349   7.150   5.439 -0.2268 -0.1946 -0.1720
12707W        W28516   9.163  10.149  12.295 -0.0186 -0.2222  0.1516
12708W        W28517   0.196   5.949   0.394  0.1193 -0.1835  0.2923
12709W        W28518   7.362   7.200   0.692  0.2228 -0.1493  0.0827
12710W        W28519  13.165   5.140   1.200  0.0662 -0.2456 -0.2003
12711W        W28520   3.242  13.619  14.501 -0.3783  0.1214 -0.0543
12712W        W28521  13.914   0.513   2.720 -0.2139 -0.1291  0.3961
12713W        W28522   3.906   9.762   2.564 -0.0921  0.2808 -0.1533
12714W        W28523   4.420   0.708   3.484 -0.0873  0.2246 -0.0171
12715W        W28524  17.611  10.033   0.393 -0.0018 -0.1391 -0.1561
12716W        W28525   9.407  11.851  12.348  0.3379 -0.0785 -0.1116
12717W        W28526  12.987   0.888   3.135  0.1109  0.1230  0.1161
12718W        W28527  15.331  17.811   2.911  0.2084 -0.0587  0.1479
12719W        W28528  15.169  10.890   5.025 -0.1642 -0.0881  0.0213
12720W        W28529   9.702   5.822  11.002 -0.3056 -0.0255  0.1621
12721W        W28530   8.578   3.861   1.710 -0.1028 -0.0991 -0.1091
12722W        W28531  15.617  13.664   4.161  0.1472 -0.1298 -0.0173
12723W        W28532  13.105   6.086  14.329 -0.0317 -0.0909  0.1416
12724W        W28533  18.148  18.026  13.446  0.0386 -0.2093  0.1597
12725W        W28534   9.312   7.384   1.370  0.0253 -0.0823 -0.0832
12726W        W28535   2.351   7.818   0.068 -0.3297 -0.0889 -0.2919
12727W        W28536   7.214   3.812   1.426  0.0415 -0.0758  0.1591
12728W        W28537  17.140   8.456  15.873  0.1291 -0.2419  0.1163
12729W        W28538   0.923  10.087  15.805  0.1875 -0.1205  0.1749
12730W        W28539  17.299  17.780   3.906  0.0542  0.0521 -0.1695
12731W        W28540   1.300  15.595   4.379  0.0631  0.1604 -0.2028
12732W        W28541  17.248  17.814  13.681 -0.3024  0.0529 -0.0891
12733W        W28542  12.534   3.619  13.823 -0.3238  0.1395  0.0869
12734W        W28543  13.778   3.304  11.898 -0.1395  0.0803 -0.1683
12735W        W28544   0.815   1.269  13.079 -0.1923 -0.0455 -0.2280
12736W        W28545   9.642  16.824   1.972 -0.0898 -0.0480  0.1642
12737W        W28546  14.483  14.024  14.133 -0.2477 -0.1370 -0.0011
12738W        W28547  17.766  10.555   1.334  0.0301  0.4435 -0.1209
12739W        W28548  15.268  12.263   6.138 -0.1465 -0.0036  0.0099
12740W        W28549   3.934  14.556   3.333  0.1769 -0.0176  0.4553
12741W        W28550  11.867   9.926  13.717  0.1346 -0.2245 -0.0378
12742W        W28551   2.507  17.658   0.991 -0.2582 -0.2030  0.1394
12743W        W28552   1.591   8.271  12.009  0.2812  0.2989 -0.1870
12744W        W28553   5.236  14.653   4.377  0.0307 -0.1968 -0.1876
12745W        W28554   0.200   2.312   1.312 -0.0009 -0.1237 -0.3152
12746W        W28555  15.425   9.805  13.257  0.1715 -0.1227  0.0004
12747W        W28556   9.008   1.228  15.446 -0.0209  0.0350  0.3041
12748W        W28557  17.491   2.957   4.331  0.0343  0.0980 -0.1695
12749W        W28558   0.790   8.696  12.976  0.1468 -0.2225  0.1440
12750W        W28559  16.666  10.282   0.912  0.1957 -0.1199 -0.0378
12751W        W28560   3.482  14.392   2.015 -0.0580 -0.0083  0.0209
12752W        W28561  11.376  12.829   0.597  0.0324  0.3150  0.0732
12753W        W28562   9.892  11.973   3.582  0.1327 -0.0664  0.0649
12754W        W28563  15.741  15.730   4.879  0.2433  0.2343  0.2298
12755W        W28564  10.267  13.167  13.209 -0.1061  0.0197  0.4955
12756W        W28565   8.183   0.093   3.734 -0.0079 -0.0199 -0.0104
12757W        W28566   1.579   2.856  16.225  0.0901  0.1866  0.0891
12758W        W28567  15.056  14.361  15.282 -0.0328 -0.1279  0.4530
12759W        W28568   7.037  13.062  11.424 -0.0797 -0.0880  0.0586
12760W        W28569  13.674   9.672  13.432  0.5035 -0.0894  0.1385
12761W        W28570   9.676   0.657   0.580  0.2187 -0.0521 -0.2932
12762W        W28571  10.509   5.614  10.108  0.1325  0.0041  0.1757
12763W        W28572   8.743   4.562  15.372  0.1889  0.1067 -0.0840
12764W        W28573  12.497  13.492  16.086 -0.4634 -0.1193  0.2396
12765W        W28574  15.871   0.296   4.959 -0.0558 -0.0286  0.0175
12766W        W28575  16.869   5.122   1.824  0.1518 -0.3425 -0.0679
12767W        W28576   1.872  16.599  14.932 -0.1588 -0.2342  0.0573
12768W        W28577   0.939   4.483   2.347  0.1262  0.2725 -0.4397
12769W        W28578   4.789   3.935  11.277 -0.0253 -0.1131 -0.2499
12770W        W28579   3.042   1.956   2.235  0.0134  0.0831 -0.0965
12771W        W28580   4.570  13.818   0.833 -0.0323  0.2356  0.1093
12772W        W28581   7.285  17.312  13.856  0.2011 -0.0854  0.3330
12773W        W28582   9.773   7.891  16.181  0.1377 -0.3367  0.3294
12774W        W28583  12.166  10.662  12.087  0.0613  0.0198  0.0871
12775W        W28584  13.232  10.809   2.045  0.1381  0.3517 -0.1097
12776W        W28585  14.812  12.686   0.921 -0.3262  0.2212  0.0060
12777W        W28586   8.636  17.761   1.419 -0.0297 -0.0180  0.1529
12778W        W28587   2.252   0.476   0.731  0.0388 -0.1038  0.1082
12779W        W28588   4.568   0.174  11.882  0.1501  0.0872  0.2257
12780W        W28589   6.507   3.093   1.110 -0.0012  0.3110 -0.0097
12781W        W28590  11.417   7.815  14.422  0.0858  0.1232 -0.2531
12782W        W28591   3.677   6.892  12.274 -0.0303 -0.2335  0.1139
12783W        W28592  15.955  14.328   2.746 -0.0736  0.1052 -0.2275
12784W        W28593   3.629   7.711  15.884 -0.0716  0.1355 -0.0112
12785W        W28594  17.046   5.018  10.626  0.2870 -0.0871  0.1357
12786W        W28595  12.836  13.493   4.591  0.0319 -0.2460 -0.1783
12787W        W28596  11.317  15.056  15.964 -0.1097  0.0097  0.1875
12788W        W28597   8.479   7.110  15.974 -0.1613  0.1373 -0.2148
12789W        W28598  10.868   0.771  11.595 -0.0851  0.0290  0.1564
12790W        W28599   3.561   1.635  14.542  0.2053  0.1100 -0.3736
12791W        W28600   6.361   4.118  15.750 -0.1231 -0.2805  0.0525
12792W        W28601  17.425   6.895   3.274 -0.1618  0.2688  0.0655
12793W        W28602   8.309   3.003   0.750 -0.1980 -0.0893 -0.2778
12794W        W28603   5.363  12.992  13.239  0.0552  0.0206 -0.2656
12795W        W28604  15.705  12.105   4.939  0.1977 -0.0308 -0.0820
12796W        W28605  16.465  13.472   4.389  0.2035  0.0718  0.1854
12797W        W28606   8.363  13.117   5.075 -0.1428 -0.0005 -0.2866
12798W        W28607   0.299   9.659  12.855 -0.0466 -0.1520  0.3053
12799W        W28608   6.743   0.069  14.584  0.0828  0.1847 -0.2643
12800W        W28609   9.585  17.377   4.604 -0.3558 -0.0280 -0.0488
12801W        W28610   6.223  15.237  14.641  0.1778 -0.1840  0.1716
12802W        W28611  12.962  16.813   0.065 -0.0405 -0.0820 -0.0918
12803W        W28612  14.590   0.420  12.593  0.2265  0.0744 -0.1359
12804W        W28613  15.265  12.882  12.078 -0.0038  0.0145 -0.0966
12805W        W28614   1.540   2.922  13.464 -0.1997  0.1129  0.1971
12806W        W28615   3.269   3.483   3.611 -0.2580 -0.0966 -0.1804
12807W        W28616   6.664   8.559  15.789 -0.0147 -0.2534 -0.0360
12808W        W28617   7.465  11.360  12.749  0.0797  0.1053 -0.1647
12809W        W28618   9.844  14.175   2.612  0.2392 -0.0926  0.0008
12810W        W28619   0.477  14.968   2.974 -0.0892  0.2918 -0.2060
12811W        W28620   1.323   0.590  14.379 -0.0659  0.0709  0.3141
12812W        W28621   0.191  17.525   2.384 -0.3165 -0.0899 -0.0598
12813W        W28622   5.894   3.611  13.727 -0.0468 -0.0262  0.0200
12814W        W28623   8.563  10.750  11.780 -0.1355 -0.1806 -0.0897
12815W        W28624  13.343  17.721   6.417 -0.0181 -0.0213  0.1412
12816W        W28625   2.425  11.780   1.971  0.1050  0.2074  0.0652
12817W        W28626  14.351   7.393  10.053  0.4104 -0.0661  0.1276
12818W        W28627  11.916   2.529   1.728 -0.0041  0.3234 -0.0785
12819W        W28628  13.703   8.557  12.362 -0.1567 -0.2488 -0.0544
12820W        W28629  13.044   5.401   2.460 -0.0444  0.1523 -0.2185
12821W        W28630   2.959  15.884  12.201 -0.1359 -0.1040 -0.3862
12822W        W28631   2.024   7.742  14.868  0.1268  0.3136 -0.0816
12823W        W28632   1.637   4.956   2.458  0.0188 -0.1040  0.3526
12824W        W28633   8.708  12.355  14.244 -0.1899  0.0846 -0.3745
12825W        W28634  13.789   0.899   3.707 -0.2091 -0.2525  0.1357
12826W        W28635  15.141  18.033   5.200  0.3249 -0.1622  0.0298
12827W        W28636  17.498   6.528  16.043 -0.0502  0.2199 -0.1106
12828W        W28637   4.120  15.198   1.755  0.0925 -0.0315  0.2487
12829W        W28638   9.865   7.219   5.213 -0.2295  0.1989  0.1992
12830W        W28639   4.569   6.029   0.243 -0.3738  0.0526  0.1916
12831W        W28640   6.979   1.200   3.975 -0.0809  0.0607  0.2989
12832W        W28641  15.155   7.623  11.707  0.0269  0.5062 -0.0196
12833W        W28642   7.289   5.133   3.818  0.0802 -0.1004  0.0239
12834W        W28643  12.194  17.635   0.706  0.1333  0.0503  0.1858
12835W        W28644  13.253   5.666   1.088  0.0113 -0.1513 -0.0807
12836W        W28645   5.384  13.459   0.741 -0.2557  0.1328 -0.1838
12837W        W28646   9.213   0.935   0.817 -0.1365  0.0880  0.0519
12838W        W28647   8.999   3.232   0.412  0.0534 -0.0881  0.2605
12839W        W28648   3.691  15.140  15.472  0.0265  0.0164 -0.0063
12840W        W28649  11.125   3.662  16.206 -0.1599  0.0808 -0.2028
12841W        W28650  13.918  10.680  15.984 -0.3014 -0.2332  0.1047
12842W        W28651   5.725  10.456   3.245  0.0066 -0.1829  0.1470
12843W        W28652   2.962  10.333  14.144 -0.0580 -0.2984 -0.1695
12844W        W28653   1.651   8.970   1.658 -0.3062 -0.0803  0.1632
12845W        W28654  13.873   5.459  15.531  0.0934  0.2211 -0.0349
12846W        W28655  14.354   5.979  16.187 -0.0342 -0.2682  0.2020
12847W        W28656   0.504   1.559   4.993 -0.3252  0.2156  0.2223
12848W        W28657  10.790   1.075  15.407 -0.1127  0.0160 -0.0481
12849W        W28658   8.024  16.437  11.479  0.0540 -0.0689 -0.1475
12850W        W28659   1.572  10.756   0.845 -0.3501  0.3114 -0.0267
12851W        W28660   4.569  12.123   5.187  0.0620  0.1296 -0.0585
12852W        W28661  10.761   2.151  11.148 -0.1696 -0.1817  0.0314
12853W        W28662   3.669   6.237  14.704 -0.1110  0.1030  0.1016
12854W        W28663   9.557   3.414  13.678 -0.1928  0.0969 -0.3684
12855W        W28664   7.118   6.945  11.789  0.1658  0.0118 -0.0797
12856W        W28665  12.511   3.332   3.749 -0.1341  0.1743  0.1239
12857W        W28666  14.422  16.655   4.110  0.1371  0.0364 -0.1198
12858W        W28667  11.951  14.902  13.508 -0.0555  0.1156 -0.2311
12859W        W28668  12.091   4.159  13.269  0.1898 -0.0852 -0.0487
12860W        W28669  12.683  10.197  15.831  0.1577  0.4005  0.0178
12861W        W28670   8.998   7.584   2.225  0.2137  0.2226 -0.4204
12862W        W28671   7.127   9.943   5.509  0.0855 -0.3630 -0.0835
12863W        W28672   4.140   0.289   1.913  0.0662  0.0858 -0.0318
12864W        W28673  14.806  14.264   3.220 -0.2016  0.0989  0.0369
12865W        W28674  10.714  11.009  14.807  0.1573 -0.0525  0.0893
12866W        W28675   0.018   7.822   3.378  0.0374  0.1637  0.0108
12867W        W28676   2.923   2.655   1.378 -0.2921  0.2876 -0.1423
12868W        W28677   8.995  15.509   0.671 -0.0604  0.0344  0.2608
12869W        W28678   4.821  10.191   4.019  0.1789  0.0331 -0.2911
12870W        W28679  15.295   5.345   3.114 -0.2367 -0.2700  0.0641
12871W        W28680   2.342   5.254  12.280  0.1908  0.1128  0.1905
12872W        W28681  11.250   4.291  13.936  0.0629  0.1006  0.2218
12873W        W28682  17.454   5.398  14.116  0.0226  0.1230  0.1549
12874W        W28683  17.790  16.103  14.827 -0.0310 -0.3078 -0.2064
12875W        W28684   6.567   8.310   3.011  0.0671 -0.2239 -0.0269
12876W        W28685  11.819   0.612   5.434 -0.0895  0.4469  0.4312
12877W        W28686   9.882   2.044  15.039 -0.4199  0.1139 -0.3338
12878W        W28687   6.566   7.085  12.455 -0.1623 -0.1307 -0.0354
12879W        W28688  12.997   2.116   0.368 -0.1312  0.5116 -0.1225
12880W        W28689   1.485   0.191  14.664 -0.1048 -0.1396  0.1891
12881W        W28690  15.160  15.687   2.577  0.1953  0.0582  0.2895
12882W        W28691  17.877  17.432   2.162  0.2779 -0.0227  0.0466
12883W        W28692  10.941  16.681  13.847  0.1398 -0.0212  0.1317
12884W        W28693  12.405   8.045   2.184 -0.0376 -0.0463  0.3313
12885W        W28694   2.976   8.398   3.687  0.0072 -0.0038  0.1255
12886W        W28695   7.626  13.857  13.071  0.0509  0.3753  0.0792
12887W        W28696  12.429   9.159   0.638 -0.0237 -0.0042 -0.2569
12888W        W28697  14.855   1.385   4.483  0.2123 -0.0376 -0.2543
12889W        W28698  14.391   7.582   1.982  0.0088  0.0486  0.0973
12890W        W28699   6.054   9.579   3.682 -0.0376  0.1132 -0.1023
12891W        W28700   9.735   2.881   4.853  0.1944  0.1150  0.0889
12892W        W28701   4.897  10.585  15.746  0.0629  0.0705  0.2003
12893W        W28702   2.594  13.156   3.412  0.2272  0.1568  0.2972
12894W        W28703  10.200  16.826  11.056  0.3514 -0.1599  0.1921
12895W        W28704  10.519   2.093  12.699 -0.0143  0.0571 -0.2135
12896W        W28705  13.604  15.717  13.116 -0.3225 -0.1041  0.4168
12897W        W28706  12.737   7.889   4.739 -0.5135 -0.2236  0.1577
12898W        W28707   7.533  13.153  11.733  0.3114  0.0446  0.0696
12899W        W28708   0.441  10.279  15.796  0.1338  0.1951 -0.3299
12900W        W28709   4.342  13.951   1.775 -0.1623 -0.0174  0.0423
12901W        W28710   9.007   0.196   5.003 -0.0049  0.0754 -0.2355
12902W        W28711  10.902  10.350  15.500 -0.0977 -0.1157  0.1314
12903W        W28712  18.036   2.171  12.883  0.1107 -0.2144  0.1030
12904W        W28713  17.490  11.478  11.358  0.2173 -0.1736  0.1110
12905W        W28714   9.269  14.582   1.479 -0.0915  0.3189 -0.3105
12906W        W28715  17.720   0.926  15.303  0.1942 -0.5106 -0.3262
12907W        W28716   4.416  15.281   1.380  0.3876  0.3310 -0.0170
12908W        W28717   4.403  12.689   3.457 -0.0340  0.1272  0.1754
12909W        W28718   8.624   4.898  12.303  0.1628  0.1394  0.2373
12910W        W28719  12.637   7.229  14.802  0.1971  0.2085 -0.1978
12911W        W28720  17.253   4.902  15.542  0.0997  0.1813 -0.0364
12912W        W28721  16.014  17.796  13.134 -0.2317  0.1327 -0.2477
12913W        W28722   8.289   4.656   2.670 -0.0949  0.2205 -0.0515
12914W        W28723   8.769   4.774   1.868 -0.0387 -0.0930 -0.1815
12915W        W28724   7.621  12.671  16.361  0.0062 -0.0990  0.0352
12916W        W28725   4.535   8.835  15.362  0.0346 -0.1208 -0.1408
12917W        W28726   4.943   8.764   3.461  0.3417 -0.1610 -0.0515
12918W        W28727   0.561  11.695   4.187  0.1718 -0.0760  0.3091
12919W        W28728  11.610  15.168  14.114 -0.2559 -0.3065  0.0290
12920W        W28729   8.910  13.054  13.152  0.1639  0.1168 -0.1617
12921W        W28730  15.573   9.512  10.926 -0.0063 -0.2419  0.1188
12922W        W28731   0.118   9.284   4.593  0.0787 -0.1273 -0.0133
12923W        W28732   5.135   2.282  12.455  0.1321  0.1778 -0.1789
12924W        W28733   6.646   4.679   3.536 -0.2349 -0.1451  0.0160
12925W        W28734   0.409   1.069   5.712 -0.1792 -0.0763 -0.1468
12926W        W28735   9.912  13.156   0.757  0.1262 -0.2902  0.0625
12927W        W28736   5.218   7.030  12.284  0.0950 -0.1648  0.0902
12928W        W28737  10.787   5.740  13.354  0.4774 -0.2347  0.0104
12929W        W28738  13.846  12.783  10.754 -0.1770  0.3737  0.0227
12930W        W28739  15.827   7.483   0.607 -0.1580 -0.0196 -0.0722
12931W        W28740   8.517  13.763  12.555 -0.1313 -0.0768 -0.0602
12932W        W28741  12.963   0.258  13.403 -0.1947 -0.0817  0.1753
12933W        W28742  12.555  15.725   0.674 -0.0066  0.1509  0.1236
12934W        W28743   3.521  14.375  15.001  0.0555  0.1314  0.0694
12935W        W28744  11.990   4.519  12.853 -0.2057 -0.1362  0.2078
12936W        W28745   9.307  10.659  15.464  0.0841  0.0185  0.1117
12937W        W28746  14.322  11.096  14.444 -0.0843 -0.1059 -0.2782
12938W        W28747  13.058  15.266   1.135 -0.1030  0.0070  0.0873
12939W        W28748   2.253   6.073   6.074  0.1641  0.1074 -0.2859
12940W        W28749  16.290   6.605   5.158  0.0225  0.4835  0.0883
12941W        W28750  11.512  14.548  15.293  0.0525 -0.2420  0.2006
12942W        W28751   2.501   6.272   3.268 -0.5493  0.0803  0.0575
12943W        W28752   3.386   8.898  13.200 -0.0115  0.1455 -0.3870
12944W        W28753  16.994   0.617   6.329 -0.1429  0.1625 -0.2094
12945W        W28754   1.101   7.123   2.444 -0.2476 -0.0068 -0.0103
12946W        W28755  13.913  12.496  12.972  0.4051 -0.0944 -0.2549
12947W        W28756   6.708  17.367  11.295 -0.1085  0.3512 -0.0308
12948W        W28757  11.440  12.697  11.971  0.2913 -0.1865 -0.3669
12949W        W28758   4.309   1.812   0.211 -0.0065 -0.0897  0.0475
12950W        W28759  16.167   1.325   1.111  0.0892 -0.0833 -0.0087
12951W        W28760   3.554  10.330   1.169  0.1069  0.0471  0.1181
12952W        W28761  11.210   1.964  11.077 -0.2061  0.0336 -0.1773
12953W        W28762  11.821  14.782  14.542 -0.1847  0.1912  0.0227
12954W        W28763  17.231  15.462   3.987 -0.1145  0.2055 -0.0676
12955W        W28764   9.307  12.007  15.834 -0.0396 -0.1515  0.1824
12956W        W28765  12.846   7.526   1.301  0.0980 -0.0585  0.0899
12957W        W28766   5.530  10.395   0.788  0.2047  0.2922  0.1744
12958W        W28767   6.111  13.941  16.065 -0.1257 -0.1060 -0.4772
12959W        W28768   2.228   9.741   2.411 -0.0373  0.0920  0.1052
12960W        W28769   8.130  13.572   1.855 -0.0305 -0.1452  0.1202
12961W        W28770  17.095  13.460   0.684  0.0671 -0.3312  0.4522
12962W        W28771   2.732  13.184   3.946  0.3762  0.1019 -0.1036
12963W        W28772  14.363  18.217   4.900  0.0144  0.0706 -0.0092
12964W        W28773  14.435   5.702   3.123  0.0597  0.0162  0.1065
12965W        W28774   7.499   3.541   5.438  0.0154  0.1681  0.2728
12966W        W28775   1.229   2.566   0.015  0.0758  0.1601  0.1289
12967W        W28776   4.312  16.833  14.136 -0.0819 -0.0296  0.1603
12968W        W28777  16.902  12.721   4.548  0.0554 -0.0612 -0.0911
12969W        W28778   5.324  10.119   3.866 -0.3004 -0.0097  0.0160
12970W        W28779  15.766   1.173  14.124  0.0340  0.0980 -0.0223
12971W        W28780  11.763  16.659  16.313 -0.0579 -0.1457  0.3560
12972W        W28781   3.492  12.704  15.476  0.0140  0.1541  0.0889
12973W        W28782  12.867  15.489   4.299 -0.0944 -0.2049 -0.1040
12974W        W28783  12.477  10.564   2.360  0.2204  0.0657  0.2093
12975W        W28784  12.181   5.288   2.485  0.1647  0.1863  0.1834
12976W        W28785  15.501   2.441  15.808  0.2432  0.1096 -0.0526
12977W        W28786   6.564  14.167   4.304  0.1314 -0.0302 -0.2143
12978W        W28787   5.736  11.892  13.522 -0.3598  0.1918  0.0437
12979W        W28788   2.303   5.915  14.352  0.1618  0.0938  0.0313
12980W        W28789  10.866   7.882  11.374 -0.0416 -0.2707 -0.1712
12981W        W28790  15.528   1.277   2.117 -0.0023 -0.2465 -0.0896
12982W        W28791   3.167  11.637   4.280  0.0188 -0.0939 -0.1898
12983W        W28792   6.243  17.307   1.634 -0.0947  0.0095  0.1376
12984W        W28793  13.502   6.819  14.689  0.0496 -0.1875  0.1370
12985W        W28794  15.116   2.100  13.208  0.2312 -0.1562  0.1819
12986W        W28795   9.930   9.151   4.937 -0.1819 -0.1522 -0.1707
12987W        W28796   4.816   5.570   2.564  0.2816  0.1224  0.2290
12988W        W28797   0.814  10.976  14.766  0.1044 -0.4268  0.4458
12989W        W28798  14.575  14.454   0.602  0.2100  0.1025 -0.1064
12990W        W28799  15.670  12.988  12.934  0.0306  0.0047 -0.1056
12991W        W28800  14.625   5.079  11.747 -0.3314  0.0654 -0.2228
12992W        W28801   8.925  11.975   0.204  0.2740  0.2263 -0.2274
12993W        W28802   0.447   4.179   3.631  0.0091 -0.0087 -0.0449
12994W        W28803  12.031  18.097   0.390  0.0477  0.2963 -0.1373
12995W        W28804  13.747  18.194   5.792  0.1776 -0.1262 -0.1117
12996W        W28805   0.556  17.109   2.263 -0.3893 -0.0620 -0.1737
12997W        W28806  16.003  10.226   4.067 -0.1458 -0.0055  0.0812
12998W        W28807   1.606  13.345  13.950  0.0519  0.0605  0.2647
12999W        W28808  10.841  12.894   4.643  0.1419  0.0596  0.0294
13000W        W28809  17.080   0.569  11.449  0.2361  0.2535 -0.2340
13001W        W28810   6.828  10.668  16.108 -0.1756  0.2043  0.0948
13002W        W28811   3.324  16.493  10.051  0.1921 -0.0937  0.0518
13003W        W28812   3.820  16.636   2.655  0.1449 -0.3678 -0.1314
13004W        W28813   7.040   7.795  15.356  0.0363  0.1419  0.1362
13005W        W28814   1.774  13.935   6.138 -0.2220  0.1010 -0.0576
13006W        W28815   6.735   5.966  11.503 -0.0387  0.0942 -0.3046
13007W        W28816  16.239   2.838  15.155 -0.0622 -0.2225 -0.1456
13008W        W28817   5.214   0.133  14.554 -0.2485  0.1224  0.2275
13009W        W28818   9.791  12.985  11.469 -0.0946 -0.1375 -0.0838
13010W        W28819  14.122  12.985   4.962  0.1296 -0.4407 -0.0469
13011W        W28820  13.315   9.809  11.581  0.3123 -0.1235  0.0253
13012W        W28821  11.983   0.931   5.888  0.3299 -0.0388 -0.1564
13013W        W28822  18.215   5.766  13.774  0.0025 -0.0861 -0.1551
13014W        W28823  12.176   3.639   3.921 -0.1609  0.2624  0.0380
13015W        W28824   8.898   0.705  12.247  0.1819  0.1962 -0.2417
13016W        W28825   1.290   3.500  14.113  0.1425  0.0414 -0.2630
13017W        W28826  11.510  14.292  14.788  0.0650 -0.1513  0.0070
13018W        W28827   0.818   4.524  11.830  0.1560 -0.1504 -0.1050
13019W        W28828  15.536   2.796   0.676  0.0770 -0.3009 -0.0618
13020W        W28829   9.916  14.819   4.815 -0.1063 -0.2336  0.0856
13021W        W28830   8.854  11.735   2.822 -0.0066 -0.4111 -0.0525
13022W        W28831   8.343  12.046   0.751  0.1351 -0.1831  0.2587
13023W        W28832  12.665   5.148  11.870  0.2401  0.3209  0.0577
13024W        W28833   5.043  12.608  13.054  0.1828 -0.2382  0.0783
13025W        W28834   5.196   6.976  11.402 -0.1068 -0.1176  0.2371
13026W        W28835  14.035   5.729   2.226 -0.2422 -0.1063  0.0112
13027W        W28836  16.358   5.634  15.834 -0.4059 -0.3511 -0.0849
13028W        W28837  10.775   3.969  15.322  0.4206 -0.3240 -0.0270
13029W        W28838   8.460  16.041  15.499 -0.4161  0.1072 -0.1222
13030W        W28839   6.201  13.332  13.652 -0.2998  0.1933  0.2037
13031W        W28840  16.200   0.693  15.111 -0.1717  0.0632  0.0703
13032W        W28841   5.618  13.520  16.233  0.1340 -0.1679  0.0193
13033W        W28842  17.196   3.000   4.796  0.1634  0.1694 -0.1216
13034W        W28843   6.009   6.462   0.460  0.2534  0.1155 -0.1362
13035W        W28844  10.061   3.656   3.568 -0.3098 -0.1548  0.0518
13036W        W28845   0.265  17.188  12.602  0.3141  0.1232  0.2619
13037W        W28846   1.656   9.250  12.155  0.1901  0.1690  0.0317
13038W        W28847   7.315   2.603  13.188 -0.0923  0.0587 -0.0645
13039W        W28848  11.342   0.244  13.277  0.2019 -0.3197 -0.1350
13040W        W28849  11.908   1.136  14.498 -0.3800  0.0443 -0.0333
13041W        W28850  11.011  16.583  15.023 -0.1465  0.2264  0.0493
13042W        W28851   6.812   9.137   5.405 -0.4460 -0.1672  0.0538
13043W        W28852   2.622   0.158   2.331 -0.0573 -0.0118  0.2961
13044W        W28853   4.202   6.292   0.484 -0.0369 -0.2011  0.2060
13045W        W28854   5.155   1.080  14.771  0.2423  0.0305 -0.2923
13046W        W28855   7.477  16.612   4.178  0.0602 -0.3592  0.0256
13047W        W28856  16.955  14.574   0.209  0.0156  0.0050 -0.0321
13048W        W28857  13.612   4.337  15.210 -0.2999  0.0838  0.0740
13049W        W28858   7.618   4.205  11.761  0.1791 -0.2093  0.1045
13050W        W28859   3.856   0.171  15.021  0.2449  0.0074 -0.0935
13051W        W28860  10.976   6.434   1.631 -0.0741 -0.0869  0.0965
13052W        W28861  10.093   9.881  11.018 -0.1912 -0.0448 -0.1315
13053W        W28862  18.104  18.084  14.402 -0.1418 -0.0960  0.0158
13054W        W28863  13.186   1.957  11.571 -0.0792 -0.1698  0.1037
13055W        W28864   4.262   4.784   0.461 -0.0413 -0.4119  0.1641
13056W        W28865  10.168   5.228  13.293  0.0415  0.1277  0.2568
13057W        W28866  10.773   3.631  10.821  0.0986  0.1706 -0.2188
13058W        W28867   5.805  17.769  15.096  0.0920 -0.0239 -0.0195
13059W        W28868   7.099  10.752  12.405  0.0792  0.0566  0.0957
13060W        W28869   1.771  15.228  14.306 -0.0796 -0.0185 -0.0715
13061W        W28870   3.657   5.899  16.070  0.1424  0.0574  0.0449
13062W        W28871  14.567  11.531   0.586  0.3615 -0.0876  0.1005
13063W        W28872   5.875   0.239  15.786  0.1431  0.0759 -0.0262
13064W        W28873  12.435  16.062   5.978 -0.0410  0.2579 -0.1540
13065W        W28874  10.935   5.725   0.897 -0.1302  0.3891  0.0819
13066W        W28875  15.009  11.704   0.639  0.0277 -0.3110  0.0051
13067W        W28876  15.471   8.668  11.919 -0.0080  0.0174 -0.0098
13068W        W28877   7.363   8.173  12.247  0.0812  0.1500  0.0607
13069W        W28878  13.027   3.606  13.935 -0.1971  0.0838 -0.0502
13070W        W28879  14.793  13.406   3.496  0.3773  0.1843  0.0938
13071W        W28880  14.220   7.093   0.853  0.0112 -0.0221  0.2347
13072W        W28881  12.874   5.399  12.215  0.1193 -0.2665 -0.0360
13073W        W28882   0.848   2.893  12.319  0.1458 -0.2651  0.1451
13074W        W28883  13.445   2.610   3.072 -0.0776 -0.1994 -0.1453
13075W        W28884   5.631   9.171  12.943  0.1221  0.1042  0.1086
13076W        W28885   1.259  14.498   0.263  0.0781  0.2198 -0.1782
13077W        W28886   8.412   4.238  15.086  0.3932  0.0727 -0.1303
13078W        W28887   9.760   8.101   4.760  0.2716  0.0111  0.1585
13079W        W28888  16.275   7.069   6.117 -0.1124  0.1034  0.2619
13080W        W28889  16.055   4.933   2.401  0.4154 -0.3631 -0.2746
13081W        W28890   2.661   9.939   2.176  0.0902 -0.3182  0.0484
13082W        W28891  17.661   1.384  14.216  0.1670 -0.1901 -0.1461
13083W        W28892   6.619  17.517  13.781 -0.0726 -0.0310  0.2692
13084W        W28893   5.194   3.362   2.388 -0.0485  0.1672 -0.0957
13085W        W28894  10.491  17.148   1.572 -0.0699 -0.0206 -0.0987
13086W        W28895   8.546  11.408   2.574  0.1239 -0.2532 -0.1026
13087W        W28896  13.890  14.305   2.855  0.1800 -0.0259 -0.3874
13088W        W28897   6.461  17.240  14.636 -0.3394  0.0806  0.1068
13089W        W28898   3.125   7.110   2.994  0.0951 -0.0753  0.0955
13090W        W28899   6.555   3.407  14.872 -0.1677 -0.1472 -0.1219
13091W        W28900  12.022   6.066   4.393 -0.0380 -0.0557 -0.1604
13092W        W28901  11.385  13.547  15.160  0.0924 -0.1099  0.3302
13093W        W28902  13.689   6.297   2.853 -0.1591  0.1977  0.1747
13094W        W28903  16.625   1.335   0.442 -0.1689 -0.0576  0.0456
13095W        W28904   6.116   2.415   2.798  0.1017  0.0762  0.0612
13096W        W28905   1.529  12.800  15.704  0.2145  0.2915  0.1190
13097W        W28906   6.118  11.095  11.653  0.0643 -0.0227 -0.1728
13098W        W28907   3.642  10.747  12.059  0.1838 -0.0133 -0.0698
13099W        W28908  15.248   4.279  15.466 -0.3113  0.0306  0.0254
13100W        W28909   3.698  15.988   1.620  0.0452  0.1640  0.2012
13101W        W28910   0.862   2.861   4.813  0.1866  0.3335 -0.0778
13102W        W28911   9.318   8.548  12.672  0.1643  0.0795 -0.0516
13103W        W28912  14.024   8.847   4.518 -0.2898 -0.2852  0.0665
13104W        W28913   3.683   2.353  12.596  0.2172  0.0244  0.0073
13105W        W28914  13.630  13.950  11.797  0.3364 -0.0218  0.3641
13106W        W28915  12.969  11.135  11.307  0.1614 -0.1179  0.1529
13107W        W28916   2.258  16.942   0.304 -0.0032  0.1667 -0.1746
13108W        W28917   0.435  12.466  15.262  0.2719 -0.1546  0.3546
13109W        W28918   3.165  15.222  15.369  0.3507  0.0250 -0.2538
13110W        W28919   6.992   3.010  15.020  0.5444 -0.0397  0.1220
13111W        W28920   1.056   1.716   0.576  0.1447 -0.1699  0.0316
13112W        W28921   5.297   8.537  14.895  0.0046 -0.2030  0.0163
13113W        W28922   6.092  18.208  11.405  0.0941 -0.3079 -0.1321
13114W        W28923   4.989  18.183  11.736 -0.0033 -0.1190 -0.2037
13115W        W28924   1.424  11.349   3.274 -0.1791 -0.0001  0.0087
13116W        W28925  16.359   4.529   0.088  0.0798  0.2077  0.3303
13117W        W28926   8.569  16.536   3.042  0.0075  0.1805  0.1848
13118W        W28927  15.850   7.129  14.496  0.3973 -0.0074  0.0954
13119W        W28928  14.871  15.071   3.400 -0.3021 -0.0934  0.1214
13120W        W28929  12.729   9.576  11.561 -0.0119  0.0901  0.3559
13121W        W28930   7.886   6.401   4.284  0.0133 -0.0180  0.0642
13122W        W28931   6.253   3.686  12.207 -0.1103  0.4140 -0.2188
13123W        W28932  17.257   2.067   6.157  0.0170  0.0620 -0.0570
13124W        W28933   8.804  15.341  14.621 -0.0188  0.0777 -0.0924
13125W        W28934   2.819  14.729  12.680 -0.1173  0.0991 -0.2304
13126W        W28935  16.824   3.593  12.653 -0.0750 -0.0664  0.1770
13127W        W28936   2.178   8.769  11.437  0.0422  0.0335  0.3599
13128W        W28937   9.551  15.086   5.604  0.2146 -0.1796  0.0550
13129W        W28938  15.207  14.328  14.210  0.0038 -0.1244 -0.1740
13130W        W28939  11.701  15.246   4.505 -0.1955 -0.0447  0.1881
13131W        W28940   4.451   1.982  13.085 -0.0359 -0.2064 -0.1507
13132W        W28941   2.984   6.665   3.940  0.0341  0.2165 -0.2998
13133W        W28942  17.621   6.701   1.165 -0.0859  0.0850 -0.2500
13134W        W28943  11.553  15.065   2.579  0.1653 -0.1080  0.0251
13135W        W28944   5.724   2.494  11.138  0.3975 -0.0782  0.1957
13136W        W28945   2.227   3.658   0.486  0.1365 -0.2441  0.0063
13137W        W28946  12.773   3.432  14.904  0.1224 -0.1408 -0.1957
13138W        W28947  12.421   7.540   2.014 -0.0169 -0.1451 -0.1564
13139W        W28948   3.836   8.549  14.248  0.0625 -0.0585 -0.0297
13140W        W28949   4.483   2.694   4.663  0.2238  0.0891  0.0392
13141W        W28950   0.809   6.474   4.982 -0.1364 -0.2068 -0.0537
13142W        W28951   6.994   8.357  13.096 -0.1023  0.3199 -0.0307
13143W        W28952   6.997   1.684  11.775  0.1031  0.3371  0.2755
13144W        W28953  11.789   9.724   0.258 -0.2757  0.0614 -0.0964
13145W        W28954  10.672  16.695  13.027 -0.0408 -0.0659 -0.2065
13146W        W28955  14.453  17.063   3.457 -0.0229 -0.1026  0.1161
13147W        W28956  14.962  11.767  13.089 -0.1030  0.3447  0.4068
13148W        W28957  11.153  10.096  13.314 -0.2245 -0.0988  0.2342
13149W        W28958  13.685   6.082   1.928 -0.2460 -0.0789 -0.2502
13150W        W28959  12.532   1.896  16.024 -0.0312 -0.0533  0.0316
13151W        W28960  10.948   1.578   4.512 -0.0280 -0.0111  0.3611
13152W        W28961  15.290  15.216  11.823 -0.1362 -0.2542 -0.4584
13153W        W28962  11.630  11.055   0.917 -0.0801 -0.0709 -0.1480
13154W        W28963   8.640  13.403   1.824  0.2849 -0.2459  0.2093
13155W        W28964   4.653   9.808  14.535  0.3181 -0.1206 -0.0480
13156W        W28965   5.643   1.419   2.654 -0.0900  0.1805  0.1919
13157W        W28966   5.231  15.825   3.604 -0.3793  0.1770  0.0540
13158W        W28967   6.120   8.182   1.786 -0.0514  0.0849  0.0457
13159W        W28968  11.948  10.942  11.525  0.3307 -0.2552  0.1459
13160W        W28969  12.071   9.434   5.528  0.1875 -0.0945 -0.1857
13161W        W28970   9.092  17.853  12.256 -0.0249 -0.3457  0.1919
13162W        W28971  12.050  13.912  16.222  0.2180 -0.1201 -0.0800
13163W        W28972  17.480  11.799   4.228  0.0083  0.2226  0.2468
13164W        W28973  12.624   4.297  12.774  0.2413 -0.0364  0.2477
13165W        W28974   1.157  13.974   4.896  0.1556  0.2164  0.1305
13166W        W28975   9.157  14.508  12.646 -0.2957  0.2041  0.1102
13167W        W28976   6.025   9.254   3.263 -0.1285  0.2425 -0.0576
13168W        W28977   6.751  15.343   4.379  0.5257 -0.2651  0.1832
13169W        W28978   0.132   6.590  12.549 -0.1198 -0.0586 -0.1390
13170W        W28979   6.098  17.372   1.072  0.0147 -0.1256 -0.2415
13171W        W28980  10.150   5.038   2.418  0.1514  0.2192  0.3509
13172W        W28981   5.749  11.919   1.517 -0.1169 -0.3126 -0.0100
13173W        W28982  12.074   5.843   0.213 -0.0876  0.0414 -0.0356
13174W        W28983   3.095   5.613  12.602  0.1074  0.0409 -0.1255
13175W        W28984   5.063   6.702   1.040  0.1060 -0.0004  0.2706
13176W        W28985  12.006   7.141  10.694  0.0928  0.1720 -0.1026
13177W        W28986  16.153   4.065  15.355 -0.1668 -0.1848 -0.2403
13178W        W28987   7.910   9.207   5.269 -0.0272  0.0351  0.0869
13179W        W28988   6.450   6.665   3.430 -0.0849  0.1082  0.0835
13180W        W28989   2.524   9.081   2.900  0.0957  0.0484  0.1702
13181W        W28990   5.469   9.938  11.955  0.1579  0.0210 -0.1755
13182W        W28991  17.949  12.791   4.473  0.0479  0.0659  0.0793
13183W        W28992   0.453   4.403   2.084 -0.1245  0.0606  0.0765
13184W        W28993  10.666   7.181  13.176 -0.0272  0.0922 -0.3197
13185W        W28994  14.675  16.875  14.879  0.1202  0.2756  0.0585
13186W        W28995   7.737  12.601   3.377  0.3540 -0.1731  0.3461
13187W        W28996   1.585  13.814  15.551  0.0168  0.2866 -0.2739
13188W        W28997   0.085   4.878   2.955  0.1187 -0.2071 -0.1980
13189W        W28998   4.269   1.150   3.128  0.2340 -0.0781  0.0846
13190W        W28999   7.638  10.343   2.066  0.1415  0.0702  0.0899
13191W        W29000   4.924  15.449   1.487 -0.2274 -0.2727 -0.0119
13192W        W29001   4.957  13.695   4.674  0.1064 -0.0536 -0.0819
13193W        W29002  13.999  11.889  11.764 -0.0745  0.0944 -0.0303
13194W        W29003   2.145  16.976   3.969  0.0775  0.1637  0.0108
13195W        W29004   3.456   2.452  13.081  0.1811 -0.2394  0.0366
13196W        W29005   2.517   8.368  15.354 -0.4069  0.0733 -0.0975
13197W        W29006  14.988   1.756  12.676  0.1305 -0.2951 -0.1075
13198W        W29007  12.225   2.870  12.706 -0.2123 -0.1952 -0.1565
13199W        W29008  10.539   7.103  11.050  0.0836 -0.1320 -0.0046
13200W        W29009   4.917  11.586  15.175  0.1460  0.3889  0.0248
13201W        W29010  13.435   6.145  11.815  0.0255 -0.1878  0.1634
13202W        W29011   8.721   7.173  15.122  0.1179 -0.3734  0.1438
13203W        W29012  13.414  10.367  14.714  0.4061 -0.0985 -0.1423
13204W        W29013  10.707   6.356  12.422  0.3253  0.1038  0.1364
13205W        W29014   7.787  18.052   1.096 -0.1858  0.0318  0.0677
13206W        W29015   6.184  14.416   5.054 -0.3940  0.1976  0.2353
13207W        W29016   2.264  13.970  11.980 -0.1896  0.0808 -0.0071
13208W        W29017   0.596   5.842  13.007  0.4470  0.1561 -0.0718
13209W        W29018   1.586   4.330  15.017  0.0075  0.0878  0.0145
13210W        W29019  17.789  12.506  14.431  0.1237 -0.2153 -0.1710
13211W        W29020  17.636  12.992  14.428 -0.0427  0.4377 -0.1441
13212W        W29021  16.786   0.876  13.329  0.1412 -0.0211  0.3368
13213W        W29022  12.668   1.175  12.012  0.2946  0.1154  0.0372
13214W        W29023  11.288   0.419  12.367 -0.0794 -0.1566  0.0611
13215W        W29024   2.896  12.461   3.611  0.1458  0.0062  0.0373
13216W        W29025  16.524  12.617   0.260 -0.0775 -0.0447 -0.0578
13217W        W29026   1.781  10.099  11.999  0.0835 -0.0737  0.1480
13218W        W29027  13.302   4.752  14.303  0.0630  0.0665 -0.2494
13219W        W29028   0.049   5.443  15.409  0.0446  0.2425 -0.0715
13220W        W29029  11.475   5.516   0.909 -0.1786  0.0217  0.1584
13221W        W29030   0.004  12.576   5.378 -0.1316  0.3212  0.0842
13222W        W29031   7.019  10.062   1.164  0.1251 -0.0768 -0.0025
13223W        W29032   2.316   8.585   1.295  0.1765 -0.2271  0.0157
13224W        W29033  17.469   0.139   0.988  0.0315  0.0832  0.2924
13225W        W29034   4.399  14.901   4.120  0.0621 -0.1031  0.1682
13226W        W29035   9.496   4.272  11.952  0.2133  0.0302 -0.2344
13227W        W29036   5.180  17.860  16.094  0.3089 -0.0764 -0.1443
13228W        W29037   8.290  14.042   4.622 -0.0787 -0.0174 -0.0098
13229W        W29038  14.760  11.018   1.299  0.3432  0.0312  0.0948
13230W        W29039   4.286  12.268  11.534 -0.0895  0.0606  0.1370
13231W        W29040   8.169   3.441  15.050 -0.1915  0.2780 -0.3229
13232W        W29041   4.640   7.158   4.566 -0.2398 -0.1620  0.4135
13233W        W29042  10.013  15.892   1.150  0.2414 -0.0671 -0.1430
13234W        W29043  15.098  14.384  11.986 -0.0034 -0.1087 -0.0746
13235W        W29044  16.051  12.707   0.112 -0.0747 -0.2960 -0.1049
13236W        W29045   9.926  10.068  14.603 -0.1327 -0.2920 -0.0769
13237W        W29046   3.372   5.917  12.169  0.1821  0.0510  0.1248
13238W        W29047  12.159   1.806   5.873 -0.0477  0.0490 -0.0236
13239W        W29048   8.872   5.430  12.007  0.0863 -0.0896  0.1285
13240W        W29049   7.924  12.578  12.537 -0.2554  0.0632 -0.0935
13241W        W29050   9.959  15.091   2.427  0.2929  0.2028 -0.1888
13242W        W29051  13.206   9.361  10.192  0.2245 -0.0626 -0.0389
13243W        W29052   9.929  10.385   4.221 -0.2134 -0.2198 -0.0649
13244W        W29053   9.847  10.977  10.231  0.0866 -0.2122  0.1561
13245W        W29054   3.057   3.913  16.284  0.0730  0.0043 -0.0845
13246W        W29055  15.613  10.298  11.574 -0.3155  0.1474 -0.1708
13247W        W29056   6.247  12.480  14.003 -0.0568  0.0857 -0.1880
13248W        W29057  15.724   3.619  13.037 -0.0622  0.2615  0.3011
13249W        W29058   4.294  13.647  11.378  0.0113 -0.1200 -0.1940
13250W        W29059   8.592  12.361   3.039  0.0286 -0.3713  0.0175
13251W        W29060   3.115   5.893  15.932  0.2120 -0.3076  0.1487
13252W        W29061  15.369   0.887  14.030  0.2292  0.0564  0.0710
13253W        W29062  10.152  10.263  12.574 -0.0636 -0.3228 -0.1309
13254W        W29063  14.562   6.416   5.394 -0.1956  0.0711 -0.0777
13255W        W29064  12.855   4.584  15.489 -0.2572 -0.2583  0.1699
13256W        W29065   8.913  11.179  12.516  0.3040 -0.2495  0.2295
13257W        W29066   2.124   9.274   2.598 -0.0031 -0.2652 -0.0651
13258W        W29067   8.602   2.664   4.239  0.3969  0.0261  0.0720
13259W        W29068   8.349  12.752   4.055  0.2408  0.0007 -0.4307
13260W        W29069   0.791   0.018   3.826 -0.0863  0.2464  0.3539
13261W        W29070   0.302   5.122   3.473 -0.0218 -0.2056 -0.0200
13262W        W29071   8.706  15.136   4.655  0.0211 -0.0336  0.2106
13263W        W29072   6.437   6.463   4.233 -0.2035 -0.0419  0.1814
13264W        W29073   0.124   5.891  16.146  0.0562 -0.0928  0.0278
13265W        W29074   4.185  18.213   3.494 -0.2731 -0.0412 -0.0005
13266W        W29075  18.209  12.906  15.404 -0.2234  0.0993  0.0278
13267W        W29076   4.109  11.086  12.364 -0.0443  0.1603 -0.0342
13268W        W29077  17.779   3.952   2.862 -0.0233 -0.0988 -0.0174
13269W        W29078  16.058  12.091  11.448 -0.1552 -0.2360 -0.0888
13270W        W29079  12.627   7.065  15.310  0.1717  0.0149 -0.1565
13271W        W29080   3.056   9.925  13.885 -0.3451 -0.1289 -0.1872
13272W        W29081  10.072  12.082  14.521  0.0658 -0.0443 -0.1437
13273W        W29082   8.056  17.810   1.585  0.0101  0.0052  0.0402
13274W        W29083  15.257  17.402  11.902  0.1389  0.1352 -0.0612
13275W        W29084  15.469   2.913  14.808  0.1375 -0.0499 -0.0849
13276W        W29085   3.281   9.887  15.748  0.1420  0.1489  0.1900
13277W        W29086   1.544  16.192   5.209 -0.2044 -0.2083 -0.0774
13278W        W29087  18.034  13.805  14.973 -0.3234  0.1818 -0.0505
13279W        W29088  15.937  15.465   6.215 -0.0137  0.4635 -0.1072
13280W        W29089   3.429   3.461   1.334 -0.3385 -0.0385  0.1176
13281W        W29090   7.781   2.809   2.438 -0.0487  0.1731  0.0270
13282W        W29091   7.755  16.086   3.095  0.1568  0.2655 -0.0051
13283W        W29092   4.582   1.245  14.682  0.0854  0.1272  0.1919
13284W        W29093   6.525  17.516  12.168  0.0068  0.1464  0.0154
13285W        W29094  11.532  11.017   1.498 -0.1008 -0.1019 -0.0777
13286W        W29095   3.918   0.082   4.934 -0.0606  0.3402  0.2094
13287W        W29096  11.782   2.749  13.238 -0.0414  0.0413  0.0716
13288W        W29097   8.601   7.699   5.066 -0.2636 -0.2531  0.3377
13289W        W29098  15.157   7.836   2.379  0.4388 -0.1448 -0.0647
13290W        W29099   5.299  15.293  15.996 -0.0668 -0.2932  0.3775
13291W        W29100  13.507  15.562  10.594  0.0207 -0.0241  0.1076
13292W        W29101   9.587  12.035   2.751  0.1070  0.0476 -0.0359
13293W        W29102   2.976   7.454  11.142 -0.2005 -0.2632 -0.1371
13294W        W29103   6.942   9.559   3.136 -0.5046  0.3238 -0.1705
13295W        W29104  13.946  14.196   2.383  0.4021  0.2092 -0.3244
13296W        W29105   0.376   7.435  11.388  0.1422  0.0175  0.1739
13297W        W29106   0.795   4.125  14.878  0.0024 -0.2954  0.2983
13298W        W29107   6.672  13.483   0.688 -0.0510 -0.1758 -0.3064
13299W        W29108  13.810   3.152  15.974  0.1016  0.0043  0.1985
13300W        W29109   2.266   9.068   0.763 -0.3182 -0.0639  0.0472
13301W        W29110  16.874  17.529   1.388 -0.1621 -0.0858  0.2091
13302W        W29111  15.145  17.115  13.397  0.1758  0.2721  0.2828
13303W        W29112  11.436   5.776  14.238 -0.0974 -0.2268  0.0706
13304W        W29113   6.629  10.172  14.129  0.0351 -0.0934  0.1276
13305W        W29114  18.049  17.554   4.547 -0.2007 -0.0535 -0.1712
13306W        W29115  14.825  14.669   0.213 -0.1823 -0.0992 -0.1396
13307W        W29116  10.276  17.342   4.207  0.0599  0.2818 -0.1812
13308W        W29117  17.749   1.842  12.439  0.2082  0.3906 -0.1404
13309W        W29118  16.593   6.118   1.668 -0.0095  0.0340  0.2106
13310W        W29119  16.308  12.454   3.419 -0.2354  0.0238 -0.3383
13311W        W29120   3.799  13.858  15.796  0.1218  0.0336 -0.1300
13312W        W29121   0.079   5.281  11.979 -0.2526  0.1822 -0.0840
13313W        W29122   1.542  12.451  11.291  0.0427  0.0357 -0.1258
13314W        W29123   4.960   2.854   4.808  0.2489  0.3387 -0.1119
13315W        W29124  16.140   1.032   4.132 -0.1158 -0.1074  0.1687
13316W        W29125  16.470   8.666   3.045 -0.0821 -0.4712  0.2674
13317W        W29126  15.690  10.321   5.040 -0.3186 -0.0411 -0.1407
13318W        W29127   5.858   9.826   2.545  0.0955 -0.0056  0.0417
13319W        W29128   8.440  16.825  12.726 -0.0665  0.0006  0.2353
13320W        W29129   5.199  15.173  11.802  0.1089  0.0366  0.0924
13321W        W29130   5.643  13.866  12.725 -0.1675 -0.3365 -0.2024
13322W        W29131  14.861  13.217   2.327 -0.0927 -0.0988 -0.4388
13323W        W29132   7.907  14.656  14.201 -0.0450  0.1580 -0.0140
13324W        W29133  17.858   7.818  15.778  0.0807  0.1856  0.0376
13325W        W29134  15.443   0.867  12.750 -0.2325 -0.2188  0.0010
13326W        W29135   0.964   3.508   4.734 -0.1087  0.0585 -0.1337
13327W        W29136  14.652   4.582   0.919  0.1260  0.2825  0.0421
13328W        W29137  16.684  15.934   3.169 -0.1339  0.3245 -0.1466
13329W        W29138  12.089   5.437   0.471 -0.2075  0.1734  0.0302
13330W        W29139   5.421  15.770   2.862  0.1071  0.1731 -0.0673
13331W        W29140   4.330   2.729  15.458 -0.2972  0.0676  0.3911
13332W        W29141  16.598  16.590   2.116 -0.3220 -0.2032  0.1331
13333W        W29142  16.071  15.373   3.506  0.0393 -0.0369  0.0220
13334W        W29143   3.281  12.806  11.267  0.2186  0.1407  0.2506
13335W        W29144   7.322  17.862   4.440 -0.1361  0.0937  0.1329
13336W        W29145   3.600  10.762   3.903  0.0977 -0.3994 -0.2946
13337W        W29146   9.258  10.114   5.356 -0.0993  0.0598  0.0983
13338W        W29147   1.871  14.593  12.920 -0.4144 -0.2662  0.1361
13339W        W29148   3.928   1.439   5.640  0.0357  0.0294  0.0175
13340W        W29149   3.441  16.461  16.330 -0.0956  0.0157  0.2222
13341W        W29150   3.100  17.730  14.605 -0.1440 -0.3230 -0.0120
13342W        W29151   8.688   6.335   0.983 -0.0244 -0.3067  0.2613
13343W        W29152  15.315   3.708   1.808  0.1502  0.0050  0.0439
13344W        W29153   9.720   7.785   3.554 -0.0705  0.0372 -0.0490
13345W        W29154   0.190  17.083  14.163  0.0004  0.0476 -0.0444
13346W        W29155   4.677   6.702  16.146  0.1111  0.1146 -0.3271
13347W        W29156   7.209  11.525  14.026 -0.1640 -0.2467  0.1782
13348W        W29157  12.162   6.324   3.798  0.2606 -0.0566 -0.0836
13349W        W29158  11.188   7.844   0.160  0.3262 -0.1716 -0.1524
13350W        W29159   9.809  11.303  12.718 -0.0600 -0.1118  0.0098
13351W        W29160   9.627  15.417   4.100 -0.1886 -0.2844  0.3075
13352W        W29161  10.016   5.179   1.285 -0.1539  0.1588  0.1641
13353W        W29162  10.869  10.644   3.953 -0.0565 -0.3095  0.0809
13354W        W29163   8.636  12.195  13.700 -0.0069  0.0609  0.1719
13355W        W29164   4.904  12.191   3.452  0.1005  0.1772 -0.0034
13356W        W29165   1.507   0.142   4.395  0.4801  0.0803  0.0624
13357W        W29166  17.872   7.696   1.463 -0.0133 -0.0788  0.2945
13358W        W29167   7.145   3.259   4.382 -0.1613 -0.0505  0.1209
13359W        W29168  11.131   9.986  12.689  0.1923 -0.1372 -0.4307
13360W        W29169   7.592  11.109   0.915  0.0064  0.0990  0.0660
13361W        W29170   4.228  15.834  14.134 -0.1774 -0.0432  0.2378
13362W        W29171   0.268  11.231  13.745  0.2876 -0.0467  0.0220
13363W        W29172  15.994   9.964   5.263 -0.1304 -0.1734 -0.4134
13364W        W29173  13.148   2.893  12.591  0.1072 -0.2296  0.0655
13365W        W29174   0.748  12.808  12.799 -0.0296  0.1795  0.2828
13366W        W29175   1.561  10.738  12.694  0.1075 -0.0406  0.1559
13367W        W29176  16.389   2.841   2.505  0.0172 -0.2789  0.0990
13368W        W29177   0.748   5.555  12.565  0.3425 -0.0861  0.0326
13369W        W29178   6.953  13.278   1.543 -0.2160  0.2988 -0.2473
13370W        W29179   3.962   8.901  13.759 -0.1287 -0.2636 -0.2501
13371W        W29180   8.972  15.954   0.926  0.0023 -0.3414  0.2215
13372W        W29181   0.534  12.524   3.989  0.3425  0.1995  0.0795
13373W        W29182   6.444  10.220   5.102 -0.1384 -0.0160 -0.2245
13374W        W29183   7.275   5.059  12.098  0.2505  0.1404 -0.3667
13375W        W29184  15.863   8.290  12.959 -0.0909 -0.0034 -0.0406
13376W        W29185  12.667   3.769   4.657  0.1558  0.1719 -0.1631
13377W        W29186   1.844  15.840   5.414  0.0281  0.0154 -0.3421
13378W        W29187  15.518   0.385   5.770  0.0326  0.1877  0.3710
13379W        W29188   3.577   1.648   5.344  0.1493 -0.4257 -0.0442
13380W        W29189   6.010  13.782  10.272 -0.1414 -0.1957  0.0164
13381W        W29190   9.793   5.497   3.418  0.0991 -0.1435 -0.0032
13382W        W29191  17.023   4.962  16.049  0.1074 -0.1532 -0.0827
13383W        W29192   5.211  14.685  14.082 -0.0099 -0.0128 -0.1941
13384W        W29193   7.181   0.354   2.901 -0.2457  0.2637 -0.1478
13385W        W29194   6.139  12.044  15.600  0.0552  0.0419 -0.1895
13386W        W29195   7.981   8.798  12.213  0.1537  0.0460  0.0914
13387W        W29196   2.581  17.893   0.436 -0.2939 -0.1647  0.0626
13388W        W29197  16.520   4.327  12.405 -0.1016  0.0532 -0.3762
13389W        W29198   0.263  16.674   4.410  0.4116  0.3068 -0.0109
13390W        W29199  13.900  15.343  10.790 -0.1427 -0.2709  0.2588
13391W        W29200   3.081  17.052  12.843 -0.1814  0.1442  0.0286
13392W        W29201   9.785   6.881  13.513 -0.0223  0.0530 -0.0953
13393W        W29202   6.665   1.478  14.965  0.0860  0.0295  0.1493
13394W        W29203   8.980   6.598   0.599 -0.2049  0.1533  0.3528
13395W        W29204  13.138  12.310  13.380  0.0034  0.0952  0.0292
13396W        W29205   2.631  15.071  13.054  0.2692 -0.1675  0.0652
13397W        W29206   5.123  12.883  11.315  0.0732  0.1601  0.0957
13398W        W29207   4.836   4.158  12.761 -0.0756 -0.3393 -0.1640
13399W        W29208   2.082   6.446  11.713 -0.1419  0.1343  0.0147
13400W        W29209  17.948   9.514   1.867  0.0557  0.0941  0.0513
13401W        W29210   3.162  13.385  13.710  0.1484 -0.1249 -0.1201
13402W        W29211   8.377  15.095   2.442  0.0357 -0.2642  0.1350
13403W        W29212  14.083  14.470   0.075 -0.1406  0.3077  0.0739
13404W        W29213  14.564   3.000  15.196  0.0151 -0.1679  0.0949
13405W        W29214   3.810   2.799  13.782 -0.3466  0.0116 -0.0461
13406W        W29215   6.835  15.705  14.882  0.2067  0.2901  0.0229
13407W        W29216  16.179  15.322  12.249  0.0535  0.0997 -0.3876
13408W        W29217   3.859  12.032  14.868 -0.1459 -0.2564  0.3124
13409W        W29218  15.711   7.480   4.775  0.2577 -0.1047  0.0333
13410W        W29219  13.344   8.265  13.163  0.1148 -0.2806  0.1483
13411W        W29220  15.895  10.701  10.817 -0.0730  0.3012  0.2552
13412W        W29221  12.387   1.971  11.508  0.1093  0.0256 -0.1175
13413W        W29222  15.236  10.803  16.214  0.1268 -0.0047  0.2949
13414W        W29223  13.860   4.314  14.592 -0.1312 -0.2054 -0.1506
13415W        W29224  13.549   0.256   1.024  0.2308 -0.2841 -0.1700
13416W        W29225  14.039   1.026   2.977 -0.0663 -0.1679  0.1346
13417W        W29226   8.479   5.031  15.342 -0.0038 -0.1543 -0.1082
13418W        W29227  13.327   1.859   2.733 -0.2741  0.3149 -0.1490
13419W        W29228   3.938  16.706   3.911  0.0402  0.1884 -0.2535
13420W        W29229  16.090  12.402   5.220  0.0775 -0.1627  0.1305
13421W        W29230  10.758   7.839  16.299  0.0004  0.2273 -0.0187
13422W        W29231   2.386   2.053  12.815 -0.0677  0.0044  0.2458
13423W        W29232  14.367  12.169  15.231 -0.0601  0.2345 -0.0640
13424W        W29233  11.098   4.526  11.406 -0.1482  0.0639  0.0921
13425W        W29234   6.954  12.647   2.148  0.1312 -0.1606  0.0514
13426W        W29235  11.494   8.105  15.998 -0.1711 -0.1443  0.2053
13427W        W29236  11.373   3.735  13.957  0.0390  0.1059  0.3992
13428W        W29237  16.873   4.008  15.480  0.2038  0.0675 -0.0017
13429W        W29238   5.036  16.491  13.676  0.1650  0.2089 -0.0225
13430W        W29239  12.383   8.200  13.835 -0.0291 -0.0520 -0.0042
13431W        W29240   1.279   2.709  14.126  0.1204 -0.1380 -0.2240
13432W        W29241   8.539   5.337   4.645  0.2598 -0.0332 -0.0821
13433W        W29242   1.126  12.294   4.613 -0.1463 -0.0657  0.2593
13434W        W29243   6.519  10.398   2.800  0.1829  0.2810  0.1664
13435W        W29244   2.479  14.102  11.126  0.1466 -0.0632 -0.3453
13436W        W29245  11.195   0.438  11.878  0.3250 -0.0053 -0.0398
13437W        W29246  14.114  16.778  13.528  0.1022  0.0761  0.0731
13438W        W29247  12.514   1.961   2.492 -0.1654 -0.0990  0.2517
13439W        W29248   4.099   1.413  15.337  0.1155 -0.1240  0.0459
13440W        W29249  14.133  12.390  14.552 -0.0848  0.1249  0.0996
13441W        W29250  17.058   7.695  14.202  0.0909  0.1733 -0.2351
13442W        W29251  11.459   6.254  11.436  0.1804 -0.3682 -0.1212
13443W        W29252   7.454   0.146   4.349 -0.1374 -0.1285 -0.1031
13444W        W29253  14.722  15.151  16.318  0.2968 -0.1275  0.0629
13445W        W29254   6.282  17.084   2.218  0.0059 -0.2256 -0.1623
13446W        W29255   4.284   0.568   2.308 -0.0321  0.1809 -0.2642
13447W        W29256  10.217  16.023   2.935 -0.2118  0.0895 -0.1233
13448W        W29257   4.930   9.109  12.757 -0.2142  0.0140 -0.5459
13449W        W29258   5.103  12.651   1.647  0.0461  0.0106 -0.0483
13450W        W29259  16.837   1.310   2.436  0.1163  0.2134  0.7128
13451W        W29260  10.378   5.484   5.279 -0.0551  0.1464 -0.2197
13452W        W29261   8.146   9.589   2.333  0.1903  0.3295  0.1512
13453W        W29262   9.440   7.160  12.274  0.0184 -0.0336 -0.1040
13454W        W29263   0.392   3.756  11.906  0.2452 -0.1602  0.1090
13455W        W29264  15.986   2.667  15.884 -0.2921  0.2082 -0.2517
13456W        W29265  18.127  13.988   3.796 -0.0728  0.3475  0.1435
13457W        W29266  16.706  18.055  14.695  0.2692 -0.1191  0.2661
13458W        W29267   0.638  14.962   2.476 -0.0073  0.3089  0.0277
13459W        W29268  17.222   6.590   5.342 -0.2522 -0.2408 -0.2275
13460W        W29269  13.073   4.488  13.393 -0.0563 -0.0593 -0.0491
13461W        W29270  16.476   6.036   5.851  0.1661  0.0682 -0.2323
13462W        W29271   6.382  10.839   4.205  0.1077  0.0901 -0.1093
13463W        W29272  17.122  17.440  14.107  0.1949 -0.0144  0.0527
13464W        W29273  12.892  13.061  11.043  0.0946  0.0465  0.0898
13465W        W29274  17.449  12.572   0.026 -0.1467  0.1735 -0.0613
13466W        W29275  12.076   1.352   1.372 -0.0079  0.2595  0.3299
13467W        W29276  15.777   5.404  13.708 -0.0101 -0.0640  0.0589
13468W        W29277   6.328  17.307   0.122  0.2966  0.5010 -0.2295
13469W        W29278   9.553   3.418  10.382 -0.1737  0.1872  0.2236
13470W        W29279  10.209   8.026   5.422 -0.0005 -0.5297 -0.0748
13471W        W29280  17.346  13.824   2.416 -0.1571  0.2610  0.1635
13472W        W29281   7.120  17.669  13.385  0.2730 -0.3271  0.0053
13473W        W29282   6.182  14.426   3.950  0.0885  0.0779  0.2613
13474W        W29283  15.679   8.388  13.429  0.1484 -0.2150  0.3169
13475W        W29284   1.326   0.614   1.711 -0.2648 -0.1097 -0.1110
13476W        W29285  15.027   6.974   3.663  0.1844 -0.0191 -0.2140
13477W        W29286  10.190   0.627  15.692 -0.2115  0.2640 -0.2524
13478W        W29287   5.229   2.024  13.316 -0.0581  0.2353 -0.1271
13479W        W29288   1.205   5.170  13.560  0.0492 -0.0787  0.2512
13480W        W29289  14.251  15.463  13.506 -0.0425  0.5411 -0.1111
13481W        W29290  14.311   7.140  15.822  0.1635  0.4067  0.0937
13482W        W29291  17.439   5.875   2.782 -0.2706 -0.3801 -0.1715
13483W        W29292   0.983  16.188   1.426  0.2352 -0.1071 -0.0000
13484W        W29293  14.148  11.491  12.987 -0.0343  0.1063  0.1764
13485W        W29294   3.740  16.609   3.227 -0.3013  0.1175 -0.3361
13486W        W29295   7.616   6.410  12.826  0.0182  0.2232  0.0860
13487W        W29296   4.191   5.977   0.918 -0.1607 -0.1080 -0.0658
13488W        W29297  11.396   1.267  13.491 -0.2566  0.1466  0.1615
13489W        W29298   3.151   3.926   4.488 -0.0273 -0.2934  0.0897
13490W        W29299  15.928   2.484   5.474 -0.0492  0.1391 -0.0413
13491W        W29300  11.869   0.228  13.279 -0.1520  0.1472  0.1299
13492W        W29301   2.937  14.381   1.280 -0.1692 -0.1099  0.4633
13493W        W29302   9.630   2.793   2.063  0.1716  0.1422 -0.0933
13494W        W29303  10.622   0.258   2.041 -0.1916  0.1712  0.0838
13495W        W29304  12.420  15.964  11.185  0.3551  0.0798 -0.0425
13496W        W29305  14.388   2.871  13.829  0.0905  0.2466  0.2845
13497W        W29306   1.753   1.314   4.165  0.0369 -0.1445  0.2082
13498W        W29307   1.722  10.400  13.021  0.3343  0.1989  0.0705
13499W        W29308  13.045   6.332  13.448  0.1372  0.0886 -0.0534
13500W        W29309  10.652  16.838   4.438 -0.3133  0.1229  0.0714
13501W        W29310   5.737  16.121  16.293  0.0871  0.2302  0.3092
13502W        W29311  11.636  13.808  14.793 -0.1411 -0.1395 -0.0839
13503W        W29312   9.998  18.028   4.539  0.1596  0.2746  0.3631
13504W        W29313  17.723   7.475  15.450  0.3819  0.1959 -0.1720
13505W        W29314   0.318  10.327  12.117  0.2204  0.2454  0.2248
13506W        W29315   5.137  12.636  14.667  0.0986 -0.0172  0.0322
13507W        W29316  13.144  10.270   4.630  0.0355 -0.0799 -0.1219
13508W        W29317   8.885  17.051  11.939  0.1681  0.1669  0.2456
13509W        W29318  13.858  12.960  15.419  0.0816  0.0841  0.1419
13510W        W29319  16.795   3.575   0.050 -0.3154 -0.0470 -0.2019
13511W        W29320  14.193  11.351   4.396  0.0773  0.1150  0.1881
13512W        W29321   1.917   0.725   4.153  0.0620  0.0003 -0.1106
13513W        W29322  16.883  16.456   4.083 -0.0675 -0.1931  0.1979
13514W        W29323   4.118   6.174   2.368 -0.0279  0.3777 -0.0444
13515W        W29324   8.980   8.928  11.365  0.1566  0.1088 -0.2354
13516W        W29325  10.437  13.295   5.488 -0.0505  0.1302  0.1696
13517W        W29326   5.271   4.134   5.215  0.2747 -0.2790  0.0878
13518W        W29327  14.001   5.438  12.247 -0.1681 -0.1712 -0.0436
13519W        W29328   1.725   9.494   2.381 -0.1060  0.1284  0.1467
13520W        W29329  15.115  15.965   0.009  0.0711  0.0437 -0.0896
13521W        W29330   5.293   3.495  12.336  0.1609  0.1257  0.2326
13522W        W29331   7.304  14.214  13.241 -0.2691  0.3905  0.0376
13523W        W29332   8.857   2.556  12.823  0.3035  0.0322 -0.1195
13524W        W29333   6.887   7.875  13.561  0.0108  0.1589 -0.2770
13525W        W29334   6.412  14.155  14.270  0.0211 -0.4166 -0.1026
13526W        W29335   0.808   1.023  15.143 -0.2435  0.1557 -0.0060
13527W        W29336   9.913   0.021  11.901 -0.0171  0.2960 -0.0185
13528W        W29337   8.875   7.975   0.980  0.0613  0.2950  0.1009
13529W        W29338   5.851  12.718   2.230 -0.0709 -0.3068 -0.1222
13530W        W29339   7.156  12.605  15.941 -0.2014  0.1908 -0.5257
13531W        W29340   6.886   1.691  12.316  0.0547 -0.1112 -0.0183
13532W        W29341   8.420   5.899  15.608  0.2008 -0.0463  0.1947
13533W        W29342  11.520  15.820  15.562  0.2445 -0.0891  0.1521
13534W        W29343  18.045   7.135   5.434 -0.2885 -0.3736 -0.2345
13535W        W29344   4.512  10.009   3.019 -0.3022 -0.1461  0.2269
13536W        W29345   5.909  10.846   1.571  0.0454 -0.1446  0.0359
13537W        W29346   2.949   5.130  13.590  0.3314  0.0397 -0.1128
13538W        W29347  17.161   1.352  12.778  0.1571 -0.0703  0.2295
13539W        W29348   6.718   2.399  13.895  0.1953 -0.2290  0.0195
13540W        W29349   2.912   6.114   1.467  0.0861  0.2381  0.0200
13541W        W29350   2.426   9.295   5.547 -0.0373  0.1429  0.2206
13542W        W29351   8.041   3.627   0.174 -0.0692  0.0335 -0.0787
13543W        W29352  13.961   2.100  11.798  0.1489 -0.2067 -0.0165
13544W        W29353   5.614  13.047  11.176  0.0327  0.1058 -0.3456
13545W        W29354  15.481   9.380   2.966 -0.2374  0.0270 -0.1114
13546W        W29355  17.734  12.712  15.309  0.1305  0.2944  0.2038
13547W        W29356  16.924  14.359   5.168 -0.0451 -0.2661 -0.0018
13548W        W29357   7.476  10.195   1.002 -0.0085 -0.0966 -0.4104
13549W        W29358  11.779  10.931  12.414 -0.1804 -0.3071 -0.2176
13550W        W29359   6.924   1.938   3.001 -0.0068 -0.1840  0.1581
13551W        W29360  12.130   8.581   3.192 -0.0877 -0.0548  0.2525
13552W        W29361  15.711  12.827  11.365 -0.0000  0.0227 -0.3065
13553W        W29362   3.956  12.320  14.420 -0.1269 -0.0358 -0.0236
13554W        W29363   2.797   2.556  14.596  0.1019  0.3417 -0.1509
13555W        W29364  13.596  18.098  14.711  0.1494  0.0020 -0.0886
13556W        W29365  15.337  11.245   3.976  0.0189 -0.1625 -0.0019
13557W        W29366  13.767  14.912  13.484  0.1453  0.0997 -0.1252
13558W        W29367   2.280  13.614   3.241  0.0033  0.1256 -0.2456
13559W        W29368  12.636   3.737  14.449 -0.0786  0.1041 -0.1121
13560W        W29369   8.360   6.875  15.376  0.1461 -0.1122 -0.1532
13561W        W29370   5.513  16.710   3.365  0.0021  0.1602  0.1809
13562W        W29371   3.957  14.807   4.292  0.1531 -0.1997  0.4338
13563W        W29372   2.757   1.802  12.528  0.0006 -0.0817 -0.0437
13564W        W29373  17.102  12.887   2.361 -0.0948 -0.0309  0.1522
13565W        W29374  13.739  10.263   3.722  0.0476 -0.0339  0.0025
13566W        W29375   4.959  10.405  16.260  0.2312  0.2026 -0.0237
13567W        W29376   1.395   4.908  13.168 -0.2153 -0.1808  0.3067
13568W        W29377  12.745   0.188   4.302 -0.1561  0.0268 -0.2267
13569W        W29378   3.158   3.402   4.658 -0.1519 -0.1685 -0.2236
13570W        W29379  16.789  14.046  11.386  0.2269 -0.5665  0.0449
13571W        W29380   3.596  14.921   4.625 -0.0833  0.1974 -0.2869
13572W        W29381   3.550   6.837   2.897  0.0168  0.3331  0.0255
13573W        W29382  13.652  17.095  13.060 -0.0953  0.1925 -0.0501
13574W        W29383   9.464   3.990  14.305  0.1295 -0.0635  0.0093
13575W        W29384  16.795   9.105  15.691  0.2089  0.1980 -0.0703
13576W        W29385  15.031   5.183   2.685 -0.1138  0.1928 -0.4691
13577W        W29386   6.126   8.038   3.002  0.4293 -0.3146 -0.1365
13578W        W29387  12.821   9.330  15.370 -0.3903  0.2617 -0.1096
13579W        W29388   1.088   7.018   0.891  0.0596 -0.1030 -0.1212
13580W        W29389  15.424   1.921   1.811 -0.0561  0.1176  0.3152
13581W        W29390  17.982   7.827   5.123  0.1526 -0.2662  0.1002
13582W        W29391   5.879  10.500   5.029 -0.0200 -0.2209  0.0255
13583W        W29392  12.039  10.597  15.463 -0.0927  0.0591  0.1657
13584W        W29393  11.485   8.736   0.310 -0.1174  0.0579  0.2047
13585W        W29394  15.084   3.852  11.004  0.4136  0.0130  0.0256
13586W        W29395  17.736  16.781  14.600  0.0864 -0.0224  0.1350
13587W        W29396  14.037   6.970   3.597 -0.0791  0.1135  0.0033
13588W        W29397   2.681  12.411   1.337  0.1209 -0.0918 -0.1262
13589W        W29398  11.001  15.038   2.301  0.1685 -0.1290 -0.3907
13590W        W29399   4.234  11.844   4.895  0.1597 -0.0991 -0.1240
13591W        W29400   9.236   0.238  14.588 -0.0745 -0.1399 -0.0167
13592W        W29401   7.127   1.060  10.646 -0.1069 -0.0223  0.0399
13593W        W29402  13.547   4.659  14.826  0.3862 -0.0911  0.0506
13594W        W29403  15.382   2.157   1.324 -0.2274  0.0204  0.0682
13595W        W29404   3.813   0.279   2.330 -0.0020  0.0956 -0.1221
13596W        W29405   2.974   5.294   5.142  0.1217 -0.0398 -0.1147
13597W        W29406   1.818   2.891  12.463  0.0269 -0.1890  0.1699
13598W        W29407  10.545   9.138   2.414  0.2840  0.0745 -0.0694
13599W        W29408  15.548  16.332  14.224 -0.3844 -0.3358  0.2129
13600W        W29409   2.271  11.924  13.094 -0.0301 -0.2255 -0.1549
13601W        W29410  10.308  15.304  12.534  0.2348 -0.4004 -0.0332
13602W        W29411  13.546  14.658   1.588  0.2581  0.1687  0.0129
13603W        W29412  14.988  11.610   4.318  0.0970  0.0838  0.2200
13604W        W29413   9.819  16.021  15.327  0.2392 -0.0298 -0.3043
13605W        W29414   9.882   0.855   2.248 -0.2268  0.0330  0.1627
13606W        W29415   0.682   0.429   3.386  0.0399 -0.0008 -0.2548
13607W        W29416   2.059  13.225  14.904  0.0580  0.0973  0.0754
13608W        W29417   4.601   0.986   4.684 -0.1178 -0.2626  0.2209
13609W        W29418   2.474   8.438   5.067 -0.0885 -0.1589 -0.1299
13610W        W29419   9.203  16.404   1.072 -0.2390 -0.4233  0.0958
13611W        W29420  12.257   0.356   0.477 -0.1019 -0.1501  0.0631
13612W        W29421  12.408   1.928  14.766  0.0973 -0.3403 -0.1222
13613W        W29422  14.958   3.800  14.366  0.1660 -0.1086 -0.0932
13614W        W29423   9.478   9.726   4.341 -0.3497 -0.0435  0.1797
13615W        W29424  17.411  12.883  13.768 -0.3670  0.2035  0.1241
13616W        W29425  11.232   7.992   2.562 -0.2562 -0.3119 -0.0040
13617W        W29426  18.137  14.938   2.823 -0.0300 -0.1934 -0.2325
13618W        W29427  11.346  11.680  14.477 -0.1371  0.0800 -0.4651
13619W        W29428   8.148  11.342   2.836  0.0299  0.3411 -0.0151
13620W        W29429  12.073   1.664  11.173  0.1577 -0.0815  0.4797
13621W        W29430   9.987   8.611   4.782 -0.1895  0.1361 -0.0806
13622W        W29431  11.272   8.227  11.446 -0.2428 -0.1358 -0.1653
13623W        W29432   0.728   8.463  16.121  0.0155  0.1431  0.0126
13624W        W29433   5.725   2.258  11.704  0.0403 -0.1015  0.0843
13625W        W29434   5.084  15.997  13.435 -0.1978 -0.1881  0.0232
13626W        W29435   4.940  18.188   3.193 -0.1154  0.1366 -0.1285
13627W        W29436   0.351  17.413  12.209 -0.1971  0.1577  0.1501
13628W        W29437   8.339  16.709  11.861  0.0688  0.2031  0.0898
13629W        W29438  17.668   6.241   2.516  0.2395 -0.2054  0.0567
13630W        W29439   9.437  12.311  12.191  0.0268  0.1591  0.1574
13631W        W29440   8.699  11.566   4.152 -0.1859 -0.0205 -0.0058
13632W        W29441   4.163   1.799  10.599  0.1489  0.0023 -0.0271
13633W        W29442   5.760  17.672   1.294 -0.0130  0.0789  0.2202
13634W        W29443  11.873  17.930  14.827 -0.0802 -0.1473  0.1337
13635W        W29444  12.429   1.611   3.020  0.1069  0.0867 -0.1350
13636W        W29445   9.226   2.968   2.701  0.0179  0.0430  0.0362
13637W        W29446  11.926  17.752  11.319 -0.1143  0.0762  0.0760
13638W        W29447  10.149   4.921   4.693 -0.0132  0.2025 -0.0028
13639W        W29448   9.384  10.582   0.922 -0.0791 -0.1462 -0.1884
13640W        W29449  14.507   2.241   2.901 -0.0467  0.1266 -0.1986
13641W        W29450  18.029  15.736   1.765 -0.1055  0.0636 -0.0015
13642W        W29451  14.163   5.206   0.400 -0.0416 -0.2507 -0.2104
13643W        W29452  13.400   2.918  11.570 -0.3398  0.2192  0.0752
13644W        W29453  15.838  16.026  13.926  0.0875  0.0275  0.1418
13645W        W29454   8.434   5.523  14.612  0.0202 -0.2137 -0.0435
13646W        W29455   3.083   2.451   0.622  0.0163  0.0818 -0.1530
13647W        W29456   1.706   6.320   5.309 -0.0277 -0.0447  0.0398
13648W        W29457  13.831   1.161  12.526 -0.1274 -0.0286  0.0583
13649W        W29458   5.990   7.701  13.933  0.0059  0.4371 -0.0443
13650W        W29459   0.383   6.463   0.439  0.1664 -0.2147  0.1666
13651W        W29460   2.811  12.317  11.773 -0.2859  0.2703 -0.0272
13652W        W29461   7.045  15.516  13.669 -0.1036  0.4190  0.0658
13653W        W29462  17.917   0.681  14.225 -0.7276 -0.0288 -0.2240
13654W        W29463  17.654   4.935  14.023  0.1365  0.1998  0.1352
13655W        W29464  12.432   3.186  11.735  0.0734  0.0257  0.1072
13656W        W29465   0.096  10.915   4.795  0.0568  0.2368 -0.2393
13657W        W29466   9.095  11.719  13.246 -0.1223 -0.2881 -0.1168
13658W        W29467   8.479  12.934  11.291  0.1996  0.0357  0.1010
13659W        W29468   8.845   3.413  14.883  0.3153  0.1024 -0.1354
13660W        W29469  16.589  17.866  15.592  0.2078 -0.4011 -0.2834
13661W        W29470  10.223   9.330   2.082  0.1033  0.2220  0.1747
13662W        W29471   9.229   0.028   0.690  0.0271 -0.0620 -0.4227
13663W        W29472   0.824  15.656   5.016  0.1707  0.2482  0.0482
13664W        W29473   8.865  15.873   2.604 -0.1672  0.0386 -0.3251
13665W        W29474   1.065  11.001   3.183 -0.1102  0.0627 -0.2259
13666W        W29475  15.695   0.424  16.046 -0.3095  0.0411 -0.0491
13667W        W29476  11.723   8.478   5.291  0.1295 -0.3551  0.2294
13668W        W29477   8.013   7.835   1.607  0.1127 -0.1114  0.0240
13669W        W29478   4.975   5.040   1.727  0.0319 -0.1393  0.0853
13670W        W29479   1.341   0.630  11.098 -0.0124  0.0100 -0.3670
13671W        W29480   2.073   2.438  13.809 -0.2227  0.0570  0.0847
13672W        W29481   0.907  15.780  11.789  0.1778  0.1641 -0.1263
13673W        W29482   5.308   7.898   3.162  0.1379  0.1032  0.1326
13674W        W29483  14.152  15.412  14.267  0.0293  0.2856 -0.0218
13675W        W29484  11.272   3.762  12.095 -0.2751 -0.1114  0.3717
13676W        W29485  11.868   0.877   2.062  0.0169 -0.1570  0.1717
13677W        W29486  13.991  17.798  12.601  0.1830 -0.0184 -0.1369
13678W        W29487   6.194   4.887   3.364  0.2715 -0.1003 -0.0451
13679W        W29488   1.185   6.635   1.179 -0.0081 -0.1928  0.1876
13680W        W29489   3.544  11.623   5.148 -0.1967 -0.0907  0.1396
13681W        W29490   8.150  17.310   1.830  0.0881  0.0463  0.1957
13682W        W29491   6.703  14.671   4.249  0.1221 -0.0752  0.1612
13683W        W29492  15.287  15.976  11.859 -0.2867  0.0284  0.0103
13684W        W29493   5.540   4.298   3.319  0.1305 -0.1144 -0.0361
13685W        W29494   4.263  10.337  11.705  0.1587 -0.0238 -0.0545
13686W        W29495   6.910   3.280   1.490  0.1452 -0.0636  0.0565
13687W        W29496  14.292  14.069   2.760 -0.0941  0.0072 -0.2609
13688W        W29497  16.884  13.134  11.086 -0.4490 -0.0955 -0.2164
13689W        W29498  12.626  12.327   2.384  0.0897  0.1994 -0.1475
13690W        W29499   0.880  10.321  15.293  0.0627 -0.2187  0.1922
13691W        W29500   3.692   9.927  14.613 -0.1203  0.0975 -0.0703
13692W        W29501  17.308  17.981   4.745 -0.3213 -0.1186 -0.0354
13693W        W29502  17.643   4.590  12.408 -0.1187 -0.0822  0.2067
13694W        W29503  12.398   8.219   4.561 -0.1452  0.2763 -0.1993
13695W        W29504   6.602  16.745  14.703  0.2702  0.5248  0.1994
13696W        W29505  13.190   5.437  15.014 -0.3314 -0.1087 -0.2792
13697W        W29506  17.587  17.334   4.020 -0.1148 -0.2670 -0.1963
13698W        W29507   1.061   5.740  13.807 -0.1494 -0.1441  0.0647
13699W        W29508   1.404   3.888  16.332  0.0420  0.4738 -0.2384
13700W        W29509  13.891   3.368   1.062  0.0934 -0.2442 -0.0741
13701W        W29510   6.333   9.462   5.947  0.1540 -0.1971 -0.2189
13702W        W29511   7.024  14.972   4.580  0.2627 -0.3209  0.0144
13703W        W29512  16.413  14.225  12.989  0.2389 -0.3433 -0.0051
13704W        W29513  15.674   5.892  16.135 -0.1124  0.0368  0.2925
13705W        W29514   5.147  14.547   3.448 -0.0999 -0.0309 -0.0027
13706W        W29515  13.432   0.111   3.630  0.0296 -0.0903 -0.1291
13707W        W29516   1.191  12.270  10.389  0.3429 -0.0747 -0.2192
13708W        W29517  13.928   9.023  15.306  0.0591 -0.4337 -0.0568
13709W        W29518   7.144  17.015   5.191 -0.1824 -0.2388  0.0635
13710W        W29519  13.553  16.447   3.673  0.2638 -0.1394 -0.1144
13711W        W29520  17.307   8.175  12.903 -0.0543 -0.1176  0.2500
13712W        W29521   3.322   5.350   3.443 -0.0070 -0.0234 -0.1051
13713W        W29522   8.264  13.623   4.987  0.1559  0.0866 -0.3201
13714W        W29523   4.260  17.522   0.095  0.1571  0.0494  0.1680
13715W        W29524   0.191   6.704   4.859 -0.1106  0.0706  0.0466
13716W        W29525  11.397  10.099   5.020 -0.2554  0.1392  0.2382
13717W        W29526   5.997   1.130   3.769  0.0911  0.3022  0.0846
13718W        W29527  17.616   9.262   5.221 -0.0802  0.1653  0.2361
13719W        W29528   6.849  14.446  11.620  0.0870 -0.3398 -0.1259
13720W        W29529   2.597  11.298   4.550  0.1105  0.2366  0.4153
13721W        W29530  17.197   8.864  15.490 -0.2492  0.0789 -0.2777
13722W        W29531   3.507   8.157   2.921  0.0824  0.4146 -0.0198
13723W        W29532   1.756  11.545  10.223 -0.0412 -0.0484 -0.0107
13724W        W29533  10.184   5.231  14.647  0.0642  0.2682 -0.1725
13725W        W29534   2.106   3.389   0.069  0.1390 -0.0593  0.0382
13726W        W29535  10.165  13.299  15.634  0.1508  0.2205  0.4669
13727W        W29536  14.306   6.007  11.691  0.2965  0.0904  0.2196
13728W        W29537  16.664   3.224  13.861  0.0447 -0.0241  0.1150
13729W        W29538   6.502   5.360   1.729 -0.0220 -0.2580  0.2882
13730W        W29539  12.610  16.947   4.089 -0.0780  0.2354  0.0275
13731W        W29540  15.982  14.122  15.763  0.3625 -0.0315  0.2712
13732W        W29541  17.414   2.032  14.629  0.2851  0.0961  0.1370
13733W        W29542  10.671   0.531  15.440  0.1637 -0.2117  0.0703
13734W        W29543  14.492   7.265   6.111 -0.1998  0.0565  0.1134
13735W        W29544  15.184   4.510   1.603  0.0221  0.0056 -0.1438
13736W        W29545   7.843  15.477  12.449  0.3894 -0.0159  0.0221
13737W        W29546   5.670  12.297   2.395  0.0389  0.2235 -0.3530
13738W        W29547  12.447   2.229   0.116 -0.0252  0.4343 -0.1272
13739W        W29548  17.453   8.860   2.658 -0.1046  0.0934  0.0414
13740W        W29549  17.323  16.354   3.790 -0.2884  0.1458 -0.2808
13741W        W29550   1.320  16.946  16.186  0.0134  0.0096 -0.0394
13742W        W29551   2.990  14.309   1.800 -0.1967  0.0946 -0.1420
13743W        W29552   3.220  12.316   1.494  0.1119 -0.0535 -0.0468
13744W        W29553  15.531  12.481   4.362  0.2073 -0.0322  0.4976
13745W        W29554   5.819  11.083  12.861 -0.2320 -0.0753  0.0504
13746W        W29555   2.538   1.914  10.995  0.3003  0.0619 -0.2261
13747W        W29556   1.712  12.768  14.767 -0.1962  0.1087  0.0939
13748W        W29557  14.682  16.587   0.425  0.2132 -0.1162 -0.4284
13749W        W29558   8.689  14.629   4.721 -0.1408 -0.0977 -0.0916
13750W        W29559   0.017  16.898  14.578 -0.3422  0.3027 -0.2698
13751W        W29560  12.283  17.795  15.079 -0.1329  0.1426  0.0381
13752W        W29561   2.244   0.301  12.798 -0.3437 -0.0990  0.1744
13753W        W29562   2.288   9.667  11.591 -0.1872  0.0399 -0.0298
13754W        W29563   7.630  10.719  15.575 -0.0383 -0.0739 -0.1601
13755W        W29564   1.719   1.543  15.628 -0.1577 -0.2150  0.0722
13756W        W29565   7.995   5.111   5.730 -0.1599 -0.0911 -0.0167
13757W        W29566   9.460   8.966   0.411 -0.1282 -0.3166  0.2487
13758W        W29567  10.924   4.166  16.100  0.2416  0.0491 -0.0505
13759W        W29568   2.678   9.396  11.852 -0.0041 -0.0928 -0.0478
13760W        W29569  16.706  11.926   0.504 -0.3378 -0.1114  0.1299
13761W        W29570  11.176   4.229  15.628  0.0662 -0.5526 -0.0905
13762W        W29571  16.552   8.543  15.011  0.1966 -0.4849  0.0567
13763W        W29572   6.848   9.261   3.610 -0.0248 -0.0137  0.2583
13764W        W29573  15.498   4.674  16.244 -0.2913 -0.1530 -0.2012
13765W        W29574   6.324  12.224   3.208  0.1513  0.1859  0.1375
13766W        W29575   0.563  15.399   0.309 -0.0102 -0.0886  0.2320
13767W        W29576   3.802  10.530  16.273  0.2229 -0.2523  0.1902
13768W        W29577   5.329  15.138   0.498  0.1684 -0.2911 -0.1899
13769W        W29578   5.864  14.710   1.718  0.0717 -0.1291 -0.1922
13770W        W29579  13.026  12.425   4.290 -0.3876 -0.2297 -0.0811
13771W        W29580  10.320   2.594  12.902 -0.0693  0.1169  0.2355
13772W        W29581  17.677   5.852  12.316 -0.2483  0.1258 -0.0488
13773W        W29582  12.536   8.943   1.048  0.2752  0.2531 -0.1845
13774W        W29583  15.028   4.201  11.566 -0.0594 -0.0893  0.0786
13775W        W29584   6.599  11.909  13.487  0.1993 -0.4154  0.0232
13776W        W29585  10.391   1.290  13.985 -0.0627 -0.3604  0.3838
13777W        W29586   6.591   9.254   4.910  0.0491 -0.1615  0.4523
13778W        W29587   6.916   5.408   0.734  0.0514 -0.0425  0.0980
13779W        W29588  15.354   5.421   4.795  0.2611 -0.0425  0.2491
13780W        W29589  14.169  18.078   5.970  0.3575  0.1458  0.1114
13781W        W29590   7.080   1.211  14.186 -0.0863  0.2194  0.0290
13782W        W29591  15.619   9.427   1.520  0.0956 -0.2014  0.1014
13783W        W29592  15.638   4.278  14.756  0.2430 -0.0064  0.2295
13784W        W29593   1.157  10.198  14.547 -0.0813 -0.0549 -0.2483
13785W        W29594  16.719   9.687  14.818 -0.1124  0.0977 -0.0900
13786W        W29595  12.204  16.592  11.865  0.0305  0.0986 -0.1830
13787W        W29596   3.194   0.099  11.813 -0.0534  0.2502 -0.2978
13788W        W29597  12.913   3.656   1.916  0.2178  0.1249  0.0351
13789W        W29598  15.828  17.812   4.604 -0.4602  0.0858  0.0387
13790W        W29599  11.707  15.471   0.478  0.1541 -0.1299  0.1005
13791W        W29600   1.307  11.606  15.026  0.1498  0.0286  0.0800
13792W        W29601   2.062  15.264   2.580 -0.2145  0.0322  0.1944
13793W        W29602   5.822   1.783   1.501 -0.0951 -0.0093 -0.3658
13794W        W29603   2.827   6.924   5.846  0.5388  0.1551 -0.1885
13795W        W29604   5.600   3.055  14.020  0.2052  0.2169  0.1359
13796W        W29605   0.863   1.100   3.948 -0.1032  0.1752 -0.0238
13797W        W29606  16.399   7.813   1.741 -0.0975  0.1251 -0.0493
13798W        W29607  18.085  14.106   4.681 -0.0154  0.0208 -0.4554
13799W        W29608   6.135  11.045  12.228 -0.0771  0.0227  0.2312
13800W        W29609   3.926   7.930  11.471  0.1054  0.1091  0.1115
13801W        W29610   2.595   5.376   6.055  0.0265 -0.0848 -0.4772
13802W        W29611   9.409  17.107   1.565 -0.0543  0.3462  0.1655
13803W        W29612  16.423   4.084   2.548  0.3653 -0.0616  0.4201
13804W        W29613  10.430  14.041   5.100  0.0333 -0.1216 -0.1254
13805W        W29614  17.077  17.546   0.432  0.2865  0.3331  0.1145
13806W        W29615  15.963   4.381   2.074 -0.0527 -0.4688 -0.4815
13807W        W29616   8.779   5.340   2.434 -0.2437 -0.0992  0.1698
13808W        W29617  12.060   4.376  16.022 -0.1783  0.1675 -0.1437
13809W        W29618  14.138   4.596   4.883 -0.1577 -0.2742 -0.0178
13810W        W29619   8.743  14.325   1.773  0.1053 -0.2713  0.2185
13811W        W29620   7.777  11.119  14.636 -0.1700  0.2469  0.0660
13812W        W29621  11.886   7.238   3.558 -0.3082 -0.1462 -0.0585
13813W        W29622  13.456   6.307  15.052  0.0542  0.0038 -0.1843
13814W        W29623  11.167  10.309   0.857  0.1543  0.0534 -0.1326
13815W        W29624   9.958  12.415   6.080 -0.0241  0.1940 -0.1507
13816W        W29625   6.777   4.815   4.465  0.4723  0.2406  0.3197
13817W        W29626   2.844  10.238   4.411 -0.1008  0.1140  0.1369
13818W        W29627  14.240   4.970  15.575 -0.0730 -0.1995 -0.2616
13819W        W29628  12.492   6.877  14.157  0.4242 -0.1498 -0.4061
13820W        W29629   3.267   3.988  11.288  0.0401  0.0379 -0.2879
13821W        W29630   2.539   4.229   5.838 -0.1076  0.2519  0.2554
13822W        W29631   5.533   8.216   3.740 -0.0015 -0.1668  0.0051
13823W        W29632  10.674   1.645  11.297 -0.1127  0.0680 -0.0300
13824W        W29633  15.618  17.021   4.495 -0.0799  0.2795  0.1892
13825W        W29634  17.006   0.456  16.124 -0.1103  0.0576  0.0498
13826W        W29635  14.336  18.200  13.248  0.1748  0.1318  0.0315
13827W        W29636   3.994   1.056   4.210 -0.1555  0.0165  0.2401
13828W        W29637   1.647  16.913   4.321  0.4319  0.1274 -0.1370
13829W        W29638  14.868  10.113  12.710 -0.2793  0.0269 -0.0904
13830W        W29639   0.619   9.911   4.900  0.2548 -0.4112  0.1863
13831W        W29640   6.949  15.419   5.156 -0.2166  0.0696  0.0497
13832W        W29641  15.290   3.822   2.323  0.1584  0.0230 -0.0389
13833W        W29642  17.015   0.474  15.231 -0.0237  0.1050  0.3501
13834W        W29643  15.451   3.814  12.675 -0.0531  0.1798  0.0083
13835W        W29644  17.652   9.864  12.486  0.2985  0.0747 -0.0855
13836W        W29645   3.839  17.536   4.447 -0.2181  0.0773  0.0351
13837W        W29646   6.925  10.640  10.434 -0.1610  0.2461  0.1226
13838W        W29647   6.127   3.385  11.230  0.0679 -0.2569  0.1152
13839W        W29648  17.603  17.641  15.022  0.0127  0.1934  0.1382
13840W        W29649   6.296   1.562  14.077  0.1229  0.2539  0.1505
13841W        W29650  16.953  13.507   5.930 -0.0563 -0.2090 -0.1675
13842W        W29651  10.112   1.300  14.938 -0.0387 -0.0437 -0.0062
13843W        W29652  12.849   4.313   3.676 -0.2126  0.1764  0.1096
13844W        W29653  17.934  13.667  15.457 -0.0283 -0.0046 -0.3615
13845W        W29654   0.398   8.441   5.706  0.0693 -0.3472 -0.3443
13846W        W29655  11.749  15.795  13.393 -0.1510  0.0298 -0.3043
13847W        W29656  18.073   1.929  14.866 -0.0099 -0.1679 -0.4583
13848W        W29657  10.970   7.438   0.314  0.1058 -0.2751 -0.2326
13849W        W29658  11.184   8.996   4.267  0.0670 -0.3190  0.3184
13850W        W29659  10.758  13.464   0.184 -0.3149 -0.0994  0.0378
13851W        W29660   6.572   5.604   4.773  0.2447  0.0005 -0.1554
13852W        W29661   6.128   7.456  13.411 -0.0153 -0.0811 -0.0129
13853W        W29662  10.651   9.322  11.184 -0.1598 -0.1400 -0.1508
13854W        W29663   5.637   3.779  11.459  0.1927 -0.2833 -0.1335
13855W        W29664   5.588   7.769   0.589 -0.0179  0.0827  0.0040
13856W        W29665  14.230  14.190  11.423 -0.1493 -0.0259 -0.1216
13857W        W29666  13.948   5.367   4.361  0.2342 -0.0931  0.0236
13858W        W29667   1.047  17.213  15.793  0.2652 -0.0357  0.2582
13859W        W29668  17.575  11.433  13.167  0.1705 -0.0007  0.2109
13860W        W29669   5.607  18.080  12.975  0.1233  0.4205  0.2614
13861W        W29670   1.330   9.423   1.617 -0.0285  0.0377  0.3814
13862W        W29671  13.255  17.548  15.453 -0.3057  0.1086  0.0558
13863W        W29672  12.573  11.208  14.418 -0.0294  0.1735 -0.1852
13864W        W29673   6.355   0.157  13.595 -0.0721  0.0635 -0.1938
13865W        W29674   3.156   3.606   1.790  0.0007 -0.0762  0.1216
13866W        W29675   2.010   6.897  14.586  0.1182  0.1768 -0.0525
13867W        W29676  11.998   2.593   2.982 -0.0417 -0.1387 -0.0149
13868W        W29677   9.736   7.383  14.428 -0.1512 -0.0111 -0.2545
13869W        W29678  13.057   0.016  12.205 -0.0115 -0.1386 -0.2904
13870W        W29679  16.889   6.999   4.058 -0.0414 -0.2216 -0.0920
13871W        W29680  15.000   9.432   1.717  0.1164  0.1390  0.1077
13872W        W29681  16.407   5.877  11.702  0.2412  0.0950  0.0678
13873W        W29682   8.579  11.158  13.790 -0.2368  0.0779  0.1069
13874W        W29683   3.892  15.807   2.055  0.0666  0.2761 -0.1782
13875W        W29684   3.389   3.766  14.460  0.1113 -0.0766  0.0937
13876W        W29685  13.820  17.772   5.512 -0.0607 -0.1063 -0.1543
13877W        W29686   1.748   2.496  13.395 -0.1279  0.1752  0.5512
13878W        W29687  14.762  16.074   1.394  0.2894  0.3004  0.3081
13879W        W29688   6.350  15.366  16.325  0.1128  0.2192  0.1302
13880W        W29689  13.483   3.022   2.783 -0.2461 -0.0146 -0.2294
13881W        W29690   5.150   1.263  11.506  0.1425  0.0712 -0.1194
13882W        W29691   2.744   4.171   4.792  0.2863  0.0753 -0.0924
13883W        W29692   6.596   2.288   3.207  0.1920 -0.0888  0.0603
13884W        W29693  11.446   8.491  14.507 -0.1866  0.0343 -0.0370
13885W        W29694  17.663   4.353  15.034  0.4198 -0.1205 -0.0894
13886W        W29695   1.023   7.769  15.407  0.0502 -0.0213  0.1445
13887W        W29696  11.851  12.611  15.932  0.1517  0.2121 -0.1198
13888W        W29697  10.888   1.058  12.548  0.0681  0.3696 -0.0152
13889W        W29698  12.727  17.447   2.346 -0.1622  0.0778  0.1450
13890W        W29699   9.178   1.292   4.977 -0.0803  0.0632 -0.3068
13891W        W29700   3.182   1.042  11.242 -0.0510 -0.1652 -0.0510
13892W        W29701  16.080   6.574  14.546  0.1587 -0.0680  0.0673
13893W        W29702   1.017  10.267  14.037  0.3028  0.2236  0.2407
13894W        W29703  15.300   1.369  12.681 -0.3441 -0.0557  0.2442
13895W        W29704   9.449   0.656   2.935 -0.0688 -0.1579  0.1383
13896W        W29705   9.346   9.911   2.043 -0.0071 -0.2035 -0.2064
13897W        W29706   7.718  10.400  12.849  0.2690  0.2410 -0.2904
13898W        W29707   2.034   8.164   4.821  0.1018 -0.4560  0.0532
13899W        W29708  12.304  15.206  16.207  0.2117 -0.1208 -0.0949
13900W        W29709  14.161   8.572  15.546  0.0795  0.2271  0.0482
13901W        W29710   0.508   2.480   2.363  0.2660 -0.0174 -0.0883
13902W        W29711  18.027   7.940   0.986 -0.0566  0.0198  0.0287
13903W        W29712  12.813   0.322   0.438 -0.2177  0.0209  0.1220
13904W        W29713   2.607   4.689  11.510  0.1110  0.1555  0.0988
13905W        W29714   7.965  11.377  16.046 -0.1068  0.1564 -0.0877
13906W        W29715   2.681  13.441   0.491 -0.0099  0.2488 -0.2231
13907W        W29716  14.643  12.684  13.574 -0.1366  0.0182  0.1342
13908W        W29717  16.893   4.185  13.371  0.0956 -0.2805 -0.0973
13909W        W29718   1.463   7.426  11.351  0.0655 -0.0186  0.1471
13910W        W29719   8.725  12.219   4.874 -0.0457 -0.0085  0.1252
13911W        W29720   3.421  17.838  15.158  0.0186  0.0241  0.1429
13912W        W29721   9.825  17.434  15.322  0.3898  0.0328 -0.4346
13913W        W29722   1.990   1.947  14.191  0.1796 -0.1484 -0.0398
13914W        W29723  13.374   4.109   5.129  0.1231 -0.2798  0.0009
13915W        W29724   6.000  10.864   5.466 -0.1076 -0.1082 -0.0230
13916W        W29725  13.983  10.899   3.585  0.0600  0.0347  0.1388
13917W        W29726   6.477  13.385  16.046  0.1859  0.0074 -0.4466
13918W        W29727   2.392   4.151   0.533  0.0386  0.2383 -0.2140
13919W        W29728   5.880   2.201   1.982 -0.0630 -0.4871  0.1268
13920W        W29729  11.394   3.013  13.530 -0.1421  0.2671  0.3437
13921W        W29730   8.325   1.105  13.217 -0.3753 -0.0924  0.1101
13922W        W29731   3.494   3.708   2.666 -0.0191 -0.0153 -0.1659
13923W        W29732   4.543  16.811   5.708  0.2790  0.0857 -0.2067
13924W        W29733  14.676   1.900  13.062  0.0124  0.0595  0.0056
13925W        W29734  10.926   3.915  14.157 -0.0802  0.2004  0.0541
13926W        W29735   1.867   1.780  12.781  0.3406 -0.4112  0.2138
13927W        W29736  12.499  16.930   5.084  0.0377  0.3169  0.1095
13928W        W29737   8.937   6.313   4.057 -0.1404 -0.3018  0.2894
13929W        W29738  11.847  11.763   0.193  0.0977  0.3111 -0.0444
13930W        W29739   5.543   6.601   0.777 -0.1996 -0.3145  0.1079
13931W        W29740  17.180  12.336   3.306 -0.0388 -0.1347 -0.2345
13932W        W29741  12.431  12.413  13.054  0.2203  0.2278  0.0320
13933W        W29742  15.787   2.598  12.580 -0.0902  0.1785 -0.5400
13934W        W29743   0.304  17.164  10.275  0.1469  0.0168  0.0116
13935W        W29744   4.544   6.870  11.905  0.0940 -0.2385 -0.1695
13936W        W29745  15.520   5.347   6.396 -0.2308 -0.0492  0.0252
13937W        W29746   3.387   6.709  15.499  0.1308 -0.5543  0.3059
13938W        W29747   7.035   3.089   9.726 -0.0081  0.1438 -0.1408
13939W        W29748   7.147   8.254   2.567  0.0312  0.2183 -0.2299
13940W        W29749   1.869  10.523   1.235  0.1370 -0.0114  0.1082
13941W        W29750  10.204  12.218   9.766 -0.0251 -0.0791  0.0564
13942W        W29751   4.962   2.910  11.868  0.1235  0.0764  0.0129
13943W        W29752   1.273   2.225  12.113  0.4561  0.1175  0.0186
13944W        W29753  13.719   9.373   2.362  0.0801 -0.0423  0.0563
13945W        W29754  10.231   3.495   1.929  0.3217  0.1028  0.1186
13946W        W29755  13.434  15.759   6.188 -0.0405  0.0097 -0.2789
13947W        W29756   9.468  12.620  11.246 -0.1234 -0.2206  0.0847
13948W        W29757   2.927   8.557   4.462 -0.2165  0.1216  0.0208
13949W        W29758   4.430   2.338   5.083 -0.1163 -0.1131  0.0220
13950W        W29759   7.996   2.079   3.259  0.0697 -0.0877  0.0877
13951W        W29760   8.036   1.293  10.258  0.0179  0.2660  0.2396
13952W        W29761   8.253   2.799  14.330  0.1313  0.0761 -0.0872
13953W        W29762   1.011   1.847  13.745 -0.2478 -0.2253 -0.0837
13954W        W29763   7.806  14.721   3.330 -0.2948 -0.2889  0.2755
13955W        W29764   7.563  17.941   0.662  0.0267  0.0851  0.1338
13956W        W29765   3.296  14.757  15.213 -0.3207  0.0855 -0.1156
13957W        W29766   0.639  11.303   4.975 -0.0695  0.2117  0.2576
13958W        W29767  11.229   6.773   3.243  0.1967  0.1836  0.2225
13959W        W29768   9.597   4.221   5.455 -0.1020  0.0149 -0.0866
13960W        W29769   4.351  16.034  10.204 -0.2866 -0.3920 -0.0424
13961W        W29770   9.055  14.501   3.511  0.0548  0.2290  0.0301
13962W        W29771   5.036  15.513   2.615  0.1659  0.0575 -0.2603
13963W        W29772  15.349   5.407   0.482  0.2405 -0.0229  0.1738
13964W        W29773  12.081  17.772   4.558  0.0180 -0.1981 -0.0091
13965W        W29774   5.185   7.930   5.452  0.0338 -0.2859 -0.0753
13966W        W29775  10.962  16.957   5.884  0.1882 -0.0413 -0.0508
13967W        W29776   2.029   0.717   1.571 -0.1434  0.0674 -0.1386
13968W        W29777  12.769   5.779   0.859 -0.1480  0.0561  0.1610
13969W        W29778  13.156   2.534   0.674  0.2128  0.0789  0.0629
13970W        W29779   7.094   7.980   1.673 -0.0780  0.1652  0.3310
13971W        W29780  12.042   7.927  13.586  0.1675 -0.0417  0.2530
13972W        W29781   8.423   3.786   5.166 -0.2244  0.1097  0.0247
13973W        W29782  14.155   1.973   1.245  0.3864 -0.3469  0.0270
13974W        W29783  16.723   9.667  11.343  0.0322 -0.0782  0.1491
13975W        W29784  10.233  17.983  13.543  0.0199  0.0781 -0.0154
13976W        W29785  15.354   3.216   0.515  0.3607 -0.3128  0.0102
13977W        W29786   2.811   8.115  16.104  0.0991  0.0521 -0.1069
13978W        W29787   9.178   0.705  13.249 -0.1217 -0.0761  0.0084
13979W        W29788   5.558  15.200   5.482 -0.0098  0.1054 -0.1748
13980W        W29789  10.253  12.778   4.325  0.1580  0.0402 -0.2048
13981W        W29790   7.997  12.898   5.300 -0.0521 -0.3523 -0.0237
13982W        W29791  15.449   8.889   2.389 -0.0248 -0.0458  0.0075
13983W        W29792  18.139  10.428   3.904  0.0198 -0.3750 -0.0651
13984W        W29793   1.561  12.917  13.254  0.0452 -0.0443  0.2770
13985W        W29794  15.498   6.454  13.350 -0.0927 -0.0989  0.2376
13986W        W29795   2.043  15.569  12.166 -0.2195  0.1791 -0.0669
13987W        W29796   2.259   1.107   5.405 -0.1210 -0.1041  0.0945
13988W        W29797   1.142  13.339  15.266  0.0246  0.1153  0.1057
13989W        W29798  14.359   0.426  15.349 -0.0996  0.0374 -0.1518
13990W        W29799  16.114  16.759   4.981  0.1142 -0.0561  0.0887
13991W        W29800   0.866   8.457  13.586 -0.2530  0.0721  0.1058
13992W        W29801   0.540  10.227   5.315 -0.2830  0.0878 -0.1479
13993W        W29802  12.354  15.340  14.936  0.2471 -0.0532 -0.0538
13994W        W29803  11.286  14.071   2.270  0.1942 -0.0137  0.0388
13995W        W29804   3.204   6.896   0.197 -0.1600  0.0766  0.1425
13996W        W29805  14.488  11.246  10.974 -0.1387  0.3363 -0.0062
13997W        W29806   5.864  13.380   0.482  0.1426  0.2273 -0.2677
13998W        W29807  17.463  18.127  12.198  0.2157  0.3436  0.0947
13999W        W29808   7.863  11.671  12.533  0.1724  0.1675 -0.2013
14000W        W29809   6.739   4.378   2.599 -0.0120  0.1193  0.1388
14001W        W29810  16.999   6.442   0.432 -0.6219 -0.0001  0.0782
14002W        W29811  15.342  14.085  13.768  0.0419  0.3039 -0.0191
14003W        W29812   7.426  12.255  11.849 -0.3350  0.0909 -0.3504
14004W        W29813   8.975  13.505  12.900  0.0295  0.0624  0.2900
14005W        W29814   8.829  15.093  14.171  0.0651  0.1357  0.1356
14006W        W29815   6.832   2.272  15.566 -0.0198 -0.0005  0.0785
14007W        W29816   8.631   1.843  14.564  0.0336 -0.3817  0.2810
14008W        W29817  16.061   0.655   3.234 -0.3561  0.0146 -0.2707
14009W        W29818   2.971  11.989   0.023 -0.2787 -0.1016 -0.0766
14010W        W29819  17.735   4.754   4.109  0.0690 -0.1243 -0.5471
14011W        W29820  15.516   0.092   0.010 -0.2042  0.1298 -0.2833
14012W        W29821  17.055   5.557   2.689 -0.0737 -0.2397  0.2149
14013W        W29822   2.137   6.109   6.612 -0.1199  0.1785  0.1164
14014W        W29823  13.290  17.525  11.725  0.4823 -0.0443  0.0804
14015W        W29824   5.588  17.083   5.008  0.1550  0.0741  0.1952
14016W        W29825   4.706   2.061   0.026 -0.0218 -0.3838  0.0705
14017W        W29826   7.062  17.520  10.451 -0.2020  0.1660 -0.0932
14018W        W29827   1.894  11.199  12.433  0.2967  0.2403 -0.0484
14019W        W29828   5.350  12.406  12.033  0.0488  0.1246  0.2270
14020W        W29829   5.674   0.577  16.119  0.0392 -0.2282 -0.1984
14021W        W29830   0.727   7.149   3.901  0.1942  0.1323  0.2246
14022W        W29831  13.803  16.961  12.120 -0.0840 -0.1573  0.2029
14023W        W29832   9.496   4.730  13.234 -0.3131  0.2398  0.1573
14024W        W29833  15.562  15.601  13.851  0.0952  0.0206  0.0067
14025W        W29834  17.557   8.449  12.488  0.0092  0.3673  0.0584
14026W        W29835   0.845  16.403  12.356 -0.0181 -0.2451 -0.2196
14027W        W29836  13.144   3.980   2.364  0.1372 -0.3022  0.0181
14028W        W29837  13.118  16.364  12.473 -0.5454  0.0842 -0.0132
14029W        W29838   9.890   0.220   1.731 -0.2308  0.1251  0.0888
14030W        W29839  17.726   5.410   2.024  0.1432 -0.0336 -0.1017
14031W        W29840  14.163  14.362  10.924  0.1123 -0.1008  0.1980
14032W        W29841   8.307  15.619   5.703 -0.0805  0.0548 -0.0174
14033W        W29842  13.476   4.626  13.657  0.2442  0.1236  0.0066
14034W        W29843   4.348  16.033  12.455  0.1380  0.0756 -0.2638
14035W        W29844   3.076   4.134  14.699 -0.0596  0.0271 -0.1109
14036W        W29845   5.740   0.194   0.115 -0.0649 -0.1942 -0.2274
14037W        W29846   3.606  16.032   2.468 -0.0074 -0.0985 -0.0515
14038W        W29847  13.164   5.299  11.794 -0.0189 -0.0359  0.0166
14039W        W29848   6.340  11.065  15.136  0.1562  0.1615 -0.1412
14040W        W29849  10.352   2.623  16.081 -0.1256  0.0499  0.2246
14041W        W29850   6.628  12.602   0.220 -0.2733  0.0851  0.1694
14042W        W29851   4.415  10.862   4.597 -0.0607 -0.0206  0.0430
14043W        W29852  15.672   3.320   3.104  0.3884 -0.0880  0.0029
14044W        W29853  12.307   2.933  14.163 -0.0074 -0.1368  0.1519
14045W        W29854   3.916  15.592   3.179 -0.0287  0.3202 -0.3115
14046W        W29855  14.285  11.993   4.802 -0.0065  0.0078  0.2269
14047W        W29856  11.479  17.070   1.328 -0.3006  0.0767 -0.1589
14048W        W29857   5.380  15.635   4.065 -0.1808  0.1093 -0.0304
14049W        W29858  17.422   4.746  15.115 -0.1791  0.0521  0.0352
14050W        W29859  11.302   6.860   1.783  0.2335 -0.0331 -0.1519
14051W        W29860   6.270  17.856  12.364 -0.0466 -0.2759 -0.1287
14052W        W29861   5.476   1.524  16.304 -0.0581 -0.2042  0.1579
14053W        W29862   2.721   3.735  14.318 -0.0859  0.1804 -0.3039
14054W        W29863   1.143  16.654  15.282  0.1762  0.1820  0.1439
14055W        W29864  12.234   2.146   2.944 -0.1166 -0.0540 -0.2002
14056W        W29865   9.550   2.792   0.142  0.1466  0.0918  0.0099
14057W        W29866  16.787  17.508  11.517 -0.0692 -0.1553 -0.1435
14058W        W29867  15.657   5.306   1.779  0.0612 -0.2453  0.2365
14059W        W29868   2.968   5.517   4.177 -0.0926  0.1081 -0.0210
14060W        W29869  16.051   2.913  14.540  0.2029  0.0267  0.0026
14061W        W29870   0.729  13.832   0.722 -0.1368  0.0188 -0.1967
14062W        W29871   5.752  12.583   3.865  0.2977  0.0412 -0.0421
14063W        W29872   6.267  17.612  12.822 -0.0472 -0.0085 -0.0792
14064W        W29873  15.132  13.927   4.162  0.0841 -0.2243  0.4139
14065W        W29874  12.987  15.451  15.112 -0.5325  0.1123 -0.1465
14066W        W29875  17.189   3.270   3.605  0.0359  0.0059  0.0722
14067W        W29876   9.402   2.874  15.982 -0.1736  0.1090 -0.1515
14068W        W29877   3.107   7.070  16.059 -0.0041  0.1678 -0.0001
14069W        W29878  10.814   1.261   3.492  0.1546  0.1792 -0.3017
14070W        W29879  16.929   5.892  13.380 -0.2453 -0.1603 -0.3364
14071W        W29880  15.448  17.020  12.725 -0.1077  0.1680 -0.0043
14072W        W29881   8.846  13.384  15.184 -0.0275  0.1242 -0.0823
14073W        W29882  13.256   4.578  16.350  0.1408  0.0888 -0.2638
14074W        W29883   0.271   6.382  11.701 -0.5071  0.1229  0.0009
14075W        W29884   1.733  11.366  15.071  0.0700 -0.2889 -0.0661
14076W        W29885   5.825  15.180  13.781  0.2699 -0.0008  0.2470
14077W        W29886   5.825  13.035   4.106 -0.1231 -0.0480 -0.0635
14078W        W29887   1.109   3.879  15.461 -0.2086 -0.3622 -0.1074
14079W        W29888   7.665  17.352  12.531 -0.2118  0.0177 -0.1424
14080W        W29889  15.067   4.681  12.797 -0.0616 -0.1597  0.1902
14081W        W29890  11.841  15.083  12.387  0.0553  0.2165  0.0993
14082W        W29891   8.547   8.743  10.951 -0.1115  0.0741  0.1673
14083W        W29892   0.177   1.225   1.909  0.3090 -0.0145 -0.0659
14084W        W29893  12.453   5.205  15.929  0.0975 -0.0932  0.0624
14085W        W29894   5.814   8.600  13.080  0.3614  0.1344  0.0490
14086W        W29895  13.609  14.804   3.054  0.0027  0.1765 -0.0144
14087W        W29896  11.092   5.238  13.739  0.0465  0.1596 -0.1182
14088W        W29897  12.928  15.476   1.986 -0.1022 -0.2503 -0.0930
14089W        W29898   8.387   3.297  12.762 -0.1605 -0.2732  0.0783
14090W        W29899  12.941  11.981  14.984 -0.0014 -0.1111  0.0676
14091W        W29900  13.924   8.288   1.552 -0.2134 -0.4901  0.5766
14092W        W29901   0.348   5.180  15.742 -0.0506  0.0277 -0.0445
14093W        W29902   0.406  12.693   2.619 -0.2986  0.2352 -0.0601
14094W        W29903  14.606   9.690   1.505  0.0800 -0.2388 -0.0419
14095W        W29904  10.126   2.409  11.156  0.2117 -0.1259 -0.2479
14096W        W29905  11.098  12.113  14.469  0.0714  0.2650  0.1712
14097W        W29906  12.939   0.214   3.772  0.0139 -0.3449  0.0658
14098W        W29907   6.432   7.363   2.108  0.1064  0.1309 -0.0397
14099W        W29908   7.389   4.666  14.834 -0.1112 -0.1305 -0.0806
14100W        W29909  15.558   0.558   0.486  0.0752  0.0239 -0.0137
14101W        W29910  13.946   2.968  11.026 -0.0986  0.1389 -0.0645
14102W        W29911   0.900   5.519  13.274 -0.1919 -0.1231  0.2069
14103W        W29912   1.815   3.186  15.239 -0.0293 -0.0027 -0.1440
14104W        W29913   7.619  14.552   5.122  0.4100 -0.0808  0.3817
14105W        W29914  14.452  17.993   1.767  0.1813 -0.0518 -0.2866
14106W        W29915  17.678  10.686   3.543  0.0490  0.4381 -0.2876
14107W        W29916   4.635  17.892   1.808 -0.0987  0.1065 -0.1329
14108W        W29917  10.661  10.720  12.765  0.2246  0.4672 -0.0869
14109W        W29918   1.192   0.091  12.498 -0.1567  0.0350  0.5041
14110W        W29919   8.454  12.146  15.501  0.3167  0.0281  0.3361
14111W        W29920  15.363  10.595   6.206 -0.1823  0.0217  0.0376
14112W        W29921   7.817   9.535  14.996 -0.2470 -0.1675  0.2179
14113W        W29922   2.662  10.440  16.182 -0.1946  0.0604  0.0705
14114W        W29923  14.333   4.568   0.555  0.0605  0.1032 -0.0743
14115W        W29924  15.980   5.869  13.665  0.1031  0.0168  0.0639
14116W        W29925   1.324   1.174  12.723 -0.4168 -0.0225  0.2544
14117W        W29926  13.015  11.098  12.817 -0.0855  0.1134  0.1163
14118W        W29927  17.663   0.105  15.628  0.0321 -0.2621 -0.2024
14119W        W29928   9.308   1.689  15.560 -0.3824 -0.0750  0.1585
14120W        W29929  18.039  11.814   2.411 -0.3476  0.2010 -0.1101
14121W        W29930   6.759   5.403   2.219 -0.0662 -0.2549 -0.3475
14122W        W29931   5.023  13.595   3.204  0.0452 -0.3006 -0.1174
14123W        W29932   3.155   8.814   0.883 -0.4609 -0.2596  0.2767
14124W        W29933   5.884   3.326   4.686  0.0961  0.1221  0.1041
14125W        W29934   3.665   8.156   5.114  0.2848  0.2289 -0.4366
14126W        W29935  16.713  13.050  14.397  0.2741  0.1721 -0.1590
14127W        W29936  16.359  10.094  12.297  0.2058  0.1836  0.4762
14128W        W29937   1.326  14.758   3.902  0.0589  0.4728 -0.1547
14129W        W29938   5.967   2.501   0.623  0.0540 -0.1004  0.0531
14130W        W29939   7.584  13.449   1.195 -0.0548  0.1036 -0.1264
14131W        W29940  12.279  11.550  14.688 -0.0383 -0.0759  0.2349
14132W        W29941  15.949   2.174  12.363  0.0846 -0.0448 -0.1308
14133W        W29942  11.610   7.711   3.492 -0.1436  0.1649 -0.0308
14134W        W29943  15.529   6.620  16.330  0.2262  0.0561  0.0480
14135W        W29944   4.414   0.262  15.772  0.0862 -0.0674  0.3019
14136W        W29945   0.945   2.660  14.466 -0.3961  0.1515  0.1084
14137W        W29946   1.989   7.473  14.110  0.1752  0.0844  0.1315
14138W        W29947  17.271   2.278  16.348 -0.3013 -0.1019  0.2306
14139W        W29948   4.180   9.273   3.198 -0.1879 -0.0325 -0.1815
14140W        W29949   4.823  12.933   0.459  0.4659  0.1026 -0.4024
14141W        W29950   9.246   1.986  10.127  0.2785  0.2347  0.1328
14142W        W29951   6.774  13.763   2.473 -0.0683 -0.2813 -0.0500
14143W        W29952  17.451  17.846   1.186  0.1864 -0.0425 -0.0195
14144W        W29953  10.412   8.906   1.363 -0.2099  0.3201  0.3985
14145W        W29954  14.403   9.609  12.370  0.1957  0.0203  0.0908
14146W        W29955  17.929   9.920   6.075 -0.0049  0.3371 -0.0754
14147W        W29956  15.803  16.719   3.987 -0.0110 -0.0431  0.1061
14148W        W29957  12.296  16.969  11.564 -0.0336  0.1559  0.1525
14149W        W29958  12.974   5.074  16.321  0.1129  0.2226  0.2271
14150W        W29959   1.519  11.783   2.239 -0.1110  0.1612  0.0198
14151W        W29960   2.662   9.543   0.724  0.1681 -0.0179 -0.0526
14152W        W29961  15.184   8.049   1.498 -0.0426 -0.1414  0.1139
14153W        W29962  14.518  12.339  13.217 -0.0156  0.0186 -0.3142
14154W        W29963  12.495  17.721  12.496 -0.0439  0.2521  0.0920
14155W        W29964  16.408   1.130  14.952  0.0325 -0.2026  0.0917
14156W        W29965   0.210  13.059   0.881 -0.0696  0.2081  0.5333
14157W        W29966   6.512  10.763  12.345 -0.2272  0.0417 -0.1689
14158W        W29967  10.987   0.076   0.282  0.1694 -0.0697  0.2264
14159W        W29968   7.841  17.780  14.424  0.1616 -0.2620 -0.0383
14160W        W29969   1.856  17.837  15.398  0.0331 -0.1234 -0.4594
14161W        W29970  15.493  16.048   2.415  0.0842  0.2492  0.1166
14162W        W29971   9.166  12.435   1.095 -0.2354  0.0763 -0.4286
14163W        W29972   5.231   8.231   4.580 -0.1461  0.1700 -0.2625
14164W        W29973  16.767   8.525  13.777 -0.0710 -0.2820 -0.0578
14165W        W29974   6.206  16.532  14.509 -0.0748  0.0212 -0.0127
14166W        W29975  13.275   7.929  10.941 -0.2634  0.0481 -0.1353
14167W        W29976   9.394  12.216   3.400 -0.4039  0.2634 -0.0293
14168W        W29977   8.923  15.696  10.950 -0.1998  0.0638 -0.0476
14169W        W29978  13.778  10.184  12.408 -0.3088 -0.0533 -0.2296
14170W        W29979   2.315  16.712  13.726 -0.1202 -0.1934  0.1216
14171W        W29980  15.868  11.896   0.447  0.4447 -0.0146 -0.1075
14172W        W29981  12.273  15.062   5.114  0.0878  0.0687  0.3027
14173W        W29982  18.202  17.422   5.027  0.4363  0.0103  0.0144
14174W        W29983   5.037   2.796  12.907  0.1402  0.1631  0.1109
14175W        W29984  10.828  12.132   0.208 -0.0184 -0.2618  0.1242
14176W        W29985   7.471  12.425   0.835 -0.0799  0.2902 -0.0501
14177W        W29986   4.886   0.906  14.402 -0.0669  0.0005  0.0582
14178W        W29987  11.861   9.006   2.342  0.1292 -0.2715 -0.1123
14179W        W29988  11.101   8.348  13.307 -0.0242 -0.0049  0.0207
14180W        W29989   0.134   9.889  14.108  0.1994 -0.0804 -0.0680
14181W        W29990  13.253  13.129   1.565 -0.0197  0.2196 -0.2084
14182W        W29991  17.913   6.429  14.366 -0.1153  0.1379 -0.5001
14183W        W29992  14.825   3.523  16.077  0.0469 -0.3526  0.2835
14184W        W29993  14.790   9.215  14.613  0.2458  0.3162  0.0002
14185W        W29994  15.875  16.043   2.062 -0.1412 -0.0631 -0.1099
14186W        W29995   8.364   8.977  11.959 -0.1838 -0.2468  0.3343
14187W        W29996  17.724  10.263  10.234  0.2624  0.1775  0.0254
14188W        W29997   3.409  16.884  12.446 -0.0165 -0.1290  0.2103
14189W        W29998  12.000   3.318   3.566  0.0719 -0.0822  0.2586
14190W        W29999  18.025  11.049  13.957 -0.1662  0.0257 -0.1233
14191W        W30000   9.738   1.650   0.894 -0.2358 -0.0509 -0.2090
14192W        W30001  14.127  10.608   6.177 -0.0133 -0.3820  0.0995
14193W        W30002  18.150   9.594   3.707  0.0104  0.0487 -0.0490
14194W        W30003  14.017  16.805   1.525 -0.0296  0.1313  0.3480
14195W        W30004  15.497   0.005   2.618 -0.2138 -0.1613 -0.1780
14196W        W30005  10.581  16.338   4.323 -0.0226 -0.0287 -0.0175
14197W        W30006  17.025  11.332  14.315 -0.3304  0.1760 -0.1586
14198W        W30007   8.464   1.012   3.499 -0.2359  0.1250 -0.4225
14199W        W30008  14.659   5.913  12.012 -0.3033  0.0381 -0.0110
14200W        W30009  11.655   9.416   3.221 -0.0883  0.0302  0.1318
14201W        W30010   8.501  11.027  13.143  0.0351  0.0056 -0.2075
14202W        W30011  17.652  16.743  13.313 -0.1019  0.0200  0.0275
14203W        W30012   2.371   7.928  15.913  0.1299  0.1245  0.1585
14204W        W30013   4.557   6.742  10.395  0.1517  0.1148 -0.0337
14205W        W30014   8.866  14.757  11.889 -0.0231 -0.0767  0.2257
14206W        W30015   7.441  13.991   4.447  0.0703 -0.0016  0.1415
14207W        W30016  17.138  11.906  11.341  0.2219 -0.3176  0.0654
14208W        W30017  13.078  14.906   5.532 -0.2507  0.1052  0.1255
14209W        W30018  13.300   8.914  14.430  0.3569  0.0944 -0.0282
14210W        W30019  14.988  16.347   2.734  0.1773 -0.3487 -0.2163
14211W        W30020  10.480  15.198  14.872 -0.0875  0.3867 -0.0764
14212W        W30021  13.068   3.961  16.354  0.1160 -0.2346  0.0660
14213W        W30022   9.803  12.001  11.123 -0.1419 -0.2264  0.1454
14214W        W30023   2.356   6.132  12.025 -0.2695  0.1905 -0.1422
14215W        W30024   3.051  11.789   2.609  0.1472 -0.3630 -0.1707
14216W        W30025   4.013   1.854  14.502 -0.0507  0.0352 -0.0862
14217W        W30026  14.372  12.558   3.633  0.1258  0.2026  0.0174
14218W        W30027   8.488   6.736   2.673 -0.0095 -0.0884 -0.0864
14219W        W30028  17.538   4.126  12.219 -0.0530 -0.0184 -0.1633
14220W        W30029   1.699   9.262  14.804  0.0005 -0.1193 -0.2491
14221W        W30030  15.502  13.655  13.968 -0.5024  0.0331  0.0421
14222W        W30031   4.041  16.930  15.714  0.0720 -0.0487  0.2791
14223W        W30032  11.750   3.245  14.018 -0.2217 -0.0518 -0.0399
14224W        W30033  16.130   2.849   3.978 -0.0445 -0.0216  0.0821
14225W        W30034   2.876   1.950  15.531  0.2556 -0.2843 -0.0086
14226W        W30035   1.160   9.470   0.067  0.2162  0.1834 -0.5419
14227W        W30036   1.595  13.138   4.795 -0.1072  0.1016  0.1861
14228W        W30037  11.505   7.121   4.718  0.1351  0.0827 -0.0707
14229W        W30038   8.131   8.066   5.366  0.0959 -0.1814  0.0528
14230W        W30039   5.679   5.491   5.400 -0.2070 -0.2078  0.0826
14231W        W30040   0.532   9.640   1.158  0.0130 -0.0882 -0.1954
14232W        W30041   3.756  12.248   3.244  0.2211  0.3601 -0.1877
14233W        W30042   8.297   1.077   4.009  0.0393 -0.0150 -0.2999
14234W        W30043  11.724   5.581  12.114 -0.2017  0.1539  0.0723
14235W        W30044   0.020   3.736  14.763  0.0343 -0.3492  0.1359
14236W        W30045   4.968  13.202  10.954  0.1441 -0.0650  0.0989
14237W        W30046  13.569   3.338  13.312 -0.1660  0.1720  0.0950
14238W        W30047   3.668   7.398   1.786  0.1259  0.2325  0.0733
14239W        W30048   9.753   8.531  15.153  0.1943  0.0347 -0.1923
14240W        W30049  13.571   0.191   0.067 -0.0871 -0.0001 -0.3088
14241W        W30050   2.298   0.332  15.694  0.0613 -0.0506  0.1844
14242W        W30051  15.549  14.803   4.514  0.0221  0.1114 -0.1024
14243W        W30052   5.713   4.083   0.669 -0.0741 -0.0991  0.1353
14244W        W30053   6.626   8.213   1.778 -0.1318 -0.2294 -0.0770
14245W        W30054   0.412  10.877  13.352  0.0254  0.0153 -0.0126
14246W        W30055   8.918   6.387   1.910 -0.0245 -0.2878  0.0051
14247W        W30056   5.355   8.637   4.881 -0.1941 -0.1788  0.1624
14248W        W30057   4.752  10.474  11.383  0.2685 -0.2193  0.1754
14249W        W30058   9.758   4.790  16.154 -0.1908  0.3453 -0.0272
14250W        W30059  18.056   4.371   3.028  0.2075 -0.2685  0.2382
14251W        W30060  18.109   2.706  12.866 -0.0622  0.2018  0.0525
14252W        W30061   7.707  11.305   3.883 -0.1323 -0.0766 -0.1626
14253W        W30062  15.124   8.924  11.187 -0.0439 -0.1806 -0.0252
14254W        W30063   5.040   7.162   2.468 -0.0397  0.1174 -0.0336
14255W        W30064   9.839   1.677  13.393  0.1643 -0.3317 -0.1086
14256W        W30065   8.855   1.292   1.933 -0.1811  0.1768 -0.0079
14257W        W30066   1.460   4.091   1.617 -0.1939  0.1135  0.2991
14258W        W30067   7.634  11.403   4.365  0.1780  0.3895 -0.2530
14259W        W30068  14.607   6.720   0.397 -0.2231 -0.0699  0.1183
14260W        W30069   2.531  15.695  12.383  0.1180  0.3254 -0.0437
14261W        W30070  11.188   4.472   2.353  0.1013  0.0526  0.0189
14262W        W30071  15.856   5.673  11.782 -0.2534 -0.2878 -0.1251
14263W        W30072   0.924  17.680  15.990 -0.2174 -0.0147 -0.2736
14264W        W30073   9.493   6.289   0.714  0.1179  0.0408 -0.1321
14265W        W30074   9.902  14.721  10.468  0.0250  0.0261  0.0594
14266W        W30075  13.502   5.599   0.557 -0.0051 -0.0837  0.0335
14267W        W30076   2.593   8.449   0.794 -0.0819  0.1018  0.1072
14268W        W30077   0.108   2.877   5.452 -0.2771  0.0210  0.0183
14269W        W30078   6.230   8.403  14.310 -0.3638 -0.0475  0.2918
14270W        W30079  11.967   9.095  10.599 -0.1943 -0.1511 -0.0160
14271W        W30080   3.599  12.486  13.937 -0.1489 -0.0701 -0.3713
14272W        W30081   0.113  12.387   3.272  0.2262 -0.3124  0.0791
14273W        W30082   3.606   7.300   2.594 -0.2107  0.2698  0.3151
14274W        W30083   3.802  11.687  11.664  0.0365  0.1293  0.3552
14275W        W30084   3.710  17.257  13.681  0.3175 -0.0727 -0.2126
14276W        W30085   1.517  11.962   0.379 -0.0154 -0.2925 -0.0400
14277W        W30086  15.637   5.977  15.120 -0.5765 -0.3217  0.2717
14278W        W30087   8.041   7.344  15.811 -0.3707  0.1114  0.1172
14279W        W30088   9.958  11.128  11.596  0.0470 -0.4711 -0.0361
14280W        W30089   4.599  12.742   2.752 -0.2974 -0.1169  0.2865
14281W        W30090  13.592  12.170  15.877 -0.1380 -0.0368 -0.3336
14282W        W30091   0.280   7.296  15.258 -0.0595  0.2422  0.2771
14283W        W30092   6.323  13.954   1.184 -0.1219  0.0427 -0.2412
14284W        W30093  11.144   6.353   2.102 -0.1782  0.1689  0.0344
14285W        W30094  12.336  12.360   4.444  0.0297  0.0382 -0.4352
14286W        W30095   7.915   5.171  10.923  0.2279  0.4722 -0.1210
14287W        W30096  15.835   0.733  13.913 -0.1839 -0.0773  0.0427
14288W        W30097  11.461   8.292   0.138 -0.0443 -0.1129  0.0152
14289W        W30098  16.306  12.311  11.870  0.1859 -0.2905 -0.1037
14290W        W30099  14.441  16.016  12.267  0.0285  0.0868 -0.1475
14291W        W30100   9.517   7.079  10.793 -0.1126 -0.0308 -0.4837
14292W        W30101   8.305   5.089   5.052 -0.2874  0.2111 -0.2661
14293W        W30102   1.933   2.305   4.988  0.0883  0.1326 -0.0722
14294W        W30103   9.851  16.452   2.276 -0.0223 -0.0442  0.1332
14295W        W30104  10.723   2.003  12.242  0.3369 -0.2035  0.0108
14296W        W30105  14.330   9.160  16.207  0.0378 -0.2615  0.1346
14297W        W30106  11.151   3.544   3.831  0.1455 -0.1303  0.1877
14298W        W30107   4.041   5.227  13.707  0.0283 -0.0999  0.1772
14299W        W30108   1.045  13.110   0.156 -0.0370  0.0018  0.0737
14300W        W30109   0.011   6.646   5.729  0.2245  0.1643  0.0249
14301W        W30110   2.992  15.308   3.533 -0.0802 -0.1197  0.0552
14302W        W30111   6.103   0.212  15.355  0.0272  0.1757  0.1546
14303W        W30112   0.045   1.933  13.692  0.0432  0.2075  0.0626
14304W        W30113  11.689  15.360  15.782 -0.3246  0.1298 -0.3742
14305W        W30114  11.446  14.821   5.159 -0.0471 -0.0404 -0.3107
14306W        W30115   6.061   0.535  14.921  0.0814  0.1659 -0.0039
14307W        W30116  10.611   0.840   0.877  0.0027 -0.0508 -0.2018
14308W        W30117   2.490   0.102  16.212  0.1582  0.0373  0.0918
14309W        W30118   2.698   9.811   0.122 -0.0226 -0.0983  0.3042
14310W        W30119  18.137   0.376   2.233  0.3025  0.0847  0.1206
14311W        W30120   1.851  12.782  11.603 -0.1762  0.0941 -0.2059
14312W        W30121  17.964   5.392  14.042 -0.1616  0.0843  0.2129
14313W        W30122   6.474   1.849   3.149  0.0064  0.0058  0.1411
14314W        W30123  15.614  16.288  13.491  0.4656 -0.1579 -0.2542
14315W        W30124   1.286   6.908  15.608 -0.0196 -0.2254 -0.0209
14316W        W30125  17.105   3.608   2.663  0.0738  0.0207  0.1665
14317W        W30126  16.361  13.624  15.610 -0.2119 -0.1267  0.0567
14318W        W30127  14.932  11.387   3.280 -0.0595 -0.1972  0.0289
14319W        W30128  10.445   7.372   1.460 -0.1911 -0.3443 -0.0359
14320W        W30129   1.495  14.593   2.683  0.2965 -0.1849 -0.0286
14321W        W30130  11.261  12.885  10.307  0.2117 -0.3106  0.0331
14322W        W30131   4.982   1.152  13.728 -0.4055  0.0115 -0.2472
14323W        W30132   9.166   9.574   0.197  0.3737  0.1070 -0.1107
14324W        W30133   8.406   6.517  11.554  0.2313 -0.0861  0.2442
14325W        W30134   7.173   2.361  10.653  0.0864  0.2225  0.0708
14326W        W30135  12.865  16.382  13.658 -0.0691 -0.0311  0.0121
14327W        W30136   7.894  15.769   4.184 -0.2756 -0.1327 -0.2331
14328W        W30137   1.424   7.311  15.946  0.0592 -0.2308  0.1014
14329W        W30138   6.546  15.171   3.292 -0.0390  0.1912  0.1303
14330W        W30139  15.051  15.228  13.913  0.0522  0.2379  0.2035
14331W        W30140   7.062   5.054   2.892  0.1092 -0.0211  0.1732
14332W        W30141   6.161  15.634   0.866  0.0752 -0.1097  0.0340
14333W        W30142  14.884  13.083  14.742  0.0541  0.0455 -0.0436
14334W        W30143   3.778  16.536  14.935  0.1319 -0.2195 -0.2250
14335W        W30144  16.684  10.366  13.287  0.2036 -0.2390 -0.0626
14336W        W30145  11.037   2.712   2.030  0.2831  0.2098 -0.1498
14337W        W30146   0.413   8.108   0.690 -0.2034 -0.1860  0.2242
14338W        W30147   7.136   9.124   4.948 -0.0665  0.1416 -0.4113
14339W        W30148  12.402  10.937   4.462  0.0464  0.2056  0.2925
14340W        W30149   5.243  16.544  15.324 -0.2833 -0.0162 -0.0723
14341W        W30150   1.717  14.479   4.222 -0.1293  0.0062  0.1552
14342W        W30151   1.917   2.330  12.878 -0.1439  0.0045 -0.0489
14343W        W30152  16.062  10.688  14.424  0.1809 -0.0374  0.1986
14344W        W30153   4.404   1.379   4.449 -0.2405  0.0993  0.2351
14345W        W30154   4.372   2.596   6.145  0.1446 -0.1060  0.1147
14346W        W30155  16.603  11.745   5.259 -0.0044  0.2293  0.0995
14347W        W30156  10.808   2.114   5.661 -0.0661 -0.0574  0.1681
14348W        W30157  12.275   6.835  14.577  0.1601  0.0162  0.0631
14349W        W30158  15.406  16.469   4.195 -0.1874  0.2214  0.3289
14350W        W30159  10.813  11.985   5.771 -0.1209 -0.0184 -0.2705
14351W        W30160   6.366   4.572  15.515  0.2690 -0.0282 -0.3115
14352W        W30161   4.303   6.943   5.671  0.1316  0.0512 -0.2373
14353W        W30162   8.014   6.931  11.648 -0.2042  0.2951 -0.0505
14354W        W30163  14.257  13.296   2.275 -0.1173 -0.1210  0.0991
14355W        W30164   9.244  10.451  11.178  0.3462 -0.3539  0.4213
14356W        W30165  12.293  17.079  12.410 -0.0532 -0.2172 -0.1208
14357W        W30166   0.768  12.209   4.975 -0.0282 -0.1901  0.0966
14358W        W30167   7.908   2.389   0.220  0.3232 -0.0102  0.1485
14359W        W30168  17.614  17.754   0.537  0.3373 -0.4649  0.1420
14360W        W30169   5.714   5.532  12.057  0.0938  0.2201 -0.1840
14361W        W30170   6.581  10.053  14.960  0.3803  0.1196  0.1131
14362W        W30171   0.119  13.213  13.312  0.3438  0.0901 -0.1182
14363W        W30172   0.259   2.786   6.325  0.0073 -0.4455 -0.0174
14364W        W30173  12.860   9.157  10.541  0.1495  0.1250  0.1615
14365W        W30174  15.731   1.371   4.056  0.0425  0.2030 -0.2080
14366W        W30175  13.326   0.231   5.571 -0.0921  0.1947  0.0801
14367W        W30176  13.229   8.806  11.297 -0.0690 -0.1354  0.2713
14368W        W30177   5.683  14.845  14.088  0.0143 -0.1869  0.0234
14369W        W30178  17.176  16.513  13.108  0.1582 -0.0294 -0.2490
14370W        W30179  16.170   3.277  15.406 -0.0063 -0.0081  0.1953
14371W        W30180   1.733   1.261   5.003 -0.0307 -0.1251  0.0490
14372W        W30181  10.498  11.792   0.872 -0.1268 -0.1634 -0.1797
14373W        W30182   3.847  17.798   0.446 -0.1180 -0.0575 -0.0879
14374W        W30183   1.483   3.936  14.322 -0.1989 -0.1280 -0.0534
14375W        W30184   1.250  13.004  12.774 -0.2210  0.2547 -0.2350
14376W        W30185   3.162   3.955   5.062 -0.2076 -0.4113  0.2329
14377W        W30186   6.002  11.901  16.044 -0.1289  0.3104 -0.3518
14378W        W30187   6.607   5.094   3.262 -0.2841  0.0267 -0.0928
14379W        W30188  11.600   2.573  14.707  0.1796  0.1605 -0.2756
14380W        W30189   2.267   3.323  14.236  0.1154 -0.0704  0.3694
14381W        W30190  13.090   3.953  14.346  0.0864  0.2473  0.0821
14382W        W30191   4.953  10.514   3.514 -0.2191 -0.0874  0.5093
14383W        W30192  12.662   9.698   1.563 -0.3320  0.0582  0.0966
14384W        W30193   7.587   5.400   0.088  0.0647 -0.1816  0.2575
14385W        W30194  10.441   8.870   0.315  0.1803 -0.1428 -0.1858
14386W        W30195  16.295   1.637   0.784  0.1136  0.1315 -0.0825
14387W        W30196  13.295   2.023  12.431  0.1683  0.0336  0.0109
14388W        W30197  14.966  11.531  14.330  0.2186  0.0480 -0.0874
14389W        W30198  11.037  14.817   1.339  0.0892 -0.1845 -0.1204
14390W        W30199  12.746   4.896   4.047 -0.0073  0.1559  0.2234
14391W        W30200   0.410  14.291   3.848 -0.0510 -0.1753 -0.0067
14392W        W30201   8.874  13.251   4.635  0.0415 -0.2373 -0.2896
14393W        W30202  17.435   7.449  15.882 -0.1902 -0.2208  0.0492
14394W        W30203  16.013  10.197   2.187  0.1599 -0.0120  0.2731
14395W        W30204  14.195   0.852  11.433 -0.1174 -0.0156 -0.0238
14396W        W30205   4.743   1.873  12.367  0.2511  0.0528 -0.1030
14397W        W30206   2.061  10.274   1.750  0.0694 -0.2263 -0.0548
14398W        W30207   8.892  15.357   1.546  0.1833  0.1773 -0.2604
14399W        W30208   0.969   7.816   4.973 -0.3703  0.1757 -0.0718
14400W        W30209   9.200   3.838   3.188 -0.2893  0.0323  0.0080
14401W        W30210   2.645   6.937   2.506  0.2365 -0.1200  0.1059
14402W        W30211  15.726  12.663   1.867  0.3115 -0.0181  0.0088
14403W        W30212   7.532   7.186  10.960  0.0869 -0.0827  0.0855
14404W        W30213  13.149   0.515   2.775  0.0928 -0.0410 -0.0425
14405W        W30214   1.443  15.704  14.217 -0.1684  0.0996 -0.0223
14406W        W30215  10.679  17.593  14.197 -0.0507 -0.0495 -0.2168
14407W        W30216   5.626   5.098   2.184 -0.0739 -0.0611 -0.0029
14408W        W30217  15.495  16.681   0.541  0.1896 -0.3106 -0.1627
14409W        W30218  17.714  16.106   4.549 -0.0934 -0.0982 -0.1644
14410W        W30219  15.901   5.475  15.967 -0.1200  0.1789 -0.2359
14411W        W30220   6.548   8.391   0.686  0.1041 -0.0580  0.0008
14412W        W30221   3.938  13.266  13.994 -0.1344 -0.1702 -0.0966
14413W        W30222  17.646  11.640  14.499 -0.0808 -0.2711 -0.0717
14414W        W30223   0.233  10.764  15.849 -0.1260  0.0889  0.1291
14415W        W30224  11.721  17.767   0.201  0.1458 -0.0537  0.1586
14416W        W30225   6.380  10.504  13.265  0.3082 -0.0278 -0.0264
14417W        W30226  10.467   1.681   2.842  0.0818 -0.1444 -0.0227
14418W        W30227   6.356   0.673   1.714  0.1415 -0.4318  0.0884
14419W        W30228  16.391   2.553   6.079  0.0903 -0.0149  0.2019
14420W        W30229  16.890   6.447   4.973 -0.2608  0.0783 -0.2103
14421W        W30230  17.267   8.890  11.297 -0.2782  0.3056  0.1516
14422W        W30231  10.391  18.093  11.754  0.1656  0.1885 -0.2929
14423W        W30232   0.059   7.681   4.189 -0.0324 -0.3750 -0.2109
14424W        W30233  10.452   1.068  15.876  0.1445 -0.0144 -0.1110
14425W        W30234  17.674   3.884  10.857 -0.1720 -0.0785  0.1399
14426W        W30235   5.366  13.039  12.733  0.2412  0.0733 -0.0087
14427W        W30236   8.695  12.806  12.140 -0.0577 -0.3959  0.0722
14428W        W30237  11.465  10.304  13.638 -0.2688  0.1205 -0.2401
14429W        W30238   0.758  13.265   1.454 -0.0654 -0.4066 -0.0652
14430W        W30239  13.655   0.991  13.611 -0.0458  0.2178 -0.0134
14431W        W30240  16.289  18.071  14.215  0.0098 -0.1811 -0.3553
14432W        W30241  17.947  14.818  13.342  0.0728 -0.0997 -0.0596
14433W        W30242  13.319  15.965   3.334 -0.0257  0.1112  0.0340
14434W        W30243   3.008   4.625  14.914  0.3346  0.0539  0.0244
14435W        W30244   6.650  15.279   3.814 -0.3218 -0.1300 -0.0654
14436W        W30245  15.088  11.199  11.801  0.2807 -0.0303 -0.0443
14437W        W30246   7.571   6.744  11.749  0.0077  0.0581 -0.0879
14438W        W30247  12.214   9.440   2.091 -0.0528  0.1733  0.0861
14439W        W30248   2.250   3.818  12.094  0.0903  0.4458 -0.1055
14440W        W30249  11.780   9.937   4.182 -0.1340  0.1628 -0.0412
14441W        W30250  13.724  15.232   1.643  0.1412  0.3070  0.0006
14442W        W30251   6.582   4.287   4.315 -0.1047  0.0403 -0.2050
14443W        W30252   5.856  17.103  12.815 -0.0294  0.1035 -0.4161
14444W        W30253   3.833  16.085   2.996  0.2456  0.2927  0.0235
14445W        W30254   7.545  16.881   1.649  0.0711  0.0380 -0.0694
14446W        W30255   3.257   7.861   5.512  0.0153  0.3664  0.3221
14447W        W30256  11.031   8.503  13.791  0.2006  0.1687 -0.0372
14448W        W30257  17.687  14.174   2.390 -0.1758  0.0823  0.2110
14449W        W30258   0.609  16.198  14.728 -0.0660 -0.3156 -0.2430
14450W        W30259  10.040  12.852  14.784  0.1639  0.1795 -0.3328
14451W        W30260   7.341  12.823   1.833 -0.1955 -0.0214 -0.1441
14452W        W30261   0.227   9.900   0.474  0.0876 -0.1238 -0.0122
14453W        W30262   1.644  16.400   0.661 -0.1801  0.0873  0.0919
14454W        W30263   4.678   8.489  14.327 -0.6108  0.2190  0.1322
14455W        W30264   0.333  11.202   0.776 -0.1269 -0.1678  0.2390
14456W        W30265   3.714   0.086   3.378 -0.2979  0.0894 -0.0080
14457W        W30266  11.781  10.689   9.466  0.4221 -0.1939  0.0709
14458W        W30267   3.865   7.595  15.089 -0.0362  0.0968 -0.3309
14459W        W30268   7.380   1.090   4.334 -0.1700  0.1661 -0.1546
14460W        W30269  10.125  17.059  11.975 -0.0573 -0.1051 -0.0284
14461W        W30270  13.505   5.343   1.659 -0.0165  0.1362  0.0675
14462W        W30271  13.189  14.004  13.832  0.3448  0.0103 -0.0402
14463W        W30272   4.433   4.625   5.826  0.0313  0.0376  0.1934
14464W        W30273   9.814  14.491   0.924 -0.1797 -0.2046 -0.2608
14465W        W30274  15.695   7.263   2.847 -0.1198  0.2930  0.1451
14466W        W30275  14.338  11.510  15.942  0.0576  0.1146 -0.1703
14467W        W30276  10.477   0.726   0.342 -0.3228  0.2399 -0.3115
14468W        W30277  16.718  16.536   1.440 -0.1301 -0.0141 -0.1369
14469W        W30278  15.640   6.429  15.464  0.0822 -0.1729 -0.2929
14470W        W30279   9.413  18.145  11.886 -0.2606  0.4309  0.3038
14471W        W30280  12.435   4.003   2.361  0.0409  0.2590  0.1207
14472W        W30281  13.420   8.958  12.860 -0.1882 -0.0603  0.1081
14473W        W30282   1.883   8.034  16.345 -0.1644  0.3720 -0.0110
14474W        W30283  17.686  14.413   4.532  0.0094 -0.0340  0.0564
14475W        W30284   9.300   2.121  10.757 -0.0733 -0.1099 -0.1112
14476W        W30285   4.071  15.871   5.500 -0.0791  0.0995  0.0845
14477W        W30286  13.862   4.144  12.079 -0.0318  0.0558 -0.1433
14478W        W30287   6.836   1.115   2.043 -0.0731  0.1999 -0.1918
14479W        W30288  10.317   0.618  12.428 -0.1262 -0.2719  0.0566
14480W        W30289  16.201  17.116   5.307 -0.1224 -0.1192  0.2143
14481W        W30290   4.451  14.965  14.453  0.3706 -0.0815 -0.4640
14482W        W30291   8.721  13.648  15.979 -0.0146  0.1627  0.0061
14483W        W30292  15.750   8.181   2.302  0.1221 -0.2589 -0.1397
14484W        W30293  10.285  16.076  15.240  0.2036  0.0567 -0.2354
14485W        W30294  11.263   9.002  14.477  0.1265 -0.1577  0.0097
14486W        W30295  15.118   8.940  11.665  0.2909 -0.0717  0.4895
14487W        W30296  10.607   8.125  15.896 -0.4017  0.1352  0.0567
14488W        W30297  14.448   1.488  16.092 -0.1634 -0.1272  0.0241
14489W        W30298   0.815   8.433   3.247 -0.1187  0.2520 -0.0678
14490W        W30299   1.768  17.646  11.179 -0.2531 -0.2104  0.0480
14491W        W30300  13.150   2.306   2.881  0.3026  0.0322  0.2713
14492W        W30301   4.758   6.816   5.561 -0.0755  0.2118  0.0324
14493W        W30302  16.844  14.721  12.149 -0.2068  0.0131 -0.3863
14494W        W30303  11.899   8.548   4.042  0.1247 -0.2547  0.1065
14495W        W30304   2.713   7.755  14.573  0.1195  0.2426 -0.0042
14496W        W30305   6.244   4.184  12.222 -0.1144 -0.0187  0.1707
14497W        W30306  11.129  12.330   3.969  0.4819  0.2250 -0.0526
14498W        W30307   9.359   7.864   3.991  0.0459  0.1244  0.2537
14499W        W30308   7.000  15.622  15.629  0.4891 -0.2259 -0.0265
14500W        W30309  13.409  17.406  16.137  0.2537  0.0390 -0.0727
14501W        W30310  14.796  10.632   3.966 -0.2995 -0.2535 -0.3158
14502W        W30311   2.971   7.125   3.499 -0.0014 -0.1419  0.0067
14503W        W30312   8.430   9.640   1.225  0.2376  0.4103 -0.0347
14504W        W30313   0.461   1.060   2.828  0.1060  0.1683 -0.0127
14505W        W30314  13.451   1.728  14.291 -0.3302  0.0476  0.1974
14506W        W30315  11.770  11.352  10.695  0.1151 -0.0510 -0.0707
14507W        W30316   3.545  16.663  12.005  0.1150  0.0287 -0.0020
14508W        W30317  16.052   5.102   4.064 -0.1047  0.0599  0.1427
14509W        W30318   8.158  13.193   0.520  0.1642  0.1671 -0.2499
14510W        W30319   9.797   0.503   4.467 -0.1288 -0.0994 -0.1983
14511W        W30320   0.954  14.293   5.255  0.1681  0.0794  0.1320
14512W        W30321  13.757   2.751   0.300  0.0745  0.0450 -0.1010
14513W        W30322   4.640   3.236   0.093  0.0457  0.0922  0.3085
14514W        W30323  17.256   9.121  12.686  0.2337 -0.2939 -0.0564
14515W        W30324  17.343  15.371  12.074  0.0432 -0.1549 -0.1702
14516W        W30325  10.963   7.629   4.964  0.1229 -0.3008 -0.1322
14517W        W30326  16.035  11.149  13.112  0.2315 -0.4154  0.0108
14518W        W30327  13.719  12.861   4.111  0.2545  0.2190 -0.0984
14519W        W30328   9.342  10.264   0.572 -0.0673 -0.2878 -0.0421
14520W        W30329  17.351  17.569  14.517  0.1590 -0.1736 -0.1635
14521W        W30330  14.268   6.809   4.527 -0.1358 -0.1006  0.0129
14522W        W30331   8.638  13.110  14.781  0.1616  0.1345 -0.1799
14523W        W30332  13.912   0.245  13.276 -0.0849 -0.3930  0.1468
14524W        W30333   4.657  16.836   3.679  0.0299 -0.4608  0.0916
14525W        W30334   6.667   9.145  13.506  0.0293 -0.0295 -0.0813
14526W        W30335   3.261   7.527   5.140  0.1008 -0.0571 -0.0462
14527W        W30336   5.117   3.288  14.093 -0.0227 -0.1801 -0.0938
14528W        W30337  12.039   6.514  10.818 -0.0290 -0.3488  0.0418
14529W        W30338   3.313  11.408   2.107 -0.3277 -0.0891  0.0307
14530W        W30339   5.603  15.168   1.463  0.0728  0.0394  0.0458
14531W        W30340   7.819   9.540  11.169  0.1293 -0.0095  0.1203
14532W        W30341  13.926  17.015   2.974 -0.2542 -0.2885  0.0406
14533W        W30342   1.050  14.957  11.425  0.0367  0.3717 -0.4079
14534W        W30343  13.365   0.140   2.036 -0.1695  0.0681 -0.2541
14535W        W30344   0.533   8.838   0.863  0.1851  0.2161  0.0842
14536W        W30345  13.631   4.218  11.659 -0.1703  0.5419 -0.2032
14537W        W30346   2.508  10.563  12.799 -0.0003 -0.3099  0.0529
14538W        W30347  11.851  11.362  12.743  0.4464 -0.2025 -0.2061
14539W        W30348  14.897   1.919   3.091 -0.1859  0.1396 -0.1879
14540W        W30349   4.446  10.569   1.413 -0.0875  0.0473  0.3198
14541W        W30350   1.835   2.546   4.596 -0.2998  0.2439  0.0022
14542W        W30351   6.354   2.339   4.622  0.2938 -0.0382 -0.1304
14543W        W30352  12.566  17.320  14.340  0.2921  0.0888  0.0755
14544W        W30353  16.872   6.621  15.196 -0.0075  0.2370  0.0901
14545W        W30354  17.320  11.411   3.774  0.1268 -0.0289 -0.2293
14546W        W30355   3.131  12.914  10.245  0.0059  0.1822  0.1067
14547W        W30356  12.506   7.684   0.560 -0.2324  0.1685  0.1914
14548W        W30357  10.268   8.181   4.913 -0.1937 -0.0149  0.2732
14549W        W30358   7.722  12.172  12.355 -0.0870  0.0435 -0.0139
14550W        W30359   5.790  13.779  13.264  0.0247 -0.1520  0.2294
14551W        W30360  11.260   5.207   3.958  0.3734  0.1375  0.0219
14552W        W30361  17.129  15.478   5.101 -0.1944  0.0028 -0.0535
14553W        W30362   2.228   3.917  15.044 -0.1542  0.0164 -0.1501
14554W        W30363   9.602   6.830  11.202 -0.1606  0.0880 -0.1779
14555W        W30364   2.884  16.255  13.139  0.2134 -0.0099 -0.0080
14556W        W30365  16.511   6.379  11.662 -0.0640  0.1997  0.2357
14557W        W30366   8.922   6.270  14.047 -0.0408  0.2632 -0.1138
14558W        W30367   6.831   7.618  14.043  0.0605 -0.2029 -0.2171
14559W        W30368   8.744   6.011   4.406 -0.2416 -0.1438  0.0618
14560W        W30369   7.325  16.672   5.504 -0.2903  0.3479 -0.5223
14561W        W30370   0.039   1.009  13.318 -0.0551  0.1188 -0.1827
14562W        W30371  17.957  13.244   0.982  0.0439 -0.0578 -0.2073
14563W        W30372  11.280   0.126  14.217  0.1180 -0.2271  0.0844
14564W        W30373  16.478   9.011  13.442  0.1246 -0.3268  0.1620
14565W        W30374  16.611   7.297  15.723 -0.1810 -0.0691 -0.5638
14566W        W30375   2.696   8.871  13.218  0.0563  0.4376 -0.2088
14567W        W30376   7.201  17.032  12.445  0.0656 -0.0562  0.0225
14568W        W30377  11.577  12.606  11.222 -0.2564  0.2098 -0.1422
14569W        W30378   8.832   8.674  15.179 -0.2672 -0.0531  0.1094
14570W        W30379   1.784  17.539   1.764  0.0784 -0.0922 -0.0381
14571W        W30380  14.151   8.417   5.113  0.1719  0.0483 -0.0198
14572W        W30381   6.555  16.055   0.917 -0.1060  0.1676  0.0582
14573W        W30382   3.223   8.407   5.153  0.0241 -0.1553 -0.2678
14574W        W30383   3.797   3.609   4.373  0.0389 -0.0084 -0.1368
14575W        W30384   3.201   7.086   4.788  0.3354 -0.1211  0.1084
14576W        W30385   6.689  15.033  14.307  0.2320  0.0890  0.0076
14577W        W30386   6.102   5.200   2.980 -0.0883 -0.5195 -0.2044
14578W        W30387  14.356  17.978   2.337  0.0954  0.1757  0.2307
14579W        W30388   0.135   5.547   4.180  0.2174  0.1341  0.0932
14580W        W30389   8.291   3.098   4.309 -0.1381 -0.0283  0.3908
14581W        W30390   5.291   0.858   4.319 -0.0754 -0.1667 -0.0825
14582W        W30391   0.299  16.548   3.266 -0.0608 -0.1042 -0.1450
14583W        W30392   6.742   6.077  13.337  0.0395  0.0909 -0.2517
14584W        W30393  14.787  11.466   1.656  0.1264 -0.2463  0.1021
14585W        W30394   4.842   4.435   5.496  0.2406 -0.0305  0.1419
14586W        W30395  10.832   3.616   4.792 -0.3657  0.0675  0.0112
14587W        W30396   4.799  14.713  14.788  0.0249 -0.0122  0.1564
14588W        W30397  12.705  17.882   3.682 -0.1821 -0.1443  0.2573
14589W        W30398   8.888   1.174  13.139 -0.2328 -0.2417 -0.3607
14590W        W30399   0.649  15.217   5.966 -0.0264 -0.2938 -0.0747
14591W        W30400  14.525  16.166  12.767  0.1435  0.1597 -0.0063
14592W        W30401   8.139   0.236  10.349 -0.0909  0.1086 -0.0774
14593W        W30402  11.518  13.662   2.037 -0.0496 -0.1035 -0.0051
14594W        W30403  17.067  12.924  10.531  0.0428 -0.1660  0.0227
14595W        W30404  10.021  17.426  15.832 -0.0853 -0.3283 -0.1462
14596W        W30405   2.579  11.823   5.400  0.1175  0.0061  0.0710
14597W        W30406   0.698  13.048   0.541 -0.1393  0.0287  0.1751
14598W        W30407   7.757  16.914   5.571 -0.2683  0.2648 -0.2210
14599W        W30408  15.258   3.802   4.731 -0.1344  0.1271  0.1421
14600W        W30409  16.024  16.573  16.254 -0.0838  0.0910 -0.0873
14601W        W30410   0.633   2.010   4.867 -0.2855  0.0757  0.2681
14602W        W30411   7.579   4.891   2.335  0.2984 -0.0213  0.0828
14603W        W30412   7.070  13.568   0.190 -0.1981 -0.2381 -0.1632
14604W        W30413   8.666   1.125   5.202 -0.2237  0.0536 -0.0462
14605W        W30414  13.577  17.925  12.071 -0.3084 -0.2968  0.2083
14606W        W30415  17.035   8.804   1.694  0.4690  0.2971  0.5443
14607W        W30416  12.293   9.551  15.797  0.0202 -0.0483 -0.1744
14608W        W30417   1.592  15.304   5.333  0.2313 -0.0521 -0.1136
14609W        W30418   3.154   8.010  12.665  0.0190 -0.1344 -0.1597
14610W        W30419   3.604  16.445   3.714  0.0174 -0.3546  0.1247
14611W        W30420  13.527   3.786  14.526  0.2975  0.2860 -0.0102
14612W        W30421   3.549   6.521   5.955 -0.2396 -0.2769 -0.0672
14613W        W30422  10.949   3.586   0.908  0.1816 -0.0001  0.2491
14614W        W30423   7.932  12.358   1.062 -0.0981 -0.1019 -0.1126
14615W        W30424   2.228  10.062   5.039 -0.0834 -0.2631 -0.0147
14616W        W30425   3.891  10.013   2.071  0.1733  0.1509  0.2173
14617W        W30426  15.277  12.971   1.694  0.1346  0.0595  0.0283
14618W        W30427  16.935  12.777  12.989  0.1097  0.2836 -0.0215
14619W        W30428  17.915   5.030   0.672  0.0020 -0.1734 -0.1230
14620W        W30429   3.653  11.720   3.332 -0.0550 -0.2687 -0.0130
14621W        W30430   8.893  11.117  10.599  0.1730  0.3052 -0.0046
14622W        W30431  15.170  14.811  13.100  0.1425  0.2129  0.0843
14623W        W30432  13.710   7.077   0.567  0.0517  0.0722  0.0985
14624W        W30433  13.013   9.125   0.522  0.1293 -0.0481  0.0181
14625W        W30434  17.991   6.378   3.514 -0.1048  0.0214  0.1868
14626W        W30435  13.891   4.211   5.203  0.0431 -0.0232  0.1495
14627W        W30436  10.153  16.926   1.973  0.0867  0.1875  0.0199
14628W        W30437   0.733  11.105   1.094 -0.0005 -0.0126 -0.0707
14629W        W30438  17.035   9.721  11.764  0.0900  0.0126  0.2294
14630W        W30439  11.913   8.440  15.814  0.0199  0.3139 -0.0527
14631W        W30440   2.565  12.412   4.635  0.1234  0.0754 -0.0884
14632W        W30441   2.292  12.292   1.955 -0.3401 -0.0039 -0.0570
14633W        W30442  11.492   0.711  13.251 -0.0255 -0.3538  0.2140
14634W        W30443   2.666   6.976   1.596  0.1542  0.0695  0.1679
14635W        W30444   3.095   4.754  13.337  0.1107  0.1381  0.1607
14636W        W30445  13.671   7.383  12.099 -0.2605  0.2511 -0.0997
14637W        W30446   1.917  17.644  15.856 -0.2612  0.1332 -0.1797
14638W        W30447  13.929   3.906   2.908 -0.3580  0.1271  0.0749
14639W        W30448  15.394  12.298   3.897  0.3008  0.1024  0.2980
14640W        W30449   7.238  18.061  16.235 -0.1297  0.1753  0.1604
14641W        W30450  16.792  14.333   4.188 -0.3044 -0.0372  0.0174
14642W        W30451  15.410   2.010   3.140 -0.0118  0.2439 -0.4139
14643W        W30452   3.630  10.704  15.333  0.1932  0.2750  0.0697
14644W        W30453   7.475  17.210  13.424  0.0998 -0.4700 -0.0689
14645W        W30454   7.910   9.789   1.171 -0.2495 -0.3144  0.1914
14646W        W30455  14.198   4.435  11.017 -0.0754 -0.0767 -0.0266
14647W        W30456   3.465   5.094  13.890  0.1166  0.0581  0.1496
14648W        W30457   9.673   4.811   1.625  0.1260 -0.3259 -0.2971
14649W        W30458   4.942  14.626   2.597 -0.1108  0.0950 -0.1717
14650W        W30459   7.810   2.310   2.217  0.0584  0.1301  0.1836
14651W        W30460   9.708  12.686  15.117  0.1008 -0.0043 -0.1250
14652W        W30461   9.913  10.770  13.804  0.1002  0.0993  0.0802
14653W        W30462   0.986   7.109   4.372  0.0526  0.2356 -0.1625
14654W        W30463   6.993  14.794  15.901  0.4293  0.0142 -0.2246
14655W        W30464   6.729  12.964   1.070  0.1235  0.0366 -0.1194
14656W        W30465   6.386  17.608   4.457 -0.2967  0.1205  0.2126
14657W        W30466  12.791  16.394   5.876 -0.0091  0.1301  0.2965
14658W        W30467   6.047   7.859  15.296 -0.3149 -0.1868 -0.1449
14659W        W30468   1.900   6.273   3.061  0.1844  0.0636  0.2042
14660W        W30469   1.417  12.093   4.170 -0.0126 -0.0814 -0.0758
14661W        W30470   9.248   4.702  10.860  0.3180 -0.1580 -0.0290
14662W        W30471   3.479   2.176  16.256  0.1343  0.1433  0.0396
14663W        W30472  14.754  12.105  12.363  0.1750  0.0266 -0.2864
14664W        W30473   8.335  15.136   0.099 -0.1874 -0.1703  0.1950
14665W        W30474  15.454  10.985   0.605  0.0261  0.1165 -0.0356
14666W        W30475   8.423   9.964   2.501  0.2745  0.0719 -0.1685
14667W        W30476  15.142  17.890  13.315 -0.0967 -0.5571 -0.0575
14668W        W30477   2.287   5.466   3.339  0.0316  0.2701 -0.0925
14669W        W30478   2.624  10.789   3.737  0.3120 -0.1162 -0.0285
14670W        W30479  11.025  16.270   3.647 -0.2004 -0.1472  0.2914
14671W        W30480   2.454  10.475   3.238  0.2446  0.0749 -0.1330
14672W        W30481  16.869   6.330  13.718  0.1048  0.1834 -0.2844
14673W        W30482  15.781   6.193   5.169  0.1838  0.2914  0.2620
14674W        W30483  16.951  13.502  14.272  0.2464  0.1060  0.2343
14675W        W30484   3.805  13.558  14.423 -0.1503  0.0043 -0.2259
14676W        W30485   1.494  17.401  12.170 -0.3176 -0.1576 -0.2281
14677W        W30486  10.179   6.097   2.385 -0.0083  0.1942  0.0796
14678W        W30487  12.771   9.044  14.468  0.1219 -0.1056 -0.0138
14679W        W30488   4.273   5.248   0.032  0.4220  0.1079  0.0134
14680W        W30489  10.703   9.194   3.265 -0.1345 -0.0099 -0.1976
14681W        W30490  12.718   2.467   2.748 -0.1322 -0.0390  0.0467
14682W        W30491  17.480  12.189  12.599 -0.0127  0.2744 -0.5153
14683W        W30492  17.748   3.027   0.110  0.1345 -0.0672  0.1915
14684W        W30493  16.350   5.069   0.843 -0.0498  0.0088  0.2280
14685W        W30494  11.314  13.418  11.718 -0.3563 -0.0020 -0.1177
14686W        W30495  10.108  17.785  15.148 -0.0714 -0.1677 -0.1269
14687W        W30496   4.485   5.858   5.702  0.0245  0.3507  0.0118
14688W        W30497  16.245   9.497  13.344 -0.3108  0.3949  0.0475
14689W        W30498   0.138   3.784  11.319  0.0452  0.3084  0.0237
14690W        W30499  13.738  16.430   0.678  0.0803 -0.0619  0.0853
14691W        W30500  12.800   6.530  16.158  0.1249  0.1560 -0.1666
14692W        W30501  12.787  12.178  15.540  0.0456  0.3495  0.0287
14693W        W30502   7.251  11.122  15.383  0.0268  0.2268  0.0746
14694W        W30503   0.653   8.673   1.478 -0.0361  0.0417 -0.0293
14695W        W30504   5.377  14.594  12.695 -0.0078 -0.2817 -0.0990
14696W        W30505   5.251   5.653  16.107  0.0400 -0.2087  0.4493
14697W        W30506  11.993   6.127   5.433 -0.0159 -0.0984 -0.0880
14698W        W30507   8.188   9.068   3.532 -0.1138  0.1319  0.2253
14699W        W30508   7.641   1.107   4.897  0.0532 -0.0014  0.2241
14700W        W30509   3.396  16.993  14.065 -0.2327  0.0103  0.0084
14701W        W30510   3.172  14.390  12.797 -0.2327  0.0577  0.1543
14702W        W30511   9.553  16.144  14.495  0.2036 -0.1700  0.1640
14703W        W30512   8.901  14.258   5.657 -0.3284 -0.2854  0.2118
14704W        W30513   6.743  12.927   4.893 -0.0473 -0.0675  0.2626
14705W        W30514   6.263   9.880   1.108 -0.0988 -0.1234 -0.1087
14706W        W30515   4.872   3.638   3.580  0.2076  0.0308  0.2140
14707W        W30516  16.964   3.716  14.325 -0.1548 -0.1890  0.1400
14708W        W30517  14.285   8.819   2.735  0.0541  0.0468 -0.0709
14709W        W30518  16.942   5.418   3.151 -0.0959  0.1663  0.0393
14710W        W30519  16.946   1.291  14.948  0.4040  0.1953  0.1235
14711W        W30520   0.654   2.948   5.490  0.4410  0.0545 -0.4161
14712W        W30521   8.397  13.193  11.740  0.2661 -0.0882 -0.2069
14713W        W30522   0.283   8.703   1.865 -0.0179  0.2535  0.1455
14714W        W30523   6.684   3.973  12.290 -0.0550  0.1313  0.0294
14715W        W30524  17.955   5.486  14.988  0.3420  0.1215 -0.2467
14716W        W30525  10.140   5.907   1.925 -0.0600  0.1538 -0.0375
14717W        W30526  10.145   2.803   3.330  0.0903 -0.1061  0.1495
14718W        W30527   4.099  14.788   1.959 -0.4316  0.0386  0.0549
14719W        W30528   3.896   2.460   3.085 -0.0506  0.0569 -0.3820
14720W        W30529   7.855   6.813   3.864 -0.0066 -0.2412 -0.0372
14721W        W30530   2.577   4.256  14.800  0.0879  0.2527 -0.1773
14722W        W30531  13.746  15.549  12.591  0.3783 -0.1433 -0.2514
14723W        W30532  12.065   6.381  14.475  0.2289  0.1294  0.1019
14724W        W30533   2.467   9.772   1.421  0.0821  0.0573  0.0507
14725W        W30534  10.711  12.103  10.837 -0.1881  0.2121  0.2075
14726W        W30535   3.760  12.762   6.052 -0.0306  0.2610  0.1678
14727W        W30536  17.879  15.959  16.344 -0.0350 -0.0175  0.1488
14728W        W30537   5.469  16.076   3.994 -0.1005  0.1144 -0.1222
14729W        W30538   1.740   3.086   0.333  0.2357  0.1175 -0.0802
14730W        W30539  10.118   2.155  13.072  0.2010  0.2829  0.1294
14731W        W30540   6.154  17.439  15.972 -0.7184 -0.1140 -0.1706
14732W        W30541  10.876  10.531   2.565 -0.1188  0.0760 -0.2193
14733W        W30542   9.535  12.191   3.962  0.0818  0.2665  0.2625
14734W        W30543  11.494   9.271  11.286  0.1647  0.1965  0.1117
14735W        W30544   6.353   0.742   3.292 -0.1091 -0.1466 -0.1057
14736W        W30545   6.369  16.814   4.008 -0.1521 -0.2229 -0.2905
14737W        W30546   0.805  14.666   1.006  0.1745 -0.1078  0.0955
14738W        W30547   0.223   1.357   3.127  0.0575  0.0134 -0.1493
14739W        W30548  16.287  10.411  13.696  0.3022  0.3687 -0.1381
14740W        W30549   5.829  11.461  15.842  0.3310  0.3911  0.3665
14741W        W30550   3.997   8.614   1.101 -0.1079  0.2771  0.0073
14742W        W30551  11.320  14.895   5.639 -0.1149 -0.1331 -0.1433
14743W        W30552   7.341  15.038   0.861  0.1160  0.1444  0.1753
14744W        W30553  11.655   0.178  11.875 -0.1037 -0.0996 -0.3948
14745W        W30554   4.049   7.137   2.263  0.0151 -0.0898 -0.0761
14746W        W30555   3.900   8.628  14.787  0.2620  0.2374 -0.1992
14747W        W30556   8.660  10.776   4.663 -0.1759 -0.0696  0.0765
14748W        W30557   0.181   4.276   1.274 -0.0712 -0.1177 -0.1457
14749W        W30558   1.858   9.646   3.361  0.0685 -0.4047 -0.0687
14750W        W30559  14.407  12.424   0.700  0.0166 -0.1455 -0.0137
14751W        W30560   6.563  10.368   0.813  0.1706  0.0322 -0.0320
14752W        W30561  14.464   2.776   0.690 -0.2127  0.1227  0.0642
14753W        W30562   5.882  16.377  13.903  0.0682 -0.0903  0.1757
14754W        W30563  13.339   2.556  12.200  0.0999 -0.4565  0.1115
14755W        W30564   1.568   6.122   5.817 -0.3363 -0.0584 -0.0833
14756W        W30565   7.779  14.454   3.889 -0.2347  0.2641  0.3678
14757W        W30566   3.401   3.667  15.526 -0.2903 -0.0107  0.1744
14758W        W30567   2.902   5.162   0.858  0.0210 -0.2031  0.1368
14759W        W30568  13.621  15.374  14.431 -0.3551  0.0063 -0.0437
14760W        W30569  10.733  14.445   4.006 -0.1582  0.2243  0.1698
14761W        W30570   4.372   7.294   3.654 -0.1322  0.0767 -0.0711
14762W        W30571  12.472  17.475  11.980  0.0892 -0.0052  0.0113
14763W        W30572   1.755   1.513  12.360 -0.0866  0.0027 -0.0649
14764W        W30573   3.798   0.839  14.210 -0.1884  0.0569  0.5506
14765W        W30574   8.186   4.642   0.101  0.1289 -0.1256 -0.0675
14766W        W30575   5.790   7.021   5.297 -0.1167 -0.0560  0.0931
14767W        W30576   8.343   8.932  13.895  0.1128  0.0435  0.0793
14768W        W30577   7.442   4.052  14.487  0.1355  0.0910  0.1348
14769W        W30578   8.471  12.874   2.344 -0.1485  0.3305  0.0048
14770W        W30579   5.892  11.660  11.550  0.1627 -0.0310  0.1523
14771W        W30580   7.397   1.230  13.706 -0.0950 -0.1997 -0.1859
14772W        W30581   7.768   5.870   0.889 -0.5020 -0.1902 -0.1461
14773W        W30582  14.958  16.740  12.101 -0.0655  0.2179 -0.1919
14774W        W30583  11.344   8.215  14.042  0.2775  0.1882 -0.3120
14775W        W30584  12.810   6.923  13.098  0.5692  0.1255  0.3182
14776W        W30585  15.429   5.107  14.583 -0.1130  0.1060 -0.1917
14777W        W30586   2.765  14.915  13.530  0.0946 -0.0366  0.2502
14778W        W30587  15.625  12.154  14.445 -0.4197  0.2610  0.0951
14779W        W30588   9.953  16.926   2.456 -0.2338  0.3716  0.0161
14780W        W30589   8.132   9.194  15.834 -0.3122 -0.0502  0.2026
14781W        W30590  13.782  15.111   3.479  0.0518 -0.1074 -0.2628
14782W        W30591   5.155   9.466  15.169  0.1112  0.0811 -0.0658
14783W        W30592  12.065   7.899  12.540 -0.3659 -0.0378 -0.1915
14784W        W30593  14.181   7.772  12.989 -0.1508  0.1524  0.1751
14785W        W30594  14.019   6.985  10.115 -0.0347 -0.2916  0.2070
14786W        W30595   1.165   6.217   0.829 -0.2387  0.0833  0.5016
14787W        W30596   7.977  16.945  14.758  0.0083  0.1406  0.0421
14788W        W30597   8.567   1.217  15.166  0.2722  0.1486 -0.4736
14789W        W30598  16.575   0.692  12.912 -0.1853 -0.1191  0.0802
14790W        W30599   5.175   6.526  15.981 -0.0350 -0.1885  0.0977
14791W        W30600   4.037  16.442  12.660  0.0613  0.4519  0.3548
14792W        W30601  17.757  11.086  14.964 -0.0912  0.2328 -0.1036
14793W        W30602  14.982  15.780  13.910 -0.0848  0.1326  0.2734
14794W        W30603   1.252   5.640   1.808  0.3311 -0.1340  0.0955
14795W        W30604   5.264   7.453   2.898  0.0179  0.1901 -0.1560
14796W        W30605  11.766  13.475  12.484 -0.3230 -0.1609  0.0976
14797W        W30606  11.027  16.469   4.611 -0.0644 -0.0133  0.0277
14798W        W30607  14.152   9.671  13.163 -0.0092 -0.2783  0.0479
14799W        W30608   9.820  12.372   1.774  0.3875  0.2236  0.1437
14800W        W30609   9.013   3.907  16.035  0.0477 -0.0840  0.1471
14801W        W30610  11.523  13.335   0.481  0.0085 -0.0889  0.4893
14802W        W30611   0.616   6.288   1.759  0.0376 -0.0858  0.0440
14803W        W30612  16.793  14.906   3.297 -0.1477  0.0461 -0.0634
14804W        W30613  11.632   1.236  14.049 -0.0077  0.0936  0.1185
14805W        W30614  16.200   5.234  14.990 -0.0382  0.0106  0.0104
14806W        W30615   2.260   9.822   1.917  0.0791 -0.0208  0.1114
14807W        W30616   3.863  15.431   0.691 -0.1807 -0.2042 -0.1381
14808W        W30617  10.034  14.100   0.667 -0.1600 -0.0558  0.1388
14809W        W30618  12.615   3.197   2.091  0.1448 -0.2285  0.0141
14810W        W30619  14.112   8.773  13.537 -0.0942 -0.1864  0.1853
14811W        W30620   7.175  12.123   2.916 -0.0136 -0.2317 -0.4154
14812W        W30621   9.488  15.562   5.722 -0.0239 -0.3166  0.2649
14813W        W30622   5.261   4.010   0.460 -0.4636  0.4558  0.0013
14814W        W30623   6.231  14.212   0.799  0.0589  0.0747 -0.1180
14815W        W30624   5.586   5.539   4.727 -0.0236  0.1564 -0.0022
14816W        W30625   8.809  10.625  15.542 -0.0041 -0.0559 -0.1020
14817W        W30626   9.502  12.827   0.946 -0.0147 -0.2553 -0.4179
14818W        W30627   7.343   1.487  10.453  0.0818  0.1388  0.3516
14819W        W30628   5.583  18.044  11.593 -0.1912  0.0308  0.0345
14820W        W30629   4.287   0.624  13.635  0.0301  0.0707 -0.1259
14821W        W30630   9.377   6.704   2.670  0.4399 -0.0125  0.2657
14822W        W30631   9.615   9.260   0.755  0.1579 -0.1505  0.0578
14823W        W30632   6.658  15.052   1.970  0.0788 -0.0570 -0.1390
14824W        W30633   1.828   4.286   3.166 -0.1316  0.0276  0.2758
14825W        W30634   4.322   3.920   1.934 -0.1390  0.0606  0.2496
14826W        W30635   2.599   4.192   3.688  0.1427  0.0426  0.3058
14827W        W30636   3.904   4.407  15.116  0.0923 -0.1730  0.1253
14828W        W30637   2.200   7.883  14.385  0.4480  0.1672  0.1083
14829W        W30638  17.676   2.992  15.340  0.0436 -0.2125  0.1448
14830W        W30639   9.722   3.471  11.005  0.1396  0.1999  0.2450
14831W        W30640   3.925  16.820   0.678 -0.1656  0.1386  0.1614
14832W        W30641   4.317  13.860  12.879 -0.2331 -0.1021 -0.0308
14833W        W30642   9.502  13.185  16.345 -0.2470  0.2275  0.0875
14834W        W30643   1.484   0.052   3.422 -0.3079  0.1788  0.0168
14835W        W30644  17.698   2.118   0.279 -0.2423 -0.0266  0.2819
14836W        W30645   7.008   0.958   4.678 -0.3780  0.0133  0.1027
14837W        W30646   9.421   6.363  14.252  0.2184 -0.0103  0.2086
14838W        W30647  16.281   3.356   3.953  0.3866  0.0097 -0.0060
14839W        W30648  14.989   9.854   0.010  0.0111  0.3529  0.0145
14840W        W30649   8.584  17.190  11.186 -0.0753  0.2639  0.0040
14841W        W30650   7.476   1.173  15.139  0.0228 -0.0034 -0.2729
14842W        W30651   6.723  16.418   1.743  0.0977 -0.0043 -0.1388
14843W        W30652  15.283  16.081   4.990 -0.0910 -0.1345 -0.0335
14844W        W30653   6.655   1.094  13.856 -0.0049 -0.0874 -0.1519
14845W        W30654   0.180  12.744   4.798  0.1767 -0.1244 -0.1508
14846W        W30655  10.647   9.918   1.935  0.2478 -0.2283 -0.2940
14847W        W30656  13.955  18.165   3.530 -0.1782  0.0421 -0.2278
14848W        W30657   7.213   5.094  13.402 -0.0422  0.0336 -0.0497
14849W        W30658   2.044   6.715  15.088 -0.0371 -0.2095  0.0344
14850W        W30659   9.806   4.208  14.009 -0.1140 -0.2417 -0.0638
14851W        W30660   0.194   1.311  12.713  0.1720 -0.0623 -0.0164
14852W        W30661   6.513  16.270  13.660 -0.0524  0.0715  0.0387
14853W        W30662  10.464  12.058  11.705 -0.0716  0.1441  0.0001
14854W        W30663   7.685   9.864  13.036 -0.1572  0.0869 -0.4125
14855W        W30664  13.522  16.284  12.051  0.0104  0.0442 -0.1097
14856W        W30665   5.913   0.774   4.887 -0.0936 -0.2948  0.2838
14857W        W30666  12.714   6.215  15.033 -0.0632 -0.0587  0.0434
14858W        W30667   4.831   7.772  15.467  0.0889 -0.1125 -0.3060
14859W        W30668   9.961  15.215  14.793  0.0900 -0.0657  0.2669
14860W        W30669  16.291   8.027   4.322 -0.1079 -0.2264  0.3899
14861W        W30670  12.648  17.526  14.795 -0.0909  0.0868 -0.0259
14862W        W30671  12.228   9.684  11.755  0.1174  0.1528  0.1102
14863W        W30672   3.106   2.537   3.357 -0.1397 -0.0473  0.0546
14864W        W30673   2.101   6.528   3.479 -0.1047 -0.0085  0.0784
14865W        W30674   7.456   5.471   3.012  0.1930  0.2915  0.0710
14866W        W30675  10.255   9.195   3.956  0.2074 -0.0562  0.2456
14867W        W30676  17.182   7.603   1.362  0.0150 -0.1437  0.2011
14868W        W30677  16.606  16.010  11.508  0.0303 -0.0118  0.0220
14869W        W30678   5.754   1.776  14.916  0.1659 -0.0026  0.1152
14870W        W30679  13.444   3.728   2.751 -0.2744  0.2775 -0.1169
14871W        W30680  13.923   7.231   4.523 -0.0568 -0.1850  0.2775
14872W        W30681   3.750  15.563  16.173 -0.0540  0.0630 -0.0578
14873W        W30682  11.109  11.479  11.396  0.0033  0.0023  0.0334
14874W        W30683   4.202   2.373  12.850 -0.1321 -0.3176  0.1184
14875W        W30684   0.791  17.132  15.316 -0.1563  0.2521 -0.0212
14876W        W30685  15.938   2.696   5.996  0.0825 -0.1850 -0.0317
14877W        W30686   1.898   1.113  11.858  0.1671 -0.2385 -0.1560
14878W        W30687   7.693   7.041   2.137  0.0049 -0.0265 -0.0961
14879W        W30688  16.205   3.572   2.266  0.1318 -0.2027  0.0605
14880W        W30689   6.526   9.133  16.306  0.4160 -0.4027  0.1014
14881W        W30690  12.759  12.258  11.578 -0.1886 -0.0228  0.0501
14882W        W30691   5.799   4.079   5.033  0.0753 -0.0239 -0.0587
14883W        W30692  16.651   7.889  12.126  0.0764  0.0808  0.1533
14884W        W30693   9.595   3.844  11.499  0.0944 -0.2698  0.2546
14885W        W30694  12.214   2.074   4.936 -0.2677  0.2030  0.2786
14886W        W30695   8.864   8.236   1.402 -0.1041 -0.2523 -0.1745
14887W        W30696   5.423  12.178  14.360  0.1372 -0.0129 -0.0495
14888W        W30697  17.236   3.590   2.083  0.1541  0.1548  0.0974
14889W        W30698   6.726   6.390  14.955 -0.0209  0.0502 -0.2550
14890W        W30699  17.010   1.885   4.366  0.1876 -0.0983 -0.1513
14891W        W30700  11.727  12.307  13.635 -0.0712 -0.2584  0.1943
14892W        W30701   8.851   0.491  11.590  0.2860  0.0956  0.3069
14893W        W30702  17.713   6.192   4.752  0.1748 -0.0429  0.0005
14894W        W30703  11.369   4.590   2.800  0.0157  0.1737  0.1491
14895W        W30704   2.639  16.664  12.063  0.0832 -0.3057  0.0465
14896W        W30705   7.169   8.704   5.327 -0.1527  0.4162 -0.1211
14897W        W30706   2.843   2.596   4.530 -0.0813  0.0052  0.5687
14898W        W30707   2.728   3.956  15.297 -0.1075  0.0631 -0.3017
14899W        W30708  16.535  14.622  14.122  0.3632  0.1677 -0.3610
14900W        W30709  11.497   4.914  16.169 -0.1001 -0.2437 -0.0237
14901W        W30710  15.224   6.517   3.738  0.1604  0.2220  0.2296
14902W        W30711  11.070  13.622   2.320  0.0130  0.1430 -0.1297
14903W        W30712  17.973   0.823   6.048 -0.3069  0.3753  0.0643
14904W        W30713  11.622   0.167   4.620 -0.3859  0.1401  0.1498
14905W        W30714  12.855   7.701   3.859  0.1714 -0.0183  0.0394
14906W        W30715  15.560   7.936  13.161 -0.1884  0.0161 -0.0844
14907W        W30716  11.080   2.667  13.316 -0.0202  0.2844 -0.0183
14908W        W30717   2.154  17.658   1.392  0.2276 -0.1597  0.2001
14909W        W30718   8.267  14.477   4.970  0.1808 -0.2418 -0.0713
14910W        W30719   7.810  13.693   4.621 -0.0919  0.0085  0.0039
14911W        W30720   7.935   5.500   2.851 -0.0151  0.0980  0.2890
14912W        W30721   7.967   5.560  11.696 -0.0630 -0.2968  0.0482
14913W        W30722   6.997   6.979   0.381 -0.0389 -0.0905 -0.1985
14914W        W30723  13.971  12.006  12.888 -0.2112  0.3804  0.4122
14915W        W30724  15.413   1.255  16.229 -0.0463 -0.1105 -0.1761
14916W        W30725   9.698  14.579   2.323  0.1061  0.3500 -0.1663
14917W        W30726  13.620  10.896  10.708 -0.2466 -0.2238 -0.3476
14918W        W30727   2.392   7.989   2.965 -0.0565 -0.1050 -0.1616
14919W        W30728   8.672   6.156   3.111  0.1434  0.1570 -0.0899
14920W        W30729   3.166   4.805  15.893 -0.0358 -0.3589 -0.0779
14921W        W30730   6.327  13.013  15.769  0.0336 -0.0816  0.0662
14922W        W30731   7.262   6.203   1.792  0.1566  0.2323 -0.0044
14923W        W30732  14.431   6.953  15.387  0.1821 -0.0298 -0.3097
14924W        W30733   1.884   4.439   4.243 -0.3138 -0.2873 -0.0344
14925W        W30734  15.855   3.830   1.170 -0.0284 -0.0478 -0.0075
14926W        W30735   6.776  17.038  12.198  0.3575  0.2313 -0.0163
14927W        W30736  15.317  15.897   3.399  0.2591 -0.1318  0.2732
14928W        W30737   3.830   8.217  13.897  0.3347 -0.1248 -0.4134
14929W        W30738  13.571  10.909  13.480 -0.2710  0.1684  0.2898
14930W        W30739   8.949  12.583   3.340 -0.2207  0.1291 -0.0546
14931W        W30740   6.841  13.043   3.108 -0.1934 -0.2436 -0.0981
14932W        W30741  10.127  12.117   2.250  0.0910 -0.0244  0.3105
14933W        W30742  17.337  15.921  13.973 -0.0424  0.1615 -0.3907
14934W        W30743  15.437   3.062   2.306 -0.1596 -0.2946  0.1864
14935W        W30744   7.882   3.663   1.161  0.0788  0.2789  0.2529
14936W        W30745   5.287   5.272   3.827 -0.1916  0.1190 -0.1077
14937W        W30746   7.252   2.345   1.565 -0.3401 -0.1460 -0.0838
14938W        W30747  17.491  16.221   2.890 -0.0562  0.1404  0.1783
14939W        W30748   0.371   0.131   6.118 -0.0489  0.1485  0.0209
14940W        W30749   2.161  11.823  16.088  0.0999 -0.0279  0.3100
14941W        W30750   6.699  14.572   4.913  0.2294  0.3220 -0.0219
14942W        W30751  13.357  14.707  14.515  0.0045 -0.0380  0.2367
14943W        W30752   1.224   4.687  12.086 -0.0808 -0.2103 -0.2194
14944W        W30753   2.692   9.121   1.520 -0.0795 -0.2765 -0.4129
14945W        W30754  10.154  13.357  11.586  0.1262 -0.3843  0.0972
14946W        W30755  13.865  11.735  13.383 -0.0032  0.0239 -0.3274
14947W        W30756  13.372  14.434   1.174  0.1098  0.0511 -0.1439
14948W        W30757   9.581   0.663   1.887 -0.0106 -0.2877 -0.0802
14949W        W30758   8.822   0.786  15.330 -0.1182  0.0119 -0.2197
14950W        W30759  14.998  11.983   4.000  0.2037 -0.1571  0.1592
14951W        W30760  14.001  14.092   0.415 -0.1246 -0.2937 -0.0579
14952W        W30761   6.316  12.635  11.507  0.0559 -0.0869 -0.1973
14953W        W30762   3.741  10.298   4.085  0.0837 -0.0964  0.4041
14954W        W30763   2.786   6.790  12.422  0.0260 -0.1908 -0.4180
14955W        W30764   0.945  14.041  16.146 -0.1670 -0.0624 -0.2263
14956W        W30765   1.673   5.535   4.257  0.1165  0.0015 -0.0750
14957W        W30766  13.393   2.190  14.387 -0.4495  0.1654  0.0939
14958W        W30767   2.508  10.057  13.882 -0.1390 -0.2775  0.0530
14959W        W30768   0.935  18.212   2.202 -0.0104 -0.0011  0.1718
14960W        W30769   1.388  15.252  12.915  0.2092 -0.3258  0.3062
14961W        W30770   8.105  11.933   0.332  0.1231  0.4926 -0.3446
14962W        W30771   5.144  16.980   0.790  0.2201 -0.2598  0.2005
14963W        W30772  18.126  10.160   0.110  0.2254  0.0132  0.1378
14964W        W30773   5.054   8.186  11.928 -0.0651  0.1797  0.3261
14965W        W30774   8.218   1.645   0.192 -0.0960  0.0358  0.0049
14966W        W30775  13.967   6.569  13.233  0.0934 -0.1629  0.1092
14967W        W30776   2.335   1.065  14.530  0.4467 -0.0435 -0.1315
14968W        W30777   5.718   5.071  11.521  0.0953 -0.0054 -0.1910
14969W        W30778  17.125  13.777  14.622  0.0176 -0.0649 -0.1078
14970W        W30779  15.284   0.029   3.095 -0.2394 -0.0039  0.1364
14971W        W30780  17.399  15.180  10.241  0.2726 -0.0315 -0.0693
14972W        W30781   1.136  17.507   3.295 -0.2533  0.0171 -0.2429
14973W        W30782   5.847   8.581   5.498  0.1925 -0.0387 -0.0532
14974W        W30783   8.420  10.412   5.750 -0.2489  0.0525  0.3448
14975W        W30784  14.019  16.104  11.766 -0.4118  0.3248  0.3441
14976W        W30785   5.811   2.260  14.471  0.0466  0.2167 -0.3149
14977W        W30786   4.485  16.554   0.148  0.1608 -0.0644  0.1515
14978W        W30787  17.216   0.783   4.908  0.0631  0.3188  0.4409
14979W        W30788   2.975  17.251  14.173 -0.1100 -0.1159 -0.0824
14980W        W30789  12.767  10.209   0.886 -0.0169  0.1027 -0.0201
14981W        W30790  12.019  10.738   0.784 -0.0861 -0.0730 -0.2272
14982W        W30791  14.884  13.225  15.259  0.0121 -0.0263 -0.1169
14983W        W30792   0.350   1.226  14.411 -0.0438  0.1059  0.0864
14984W        W30793   0.053  11.820   3.729  0.2389  0.0845  0.1132
14985W        W30794   1.135  10.796  14.454  0.2099  0.0148  0.3969
14986W        W30795  16.963   7.196   2.464  0.2725  0.2410  0.1814
14987W        W30796   2.682  11.363  13.559  0.0410 -0.0291  0.0664
14988W        W30797   4.099   1.181   1.910  0.0037 -0.0676  0.2391
14989W        W30798  11.036  15.691  12.807 -0.1021  0.1554  0.1299
14990W        W30799   7.317   4.023   3.748 -0.1908 -0.2504 -0.0189
14991W        W30800  16.147   1.476   1.570 -0.2147  0.3527 -0.0007
14992W        W30801  15.296  12.811  15.878  0.3488  0.0440  0.0218
14993W        W30802   6.549  11.380  14.816 -0.0620 -0.0136  0.1239
14994W        W30803   9.288  13.580  11.564 -0.2408 -0.0930  0.0178
14995W        W30804   2.539   2.296   0.028  0.2062  0.0528  0.1968
14996W        W30805  16.948   5.898  13.924 -0.0797  0.1837  0.0059
14997W        W30806   0.979   3.260   1.077 -0.2731 -0.2441 -0.2563
14998W        W30807   8.132   1.225  13.886  0.3159  0.0817  0.2062
14999W        W30808  13.231   8.510  12.688 -0.3304 -0.0615 -0.2191
15000W        W30809   8.299  16.685   4.360  0.0597 -0.2800 -0.0299
15001W        W30810   0.034   9.984  12.454  0.0873  0.1318  0.0831
15002W        W30811  13.050  12.118   1.857  0.0688 -0.0326  0.0541
15003W        W30812   5.664  11.715  10.592  0.1535  0.1812  0.0553
15004W        W30813  18.188  13.125  12.295  0.0213  0.2846 -0.0041
15005W        W30814  10.930   2.559   4.785  0.0500 -0.3061 -0.0965
15006W        W30815  11.544  13.804  12.153 -0.2137  0.0978  0.1017
15007W        W30816  10.068   7.741   0.569 -0.1403 -0.0108 -0.1305
15008W        W30817  15.829  14.935   3.503  0.0402 -0.2654  0.1836
15009W        W30818   0.287   4.323   4.189  0.0084  0.2294 -0.1264
15010W        W30819   5.513  17.945   5.052 -0.1336 -0.0065 -0.0250
15011W        W30820   3.548   0.704  13.068 -0.1140  0.0205  0.2481
15012W        W30821  17.849   7.015   3.932 -0.1720  0.1221  0.0356
15013W        W30822   6.035   3.886   4.443 -0.0297 -0.0297 -0.1662
15014W        W30823  12.227  14.287   0.140 -0.1113  0.2906  0.2146
15015W        W30824   9.810  17.750  14.751 -0.1655  0.0952 -0.0945
15016W        W30825  14.762  14.984  15.279  0.1315 -0.1449  0.2581
15017W        W30826   2.428  11.698  11.644  0.0197 -0.1328  0.0284
15018W        W30827  12.730  13.873   2.328 -0.0993  0.0417  0.0369
15019W        W30828   7.953   8.772  15.564 -0.3703 -0.2403 -0.0658
15020W        W30829   2.160   1.385  14.877  0.3661 -0.0119  0.2153
15021W        W30830   0.827   4.368  16.152 -0.0782  0.0286  0.0572
15022W        W30831  14.732   9.579  14.278  0.3103 -0.0495  0.0627
15023W        W30832   7.574   4.701  12.430  0.0608 -0.3154 -0.0851
15024W        W30833  12.048  17.617  12.265  0.0631  0.0857 -0.0216
15025W        W30834   8.746  16.722  14.818  0.0840  0.0143  0.2918
15026W        W30835   2.430   1.548   1.514 -0.1710 -0.1647 -0.3884
15027W        W30836   3.462  14.064   4.605  0.0681 -0.1246 -0.0636
15028W        W30837  12.972  17.091   5.329 -0.0102 -0.0077 -0.1821
15029W        W30838   4.161   4.758  14.177  0.2438 -0.0350  0.3362
15030W        W30839   8.091  14.315  11.604 -0.2174 -0.0941  0.3398
15031W        W30840   6.163   9.952  13.748  0.1430 -0.3397  0.0720
15032W        W30841   5.588   2.070  12.162  0.1815 -0.0226 -0.5444
15033W        W30842   6.764  14.390   1.282  0.0856  0.2845  0.0351
15034W        W30843  18.056   6.360   0.552 -0.0689  0.1737 -0.0075
15035W        W30844   4.497  18.128  12.289  0.0956  0.0249  0.2252
15036W        W30845   3.569   9.815   4.413 -0.0609 -0.2670 -0.2223
15037W        W30846   0.150   4.993  11.545 -0.0705  0.1482 -0.0858
15038W        W30847  12.184  11.820  14.245  0.0151 -0.0411 -0.0967
15039W        W30848  15.722   0.875   5.859  0.0077  0.0179 -0.3159
15040W        W30849  15.274  15.484   3.026 -0.0855  0.1632  0.0032
15041W        W30850  11.319   7.159  13.813 -0.0825 -0.1937  0.0866
15042W        W30851   4.533   6.983  13.360 -0.2064 -0.0718 -0.0176
15043W        W30852   7.458   6.196  16.326  0.6037 -0.1142 -0.2421
15044W        W30853  11.152   2.740   1.335 -0.2228 -0.0035 -0.3426
15045W        W30854  16.375   3.924  11.774 -0.1720 -0.0490  0.1181
15046W        W30855   8.163   6.594   1.531 -0.0673  0.3516  0.0278
15047W        W30856   9.343  15.420  13.507 -0.1512 -0.0412  0.1264
15048W        W30857   4.611   1.321  14.099 -0.1248 -0.3190 -0.0848
15049W        W30858  17.411  12.554  11.363 -0.1053  0.1211  0.3726
15050W        W30859  18.003  10.871  15.953  0.3343 -0.0842 -0.1216
15051W        W30860   1.053   5.863  16.157 -0.0482 -0.0466  0.3359
15052W        W30861  15.835   5.346   5.893  0.2506  0.0731  0.1777
15053W        W30862  12.257   9.713  12.889  0.0553  0.0112  0.3258
15054W        W30863   2.003  13.680  12.862  0.2347  0.1602 -0.0313
15055W        W30864   3.917   8.828   3.417  0.0609  0.0988  0.2980
15056W        W30865  13.894   0.621  12.277  0.1552 -0.0852  0.0482
15057W        W30866   1.884   6.527   0.882 -0.2232 -0.2875 -0.2878
15058W        W30867   5.837   4.867   0.799 -0.1339  0.0742 -0.0150
15059W        W30868  16.865   6.247  11.362  0.3371  0.1125  0.0286
15060W        W30869  11.142   9.233   5.063  0.1563 -0.1622 -0.1016
15061W        W30870  12.397  11.695   1.318  0.0906 -0.1481  0.0260
15062W        W30871  17.861   7.680   4.644 -0.0170  0.0090  0.1357
15063W        W30872  11.445   0.394   3.224 -0.2386 -0.1112 -0.0833
15064W        W30873  12.642   4.680  14.231 -0.4619 -0.2044 -0.0465
15065W        W30874   2.647  14.318  14.421  0.0007 -0.1983 -0.2166
15066W        W30875  11.229  17.309   4.879  0.1836  0.0948 -0.1168
15067W        W30876  13.735  17.490  12.158  0.1121 -0.1960  0.1110
15068W        W30877   8.979   3.132   9.730 -0.2489 -0.1507  0.1298
15069W        W30878   9.981   1.932  15.513  0.2089 -0.0312 -0.2197
15070W        W30879   4.909  10.014  14.118  0.0159  0.0325 -0.2593
15071W        W30880  16.717  13.118  11.627 -0.1104  0.0018 -0.0470
15072W        W30881   0.476  10.312   1.683 -0.0798  0.0897 -0.0097
15073W        W30882   2.038   2.793   0.078 -0.0120 -0.3177 -0.1038
15074W        W30883   3.261  16.096   3.814 -0.0991  0.3700 -0.0701
15075W        W30884   5.391   8.466  10.361  0.1749 -0.0860  0.3434
15076W        W30885   8.740  17.193   3.499  0.0292 -0.0957  0.2688
15077W        W30886   5.525   7.008   1.142 -0.0395 -0.4183  0.3819
15078W        W30887   2.419  12.624  11.438 -0.0986  0.3439 -0.0997
15079W        W30888   9.104   0.048  11.541 -0.2069 -0.3411  0.3023
15080W        W30889  10.765   4.549  13.692 -0.0127 -0.0390  0.2451
15081W        W30890  11.278   2.050   2.520  0.1910  0.0702  0.1006
15082W        W30891  17.886   1.689   1.816 -0.1883  0.1829 -0.1690
15083W        W30892   7.324  13.099  14.236 -0.0282 -0.0725 -0.2861
15084W        W30893   4.456   5.517   1.813  0.0160 -0.4394 -0.1449
15085W        W30894  12.587   7.556  11.226 -0.0673 -0.2681 -0.1999
15086W        W30895   4.234  16.732   3.460  0.0191  0.0261  0.0783
15087W        W30896   8.359  17.576  13.055 -0.2678  0.1229 -0.1845
15088W        W30897   2.624   8.158   3.995  0.0993  0.2654  0.0116
15089W        W30898   6.490  13.658   3.439 -0.0929  0.0044  0.1029
15090W        W30899   5.226  14.407   2.956 -0.0847 -0.0629  0.0450
15091W        W30900   3.277  17.240   0.210  0.0137  0.1478  0.0992
15092W        W30901  11.104   4.457   1.278  0.2131  0.2803 -0.0890
15093W        W30902  10.660  14.749   2.654  0.1158 -0.2766  0.0575
15094W        W30903  17.037   4.700  11.793 -0.2138  0.1085  0.1058
15095W        W30904   8.981  17.222   3.983  0.0033 -0.0485 -0.0686
15096W        W30905   4.277   6.485  10.678 -0.2385 -0.0177 -0.2599
15097W        W30906  11.347   5.732  16.037  0.0234 -0.2313  0.0339
15098W        W30907  16.336   8.152   3.062 -0.0038  0.2949  0.0532
15099W        W30908   3.063   6.652   2.216  0.3172  0.0478 -0.0120
15100W        W30909   2.977  10.509   4.817 -0.2756 -0.0199  0.1642
15101W        W30910  13.909   8.161  15.668  0.0380  0.0667 -0.0019
15102W        W30911   7.741   8.825  13.977 -0.0081 -0.1086 -0.2027
15103W        W30912   8.121   4.647   4.293 -0.2475  0.2214 -0.0410
15104W        W30913   1.351   1.127   2.960 -0.2744 -0.0391 -0.2586
15105W        W30914   4.489   9.334  12.540  0.0581 -0.0826  0.1857
15106W        W30915   8.969  13.577  12.416 -0.2864 -0.2384  0.3551
15107W        W30916  14.207   4.704   5.815 -0.3307 -0.0629 -0.0923
15108W        W30917  14.393   9.803   5.321 -0.0655 -0.0107  0.1758
15109W        W30918   7.806   3.853   4.585  0.0632  0.1332  0.1196
15110W        W30919  11.453  12.571  13.986  0.1047  0.0199 -0.1711
15111W        W30920  14.146  12.672  13.375 -0.1358 -0.0496 -0.0526
15112W        W30921  10.619  18.183   4.793 -0.1030 -0.2197  0.0126
15113W        W30922   7.537  14.649   2.390 -0.1007 -0.0553  0.0772
15114W        W30923  15.488  15.999   4.429  0.1296  0.2326 -0.3110
15115W        W30924  13.220  12.514  13.979  0.0057  0.1829 -0.0133
15116W        W30925   6.103  12.769  14.474 -0.0317 -0.1011  0.0303
15117W        W30926  12.926   9.412   3.421  0.0116 -0.0057 -0.2889
15118W        W30927   1.645   5.601  10.470  0.0055  0.0384  0.0102
15119W        W30928  14.151  17.019  13.099  0.2060  0.0313 -0.0213
15120W        W30929   0.628  13.366   0.958 -0.2892 -0.1161  0.2032
15121W        W30930   5.180   6.902   5.361  0.0121 -0.0162  0.1173
15122W        W30931  11.542   6.662  12.218  0.4609 -0.0221  0.0741
15123W        W30932   3.756  14.705   5.183  0.1009  0.0954  0.1215
15124W        W30933  13.329  17.121  12.112 -0.2338 -0.1739  0.2606
15125W        W30934   5.068  16.064   6.034 -0.0333  0.0137 -0.2440
15126W        W30935  14.078   2.013   2.986 -0.1183  0.0084 -0.2243
15127W        W30936   1.861   2.029   3.722 -0.0428 -0.0316  0.1753
15128W        W30937   8.902  17.101  15.723  0.2116 -0.2525 -0.4035
15129W        W30938   3.989  16.749  11.299 -0.3452  0.0827  0.3518
15130W        W30939  15.190  18.185  15.822  0.1209  0.0561  0.0047
15131W        W30940  12.092   0.467   3.708 -0.0852  0.0241  0.0162
15132W        W30941  12.377  12.905   5.792 -0.1388  0.1442 -0.0372
15133W        W30942  11.842  17.718  13.632 -0.2343 -0.1378 -0.1440
15134W        W30943   9.112  12.172  13.964 -0.0047 -0.0085 -0.1626
15135W        W30944   1.331   3.607   2.760 -0.1554  0.4517  0.0755
15136W        W30945  17.355   4.254   5.128  0.2147  0.1236  0.1806
15137W        W30946  17.785   5.591  12.875 -0.2932 -0.0994 -0.2026
15138W        W30947  16.181  12.823   1.647  0.1525 -0.1805  0.0975
15139W        W30948   0.532  12.633   5.201 -0.2296  0.0183  0.1650
15140W        W30949   2.970  13.829  13.579  0.0985 -0.1952  0.1324
15141W        W30950   7.947  15.636  14.521  0.1777  0.0781  0.3918
15142W        W30951  13.742  17.661   1.387  0.1391 -0.1750  0.0738
15143W        W30952  16.548  17.930   5.358 -0.1562 -0.1889 -0.1965
15144W        W30953  13.699   1.755   2.037 -0.0406 -0.3286 -0.0623
15145W        W30954   3.421   3.677  11.679  0.2343  0.0248 -0.1467
15146W        W30955  13.449   8.725  13.302 -0.1434  0.3097 -0.2506
15147W        W30956   0.217   3.081  14.214 -0.0504  0.3020  0.0264
15148W        W30957  16.086  15.045  15.519  0.0694  0.0603  0.2901
15149W        W30958  15.571   1.275   2.628  0.0329  0.0590 -0.2015
15150W        W30959   5.883   6.341   1.544 -0.3076 -0.2636  0.1632
15151W        W30960   3.870  12.076   3.871  0.1120 -0.2769 -0.3652
15152W        W30961   4.511  10.171  13.851 -0.3226 -0.0017 -0.1469
15153W        W30962   9.011   2.700   1.344  0.3099 -0.1828 -0.1762
15154W        W30963  15.209   0.588  11.839  0.1208  0.1341 -0.4513
15155W        W30964   3.745   2.046   3.366 -0.2048  0.0362  0.1966
15156W        W30965   3.332  16.756  13.587  0.1596 -0.0057 -0.1243
15157W        W30966   7.421   7.131   1.229  0.1188 -0.0030  0.0256
15158W        W30967   2.738   2.466   2.815 -0.0645 -0.0595  0.1632
15159W        W30968   6.024   2.592  13.483 -0.1915 -0.0071  0.2598
15160W        W30969   6.907  16.391   2.262 -0.0794 -0.1075 -0.0135
15161W        W30970  12.629   2.405  15.944  0.2937 -0.1765 -0.0300
15162W        W30971   3.305  17.508   1.650  0.2912 -0.2709 -0.0679
15163W        W30972   5.853   0.890   3.341  0.1591  0.0190  0.0734
15164W        W30973   9.061   6.270   3.492  0.0888 -0.0377 -0.5426
15165W        W30974  16.816  12.555  16.139  0.2545  0.2032  0.1056
15166W        W30975   9.213  10.649   5.464 -0.1764 -0.0512  0.1471
15167W        W30976  13.339   4.851   4.381  0.3613  0.0166 -0.0279
15168W        W30977   2.782  14.890   1.114  0.4344 -0.0326 -0.1032
15169W        W30978   3.099  12.400   6.059  0.0046 -0.1635 -0.0261
15170W        W30979   0.532   9.405   2.116 -0.1972  0.2114 -0.0576
15171W        W30980  13.501  15.123  12.370 -0.3068  0.2051  0.0392
15172W        W30981  13.743   4.869  10.863  0.2535  0.2351  0.0125
15173W        W30982   7.729   3.890   0.545  0.0584 -0.1869  0.0955
15174W        W30983  17.456  16.494  11.565 -0.2826 -0.0948  0.0157
15175W        W30984   3.429   5.326  15.152  0.0627  0.0985  0.2928
15176W        W30985  14.599   7.366   0.234  0.1765 -0.0897 -0.2985
15177W        W30986  12.398  13.037   3.737  0.0160  0.1623  0.1447
15178W        W30987   3.595   4.097  10.429 -0.2882 -0.1846  0.4875
15179W        W30988  12.821   4.950   5.176 -0.0384  0.1962  0.2155
15180W        W30989  17.089   5.390   0.724  0.1352 -0.1329  0.1456
15181W        W30990  11.062  14.904  15.390 -0.0418  0.2273  0.1497
15182W        W30991   8.018  15.566  16.027  0.0701  0.0075 -0.0855
15183W        W30992   7.940  12.979   4.374 -0.4687  0.0134  0.1529
15184W        W30993  12.287   1.460  16.288 -0.0941 -0.0916  0.0020
15185W        W30994   1.849   5.891   1.441 -0.1402  0.1575 -0.0906
15186W        W30995   7.952   2.175   0.674  0.1223 -0.1252 -0.1866
15187W        W30996  14.639  17.538   1.556  0.1583  0.1652  0.1395
15188W        W30997  14.697  15.708   4.152 -0.1019  0.0007  0.0072
15189W        W30998   3.495   9.903   2.307  0.1102 -0.0989 -0.0606
15190W        W30999   0.996  11.603   2.509  0.0358 -0.2115  0.1532
15191W        W31000  15.424  12.990  14.442  0.1982 -0.3034 -0.2704
15192W        W31001  11.007  11.191  14.395 -0.0349 -0.2307  0.2108
15193W        W31002   3.338   4.983  16.357  0.2839 -0.0455  0.3206
15194W        W31003  14.642   3.077  15.700 -0.0815  0.1698 -0.3346
15195W        W31004   3.182   6.259  14.640  0.0067 -0.2171 -0.0991
15196W        W31005   3.134   8.913   1.375  0.0231  0.0291 -0.1607
15197W        W31006   5.610  17.232   0.881 -0.0440  0.0204 -0.2278
15198W        W31007   3.510  14.224   0.312  0.2201  0.4775  0.4690
15199W        W31008   3.310   8.893   0.336 -0.2674 -0.1190 -0.0978
15200W        W31009   2.649  14.126  16.138 -0.0593 -0.0961 -0.1203
15201W        W31010  11.584  14.493   2.729 -0.0302  0.2421 -0.2883
15202W        W31011   1.381  10.355  11.810  0.3231 -0.1878  0.1589
15203W        W31012  10.082   1.427   4.699  0.2183 -0.1984 -0.1117
15204W        W31013  16.705   7.069   2.073  0.2205  0.0308 -0.0321
15205W        W31014  12.278   1.726  15.403  0.2077 -0.1505  0.0861
15206W        W31015  16.255  16.793   1.630 -0.1673 -0.1638  0.1462
15207W        W31016   9.670  13.721   3.611 -0.0465  0.0378  0.0854
15208W        W31017   6.782   3.852  13.348 -0.3562  0.0625 -0.0043
15209W        W31018  17.748   8.335  11.812 -0.0806  0.1038 -0.0885
15210W        W31019  10.138  10.132  11.570 -0.0572  0.1223  0.1826
15211W        W31020   3.838  14.574  13.942 -0.1340  0.1554  0.1259
15212W        W31021  13.309   9.018   1.495  0.0930 -0.0160  0.0712
15213W        W31022   9.186   2.546  15.487 -0.1613  0.1134 -0.1662
15214W        W31023   0.884  17.777  13.695 -0.0791 -0.0937 -0.0444
15215W        W31024   7.471  11.857   5.366 -0.3262  0.3182  0.2691
15216W        W31025  14.514  10.705  13.896  0.0227  0.0302  0.0519
15217W        W31026   0.747  11.801   2.052 -0.2515  0.1781  0.0653
15218W        W31027  11.531   3.271  11.245 -0.0401  0.0012  0.0016
15219W        W31028   7.178  16.737   0.961  0.2916  0.2212 -0.0395
15220W        W31029  17.977  11.447  13.556 -0.2897 -0.0994 -0.4822
15221W        W31030  16.176  14.905   5.437  0.1567  0.1957  0.1548
15222W        W31031   7.897   1.337  14.780  0.1309  0.0955 -0.0024
15223W        W31032  12.996   0.655  11.460  0.0341 -0.2786  0.0704
15224W        W31033   2.192  14.542   4.273 -0.2466 -0.1340 -0.2554
15225W        W31034  13.963   0.378  15.644  0.2654 -0.1513  0.0456
15226W        W31035   4.999  11.448   1.561  0.3336 -0.0076 -0.1581
15227W        W31036   6.915  17.114  14.318 -0.3936  0.0412  0.0695
15228W        W31037   9.171  12.749  12.098 -0.1654 -0.0807  0.0310
15229W        W31038  13.149  15.552  14.590 -0.3397 -0.0623  0.1226
15230W        W31039   5.020   8.430  16.250  0.1195  0.1046 -0.1730
15231W        W31040   7.948   0.816   3.437  0.2263  0.2512  0.0881
15232W        W31041   6.905   5.857   3.222  0.3370  0.2141 -0.0526
15233W        W31042  15.066  16.914   0.415  0.0986  0.0914  0.1698
15234W        W31043   1.860   0.839  16.219 -0.2305  0.2217  0.0243
15235W        W31044   8.681   0.744   0.847  0.0083 -0.3431  0.1224
15236W        W31045  13.779  15.384  13.431  0.0970 -0.1151  0.0157
15237W        W31046  17.746  12.700   1.832  0.1214  0.0402  0.0273
15238W        W31047  16.502   2.695   1.342 -0.0717  0.1396  0.1229
15239W        W31048  11.523  16.311  14.304 -0.2827  0.3459  0.0676
15240W        W31049   8.504   3.082   3.318  0.2608  0.1688 -0.1899
15241W        W31050   9.091   8.599   0.049 -0.0556  0.2412  0.2234
15242W        W31051  17.076  15.891   1.422 -0.1324  0.0977  0.1726
15243W        W31052  11.643   1.813  14.103  0.0772 -0.3957 -0.0968
15244W        W31053  13.410  16.899  16.303  0.3175  0.1063  0.2623
15245W        W31054  10.533   1.270   0.468  0.0771 -0.4041 -0.1752
15246W        W31055   3.111  13.933   3.522  0.0756 -0.0651  0.0472
15247W        W31056  12.148   4.103  12.532  0.0017 -0.0623 -0.0464
15248W        W31057  13.641   6.604   3.706  0.1947  0.0373  0.1846
15249W        W31058  17.089   5.615   4.393  0.0474 -0.1609 -0.4337
15250W        W31059   3.011  17.386   1.192  0.0609  0.1551 -0.3254
15251W        W31060   0.970   6.367   3.400 -0.0413 -0.1892 -0.0978
15252W        W31061   8.770   5.807   2.720 -0.2610 -0.3545 -0.2144
15253W        W31062  15.163   1.511   1.872  0.1200  0.3016  0.1851
15254W        W31063   8.241  10.705  15.429 -0.0358  0.3333 -0.0664
15255W        W31064   0.641   5.189   0.030 -0.2039  0.0712 -0.1276
15256W        W31065  17.507   3.409   4.704  0.1106 -0.1550 -0.0413
15257W        W31066   8.317   2.659  13.857 -0.1914 -0.1757  0.0826
15258W        W31067  16.678  13.708  13.873  0.0408  0.0138  0.2958
15259W        W31068   0.218  11.554  15.419  0.0222  0.0425 -0.0842
15260W        W31069  10.807   4.344   5.711  0.0714  0.1616  0.2952
15261W        W31070   9.543   0.506   6.341  0.0820  0.4421 -0.0069
15262W        W31071   9.387  10.088  14.771 -0.1249 -0.1370  0.3417
15263W        W31072  13.789  11.289  15.032 -0.0089  0.1061  0.2406
15264W        W31073  13.059   9.331   2.830 -0.0659  0.2129  0.0180
15265W        W31074  10.889   7.830  11.923 -0.1227  0.0023 -0.0245
15266W        W31075  15.309   7.660  13.885 -0.2360  0.0299 -0.0520
15267W        W31076  14.657  11.293   5.116 -0.0314  0.3314 -0.2176
15268W        W31077  13.707  13.520  11.509 -0.1225  0.1553  0.2560
15269W        W31078  17.119  13.050   4.917  0.0538  0.0764  0.0609
15270W        W31079   6.065   4.201  15.288 -0.2256  0.1821 -0.1058
15271W        W31080   9.307   5.700  11.261  0.2871 -0.0464  0.0635
15272W        W31081   4.432  11.073  11.010  0.0139  0.0682  0.3505
15273W        W31082  14.579   4.400  11.763 -0.1004  0.0787  0.1645
15274W        W31083   9.577   4.430   0.240 -0.1308 -0.3449  0.0319
15275W        W31084   4.591   8.706  16.291  0.2349 -0.2655 -0.0507
15276W        W31085  14.432   5.030  12.273 -0.1897 -0.1608  0.0322
15277W        W31086   7.657   3.627  14.717  0.3201 -0.3693 -0.0599
15278W        W31087  17.401  11.105   5.077  0.1524  0.0525 -0.0306
15279W        W31088   9.711   0.608   3.566 -0.1032  0.2298 -0.0729
15280W        W31089  10.985   1.313   4.067 -0.0727  0.0201  0.0025
15281W        W31090   4.300  13.310   0.753 -0.1423 -0.1830  0.1921
15282W        W31091   9.932  17.630   1.212  0.0528 -0.0386  0.0191
15283W        W31092  11.697   8.109   3.836 -0.1723  0.0820  0.0984
15284W        W31093   7.003  13.166   4.520 -0.0679 -0.0642  0.0032
15285W        W31094  13.892  14.121   4.304 -0.0997 -0.0363  0.0540
15286W        W31095   6.004   7.977  14.379  0.0645  0.1414  0.1941
15287W        W31096   7.581  13.324   0.656 -0.0688 -0.0208 -0.0440
15288W        W31097  12.394   2.773   1.916  0.1482  0.0680  0.1782
15289W        W31098   4.849   0.620   4.910 -0.1677  0.3611  0.1988
15290W        W31099   9.295   8.605  14.843 -0.0570  0.3372  0.1750
15291W        W31100   6.375   8.275   1.302 -0.1826 -0.1042  0.0281
15292W        W31101  16.205  17.254  15.015 -0.1711  0.0223 -0.2006
15293W        W31102  15.216   8.535   1.601 -0.1721 -0.2027  0.3346
15294W        W31103   1.173  15.342   2.456 -0.0167 -0.0656  0.4386
15295W        W31104   4.771  17.101  13.009  0.1278  0.0902  0.0485
15296W        W31105   5.482  17.390  13.607  0.0248  0.2737 -0.2087
15297W        W31106   6.138  16.490   0.956  0.3039  0.1390 -0.2301
15298W        W31107   0.470  13.164  12.465  0.3314 -0.2004 -0.1510
15299W        W31108   0.447   3.339   4.804 -0.2277  0.3146 -0.0988
15300W        W31109  17.098   9.824  15.648  0.0913 -0.0713  0.3669
15301W        W31110  16.160   3.360   3.380  0.1788  0.0129 -0.2250
15302W        W31111  11.739  16.465   2.862  0.2073  0.0559 -0.0776
15303W        W31112   7.560   9.640   5.448  0.0118  0.2384  0.1032
15304W        W31113  13.371   5.310  11.353 -0.1254 -0.2158  0.2449
15305W        W31114  11.832   9.943   0.689  0.3159  0.1560  0.1254
15306W        W31115   8.240  18.023  11.339 -0.5611  0.1972 -0.4309
15307W        W31116   9.373   2.726  11.961  0.0551  0.0525 -0.0442
15308W        W31117  14.991  14.035  15.658 -0.2942 -0.1182 -0.0809
15309W        W31118  11.153  12.728   1.603  0.1772 -0.0575 -0.1760
15310W        W31119   9.798  13.749  12.269  0.0193  0.0721  0.2066
15311W        W31120   1.841  11.378   1.997 -0.1234 -0.1136 -0.0178
15312W        W31121  14.905   5.558   1.727  0.0655 -0.1170 -0.1759
15313W        W31122  17.482   1.254  14.925  0.0069 -0.3208 -0.1044
15314W        W31123  13.503  10.470   2.304  0.1664  0.0460  0.1198
15315W        W31124   2.499  16.939  14.300 -0.2146 -0.0669 -0.0844
15316W        W31125  17.636   2.216   3.244  0.0949 -0.2923  0.1010
15317W        W31126   1.821   1.823   4.967  0.0131  0.2019 -0.0374
15318W        W31127  13.080   0.555   0.817 -0.3119 -0.1339 -0.0750
15319W        W31128   4.903  12.173  13.447 -0.1393 -0.0729  0.0362
15320W        W31129  15.306   7.172   0.604  0.0192 -0.3122 -0.3689
15321W        W31130   4.468   6.587  14.244 -0.0634 -0.0980 -0.4821
15322W        W31131  11.111  12.082  15.301 -0.0871  0.0836 -0.0438
15323W        W31132  16.535   3.838   3.516  0.0765  0.0421  0.1236
15324W        W31133   9.562  14.203  12.082 -0.0864  0.1760  0.1156
15325W        W31134  11.413   1.537  14.460  0.2269  0.1747  0.1701
15326W        W31135   0.152   4.310   6.568 -0.0778  0.2201  0.0803
15327W        W31136  14.194  10.616   0.109  0.2309  0.2158 -0.2144
15328W        W31137  15.535  13.952   2.632  0.5427 -0.0362 -0.0880
15329W        W31138  11.703   0.011   1.665  0.0340 -0.1833  0.4725
15330W        W31139  17.226  10.852  12.857  0.0352  0.3717 -0.0582
15331W        W31140  16.908  17.766  13.315 -0.0313 -0.1970 -0.1194
15332W        W31141  15.103   3.630  12.368 -0.2148  0.1399  0.1221
15333W        W31142  11.142  13.987   5.501  0.0588  0.0874 -0.0459
15334W        W31143   6.487  14.359  13.291  0.1649  0.2738 -0.2127
15335W        W31144  13.190   4.108  15.309  0.2437  0.0871  0.2018
15336W        W31145   7.818   2.044  11.989 -0.3768 -0.0898 -0.5509
15337W        W31146   0.592  16.015   1.150  0.0060  0.1403  0.2087
15338W        W31147  15.717  17.206   5.513 -0.2095  0.2757  0.0088
15339W        W31148  14.678   9.026  14.212  0.1845 -0.0674  0.0884
15340W        W31149  11.181  14.926  13.881 -0.1451  0.1088  0.1612
15341W        W31150  12.199   9.148   3.117  0.2897  0.2627 -0.0607
15342W        W31151  12.670  15.344  11.852 -0.1057 -0.3849  0.4579
15343W        W31152  11.491   1.065   6.186 -0.0644  0.2552  0.0747
15344W        W31153   7.367   6.857  12.955  0.1758 -0.1450  0.1057
15345W        W31154   5.554   5.273   0.815 -0.1767 -0.0329 -0.0871
15346W        W31155  16.975   1.408  15.449 -0.2972 -0.1404  0.2836
15347W        W31156  11.861  12.526  15.068  0.3032 -0.0545 -0.2106
15348W        W31157  12.902  13.639  14.027  0.1710 -0.0332 -0.2314
15349W        W31158   7.277   0.526  13.212  0.0925  0.0939  0.0432
15350W        W31159   3.046   9.810   6.539  0.0239  0.0365 -0.2967
15351W        W31160  17.762   2.668   1.618 -0.0863 -0.0313 -0.0491
15352W        W31161  16.122   3.534  15.828 -0.1478  0.0678 -0.2282
15353W        W31162   8.215   8.011  12.413 -0.2560 -0.1152 -0.0853
15354W        W31163   9.628  10.274  12.424 -0.0777  0.0030 -0.2528
15355W        W31164   6.398   0.897  14.803 -0.1652 -0.1179 -0.2517
15356W        W31165  14.263  13.841   4.112  0.0501 -0.1138  0.1094
15357W        W31166   4.965  14.525   1.268  0.3792 -0.1805  0.1140
15358W        W31167  14.617   2.705   3.105  0.1763 -0.3231  0.1528
15359W        W31168   7.662  17.061  12.937 -0.1566 -0.1261 -0.4133
15360W        W31169  13.527  11.539  14.333  0.0921  0.0662  0.0847
15361W        W31170   3.869   5.878   2.736  0.0846  0.0039  0.0676
15362W        W31171   0.842  13.458  13.467  0.2379 -0.2825 -0.1650
15363W        W31172  11.792   7.535   2.564 -0.2486 -0.0486  0.4290
15364W        W31173   6.307  11.622  11.785  0.1380 -0.0608 -0.3163
15365W        W31174  16.416  10.526  15.249 -0.0412 -0.1370 -0.0427
15366W        W31175   9.938   9.096   1.066 -0.0925  0.0755 -0.1535
15367W        W31176   9.793   5.262   1.737 -0.1402 -0.1393  0.1895
15368W        W31177  18.141  10.871  13.517 -0.0449  0.0579 -0.1905
15369W        W31178  11.392  17.507   0.935  0.3017 -0.0428  0.4677
15370W        W31179   1.278  11.057   3.640  0.0380 -0.2233  0.0307
15371W        W31180   1.298  13.924   2.145  0.0153 -0.3674 -0.1037
15372W        W31181  14.917  11.132  12.521 -0.1208 -0.2665 -0.0278
15373W        W31182  16.367   8.512  12.067  0.2341  0.0708 -0.0331
15374W        W31183  14.558  10.155   4.939 -0.1108 -0.1406  0.0096
15375W        W31184   4.661   5.768  16.034 -0.0735  0.0794  0.0004
15376W        W31185   3.844   3.315   2.766 -0.2867  0.0320  0.1869
15377W        W31186   2.793   5.912  12.091  0.1916 -0.0435 -0.0790
15378W        W31187  13.627  10.769  14.847  0.0496  0.0607 -0.0418
15379W        W31188  10.020  10.461  11.017  0.0503  0.3764  0.0722
15380W        W31189   9.380   9.717   3.223  0.1388 -0.2594 -0.0178
15381W        W31190  14.889   8.394  14.951 -0.2458  0.1206 -0.0056
15382W        W31191   5.635  11.986  10.992  0.0181  0.0814  0.0589
15383W        W31192   1.280  11.692   4.450 -0.0082 -0.0765  0.1851
15384W        W31193   9.185   1.101  13.577  0.4214  0.0892 -0.1843
15385W        W31194  13.249   9.871  10.953 -0.2958 -0.0224  0.1344
15386W        W31195  12.974  16.274  16.359  0.3286  0.0131  0.2217
15387W        W31196  11.449   8.866  14.926  0.1181 -0.0073 -0.0473
15388W        W31197   9.466   4.833  11.889  0.0306 -0.0034  0.0558
15389W        W31198  17.259  10.690  15.355  0.0439  0.0397  0.1006
15390W        W31199  12.476  10.440  14.068 -0.1101  0.2388  0.0806
15391W        W31200   3.072  10.201   0.648  0.2054 -0.3244  0.1787
15392W        W31201   8.542   6.463   3.533 -0.3714  0.1501  0.1084
15393W        W31202   1.476  13.256  12.329  0.4007 -0.0667  0.0943
15394W        W31203   4.852   3.273   1.240  0.0700 -0.1509  0.0723
15395W        W31204   9.386   1.771   4.278  0.1101  0.0610  0.1783
15396W        W31205  14.616  10.239  11.780  0.2433 -0.6530  0.1574
15397W        W31206   0.584   5.438   3.709  0.1344  0.2263 -0.0059
15398W        W31207  18.102   0.570  12.171  0.0713  0.1653 -0.0657
15399W        W31208  18.003  14.442  11.782  0.1567  0.0196  0.0281
15400W        W31209   3.076  12.736   1.221 -0.0355  0.1465 -0.0858
15401W        W31210  12.246  17.387  12.772 -0.2978  0.0447 -0.0722
15402W        W31211  15.522   6.369   3.262 -0.0225 -0.0364  0.5714
15403W        W31212  11.052   6.760   6.394 -0.0198 -0.1060 -0.3571
15404W        W31213   7.051  11.771   1.387 -0.0623  0.2683 -0.0856
15405W        W31214  13.183  13.014  12.783  0.0306  0.2121 -0.1683
15406W        W31215  13.906   6.284   5.009 -0.3313  0.4387 -0.0191
15407W        W31216  12.937   7.346   2.769 -0.0766 -0.2676  0.2122
15408W        W31217   2.689  17.089  13.701  0.0471  0.0770 -0.0145
15409W        W31218  13.156   8.196  12.154 -0.2114 -0.2865 -0.1450
15410W        W31219   0.145   8.398   0.118  0.0425  0.1369 -0.3105
15411W        W31220   1.628   1.081  12.332 -0.0888  0.1797 -0.1614
15412W        W31221   6.270   3.777  13.319  0.3874 -0.0268  0.1389
15413W        W31222   7.998   3.368   4.023  0.2439 -0.1424 -0.4744
15414W        W31223   5.155  12.649   0.244  0.0365 -0.1436 -0.2488
15415W        W31224  10.226   0.474   5.426 -0.0261 -0.2194 -0.0794
15416W        W31225   6.367   7.589   3.690  0.0033  0.0765 -0.4569
15417W        W31226  16.106   8.534  15.509 -0.4572  0.0246  0.1649
15418W        W31227  12.169   2.475  13.521 -0.1946  0.2116  0.1055
15419W        W31228   2.407  17.687  15.932 -0.2110  0.1358 -0.2325
15420W        W31229   4.953  13.968   4.241  0.0229  0.1157 -0.0478
15421W        W31230   2.974  16.707   1.994 -0.2445  0.0834 -0.1130
15422W        W31231  16.544  13.344  12.543  0.0301  0.0633  0.1019
15423W        W31232  11.827  14.661   2.181  0.0334  0.0118 -0.2103
15424W        W31233   6.997   1.526  10.798 -0.1442  0.0377 -0.2611
15425W        W31234   1.453   2.340   4.322  0.2114  0.1717 -0.1160
15426W        W31235   9.778   9.890  15.176  0.0960  0.3461  0.1560
15427W        W31236   6.047   2.775   4.968  0.1870 -0.1742 -0.1293
15428W        W31237  12.790  13.514   0.648 -0.0447  0.1125 -0.3409
15429W        W31238   6.365   5.853  15.348 -0.2996  0.0410 -0.0022
15430W        W31239   5.126   7.555   0.476  0.2452  0.0571 -0.1761
15431W        W31240  11.069   9.620  11.223 -0.0606 -0.0757 -0.2428
15432W        W31241   7.725  13.452  13.359 -0.1168  0.3865 -0.4247
15433W        W31242   9.968   3.861  13.598  0.1725 -0.1374 -0.0286
15434W        W31243  18.212   3.376   1.364  0.1938 -0.2887 -0.0546
15435W        W31244   4.363  14.145   2.220  0.2706 -0.1058 -0.1363
15436W        W31245  15.206   1.738   4.729  0.1233 -0.0967 -0.0520
15437W        W31246  14.697   4.502  14.188  0.1591  0.1708 -0.0165
15438W        W31247   3.187   1.126   1.099 -0.0570 -0.0305  0.2662
15439W        W31248  15.668   5.856  14.234 -0.2088  0.0430  0.1934
15440W        W31249  15.862   4.524   2.554 -0.1595 -0.2482  0.1663
15441W        W31250  11.430  12.303  14.989  0.2062  0.0744 -0.0033
15442W        W31251  12.371   8.972  10.817 -0.1506 -0.0931 -0.0165
15443W        W31252   8.607  16.472  15.324  0.3737 -0.0630 -0.0837
15444W        W31253   5.785   0.808   1.393 -0.1646  0.1018  0.0299
15445W        W31254   2.942  12.305  14.463  0.4901  0.0121 -0.1605
15446W        W31255  15.407  11.483   0.367  0.0100 -0.2487  0.0677
15447W        W31256  12.544  11.960   4.848  0.2236 -0.1991  0.0167
15448W        W31257   4.127   3.898   0.934 -0.0594 -0.1599 -0.5052
15449W        W31258   0.319   5.362   0.540 -0.0349 -0.0355 -0.1899
15450W        W31259  11.737   0.885   3.076 -0.0116 -0.0149 -0.1553
15451W        W31260   7.955  12.792   2.566 -0.0235 -0.0897 -0.1365
15452W        W31261   9.500  10.860   5.116  0.1472  0.2815  0.3849
15453W        W31262   0.870  16.396  13.583 -0.1978 -0.2235 -0.1811
15454W        W31263   7.309   3.730  13.492  0.1060  0.5125 -0.1044
15455W        W31264   4.867   8.878  13.251  0.2190  0.0544  0.1223
15456W        W31265  17.023   6.336  14.215 -0.0688 -0.1514  0.2811
15457W        W31266   9.188   4.965  15.657 -0.2773 -0.0933  0.1049
15458W        W31267  15.528  14.394  14.640  0.2475  0.2259 -0.1151
15459W        W31268  17.927  17.014  13.808  0.2043  0.1854  0.1107
15460W        W31269  10.335  16.813   0.296  0.1377 -0.2162  0.2346
15461W        W31270   8.222  12.741  14.940  0.2028 -0.2734  0.0179
15462W        W31271  11.107  10.751   3.496 -0.3723  0.0888  0.2389
15463W        W31272   3.767   6.164   4.643  0.3438 -0.1977 -0.2234
15464W        W31273  13.998  11.426   3.721 -0.0778  0.1906 -0.4157
15465W        W31274   4.334   5.178  11.219  0.3626  0.2036 -0.2272
15466W        W31275   9.034   6.108   4.947 -0.0240 -0.3736 -0.1556
15467W        W31276   1.311   1.135   5.884  0.2237  0.2734  0.0891
15468W        W31277  14.072   7.936   3.787  0.0409  0.1118 -0.2222
15469W        W31278  14.531  10.649  14.378 -0.0825 -0.1732  0.1559
15470W        W31279  16.308   8.911  15.281 -0.2200  0.0420 -0.2145
15471W        W31280  12.497  18.204  13.353  0.1776 -0.1847 -0.3766
15472W        W31281  14.470   6.429   2.619 -0.2632  0.1675 -0.0172
15473W        W31282   5.786  14.746   5.041  0.0834 -0.1805  0.0027
15474W        W31283   5.954   5.829   1.744 -0.0140 -0.0273 -0.2242
15475W        W31284   2.693  11.554   0.884  0.0384 -0.0386 -0.2913
15476W        W31285  15.109   0.273  13.484 -0.0024 -0.0303 -0.0724
15477W        W31286  17.738  16.046   5.405 -0.0463 -0.0587  0.2383
15478W        W31287  17.073   3.573  15.989  0.0685 -0.1548  0.1284
15479W        W31288  14.190   7.390  11.983  0.2802 -0.2966 -0.3946
15480W        W31289  13.353   0.809  14.951  0.1178 -0.0969  0.2745
15481W        W31290   8.866   1.426  15.937  0.0624  0.0105  0.0014
15482W        W31291  16.610  10.887  11.557 -0.0929 -0.0636 -0.2217
15483W        W31292   2.936   2.079   0.335  0.2740 -0.0813  0.0278
15484W        W31293   5.422   0.598   4.747  0.0048 -0.0965 -0.3253
15485W        W31294   8.185  16.609   0.325 -0.1074 -0.0709 -0.5310
15486W        W31295   8.916   3.979  14.225  0.1386  0.1091  0.4132
15487W        W31296   3.227   9.515  13.017  0.0194  0.0320  0.1022
15488W        W31297   7.235  10.344  12.705  0.0202  0.2143 -0.0933
15489W        W31298   1.301   7.153   3.933 -0.2511 -0.3492  0.3857
15490W        W31299   2.371  10.252  15.185 -0.0073 -0.0104 -0.1024
15491W        W31300   7.285  17.257   2.343  0.1079 -0.0930  0.1579
15492W        W31301   0.643   7.527   4.756 -0.0165 -0.0386  0.0383
15493W        W31302   2.837  14.426  13.575  0.3165  0.1993  0.0354
15494W        W31303   5.738  11.522  11.120 -0.2529 -0.1761  0.1047
15495W        W31304  13.791   9.143   3.494  0.0520 -0.2355  0.2057
15496W        W31305  14.564   1.458  12.821 -0.2335  0.0028  0.0087
15497W        W31306   0.214   5.530   0.074  0.0648  0.1273 -0.4321
15498W        W31307  10.436  14.932   3.885 -0.2965  0.1823 -0.1347
15499W        W31308   9.513  10.670   4.095 -0.1395 -0.0145  0.1832
15500W        W31309  16.753  10.046  16.073 -0.2945 -0.1453  0.0610
15501W        W31310   5.372   0.442  15.656 -0.0818  0.0312  0.0756
15502W        W31311   8.406   4.342   5.081  0.2318  0.1293  0.1803
15503W        W31312   8.394  14.177   1.258 -0.2265 -0.0235  0.2569
15504W        W31313   2.950  10.043  15.391 -0.0378 -0.1166 -0.2938
15505W        W31314  10.522  13.316   3.786 -0.2331 -0.0486  0.0641
15506W        W31315  16.593  18.048   0.875 -0.1237  0.0281  0.0341
15507W        W31316  10.128   4.453   0.975 -0.1072  0.0415  0.1740
15508W        W31317  17.895  15.791  12.268 -0.2783  0.0455  0.0036
15509W        W31318   6.589  10.900   0.150  0.1368  0.1864  0.0293
15510W        W31319  10.242   9.149  14.518  0.1777  0.2909  0.0357
15511W        W31320   9.067  14.960   5.164  0.1368  0.1276  0.0937
15512W        W31321  15.037  13.131  11.098  0.1203 -0.2813  0.0468
15513W        W31322  12.599  12.607   1.554 -0.1478  0.0839 -0.0474
15514W        W31323  12.086   4.653  12.326 -0.0877  0.2053  0.0568
15515W        W31324  14.249  16.015   1.220 -0.1849 -0.1650  0.2097
15516W        W31325  14.727   4.199   2.888 -0.0127 -0.0956  0.2068
15517W        W31326  16.003   7.522  13.339  0.0633  0.2534 -0.0939
15518W        W31327  12.256   3.695  13.424  0.0566 -0.4124  0.1723
15519W        W31328   0.112   7.729  13.438  0.1136  0.1793 -0.1353
15520W        W31329  10.301   2.231  11.861  0.0180 -0.0266  0.4265
15521W        W31330   8.415   5.321   6.018 -0.0303  0.0145  0.3792
15522W        W31331   6.502   4.915  10.808 -0.1970 -0.2928  0.0977
15523W        W31332  14.082   4.329  15.122  0.1942 -0.1671 -0.1778
15524W        W31333  16.494   3.630   1.228  0.0138 -0.2846 -0.0320
15525W        W31334  16.913   6.583  12.119  0.1954 -0.0827 -0.0359
15526W        W31335  12.855   8.466  15.292  0.1822 -0.1842  0.0057
15527W        W31336  13.608   3.068  12.323 -0.1210 -0.0353 -0.2023
15528W        W31337  10.650  15.307  12.878 -0.0191 -0.1142  0.0623
15529W        W31338  17.922  14.765  12.276  0.1662 -0.1392  0.0589
15530W        W31339   6.370   2.938  11.524  0.2096 -0.0379  0.0026
15531W        W31340   1.195  15.289  13.352  0.2179 -0.0051 -0.1823
15532W        W31341   5.331   1.643  10.158  0.1121  0.2283 -0.0952
15533W        W31342  14.632   3.612   5.399  0.3935 -0.1503 -0.0213
15534W        W31343  17.131  16.274   3.308  0.0484 -0.0859 -0.0329
15535W        W31344  14.540  13.605  15.466  0.2107  0.0914 -0.0820
15536W        W31345  16.458   6.338  16.110  0.0170 -0.1925 -0.0537
15537W        W31346  12.002   4.961  13.198 -0.2585  0.0070  0.1889
15538W        W31347   4.363   7.465   5.035  0.1000 -0.2332  0.1712
15539W        W31348   8.103  13.598  13.819  0.2998  0.1187  0.0985
15540W        W31349   6.595  13.023   0.565  0.0372  0.1210  0.1290
15541W        W31350  12.078  15.698  11.873  0.1394 -0.0039  0.0323
15542W        W31351   9.905  14.564   0.314 -0.1366  0.0740  0.0968
15543W        W31352  16.637   5.320   3.500  0.1459 -0.1361  0.0614
15544W        W31353   1.766  15.317   4.501 -0.1306 -0.0281  0.1022
15545W        W31354  13.122  17.141  13.758  0.0984 -0.4246 -0.2104
15546W        W31355   4.182   6.712  16.040  0.0915 -0.1162  0.2500
15547W        W31356   3.479  15.935   0.092 -0.0018 -0.1421 -0.0787
15548W        W31357  15.274   3.005   3.726  0.0303  0.0056 -0.2942
15549W        W31358   7.745  10.053  13.503  0.3273  0.2565 -0.0605
15550W        W31359   6.853   1.196  11.630 -0.3662 -0.2002  0.3478
15551W        W31360   4.361  14.420   4.954  0.1907  0.0304 -0.4381
15552W        W31361  11.086   8.255  15.672  0.3981  0.2015  0.1404
15553W        W31362  11.350   5.811  14.873  0.1412 -0.2037 -0.0631
15554W        W31363  14.776   5.153   3.160 -0.3374 -0.1227  0.2874
15555W        W31364   0.062  14.839   1.689 -0.1995  0.2626 -0.0169
15556W        W31365  12.527  14.295   5.489 -0.0500 -0.2518 -0.1552
15557W        W31366  15.432   3.511  13.426  0.0584 -0.0185 -0.0445
15558W        W31367  17.850   0.661  11.744 -0.2182  0.0975 -0.1531
15559W        W31368   1.776   4.441  14.474 -0.1855  0.0651 -0.1354
15560W        W31369  14.625  11.263  15.554  0.2910  0.0184  0.1123
15561W        W31370   6.629   4.425  12.022 -0.0183  0.1878 -0.0175
15562W        W31371  14.970  14.082   1.964 -0.0949  0.2273  0.3060
15563W        W31372  12.479  10.182  11.574 -0.0005  0.0823  0.1006
15564W        W31373  13.698   7.896  13.036 -0.0108 -0.0733  0.1733
15565W        W31374  16.604  17.615   0.630 -0.0084 -0.1304 -0.2271
15566W        W31375  12.890   9.399  13.329 -0.3801  0.0719 -0.0316
15567W        W31376  10.006  16.172   6.186  0.1572 -0.0282  0.0756
15568W        W31377   4.281   2.180   3.259 -0.0305 -0.1998 -0.0078
15569W        W31378  11.238   0.438   3.981 -0.3723  0.0103 -0.0661
15570W        W31379   9.160   8.311  14.485 -0.1433 -0.0766  0.3589
15571W        W31380   5.457   5.520  11.534  0.2917 -0.0473 -0.1577
15572W        W31381   5.015  10.877  13.494  0.0491  0.1039  0.4296
15573W        W31382   1.654  17.618   4.953 -0.1246  0.0061  0.2868
15574W        W31383   3.068   3.150  15.000  0.1610 -0.0667  0.0742
15575W        W31384  14.410   8.504   2.345  0.3686  0.2657 -0.1155
15576W        W31385   5.491  11.945   2.093 -0.0365 -0.2058  0.1851
15577W        W31386  12.639  13.250   4.134 -0.2189 -0.1154 -0.1283
15578W        W31387   8.957   9.021  12.714 -0.3054  0.5426 -0.2729
15579W        W31388  14.972  16.438  15.567  0.1920 -0.3980  0.0485
15580W        W31389  11.216   3.134  15.137  0.0151  0.0515  0.1118
15581W        W31390  17.808   1.434   3.583  0.1385 -0.4633  0.2234
15582W        W31391  14.670  17.194  13.114  0.2112 -0.2116  0.1665
15583W        W31392   8.899   5.023  10.725 -0.1791 -0.0021  0.1410
15584W        W31393   7.187  12.809  12.689  0.0065  0.1615 -0.1906
15585W        W31394  13.922  17.129  16.158  0.3190  0.1210  0.1219
15586W        W31395  12.330   0.499  14.195  0.1371  0.0819 -0.0886
15587W        W31396  10.743   3.575  13.310 -0.1491 -0.2734  0.1015
15588W        W31397   9.911   6.438   3.239  0.2442 -0.0634  0.0378
15589W        W31398   9.893  13.271  16.020 -0.0563  0.0934 -0.2785
15590W        W31399  13.363  11.017  15.282  0.0974  0.0142  0.1916
15591W        W31400  14.627  10.112  14.542 -0.3821  0.0800 -0.1219
15592W        W31401   5.327  10.614   5.156 -0.4048  0.2613 -0.2968
15593W        W31402   1.203   4.850   6.628  0.0334 -0.2553 -0.0744
15594W        W31403   6.819   3.384   0.275  0.1760  0.3506 -0.1417
15595W        W31404  10.925  12.439  11.765 -0.0542 -0.4038 -0.1543
15596W        W31405   9.896  14.923   4.313  0.1460 -0.1110  0.0320
15597W        W31406   5.813  16.479  14.856 -0.2707  0.1713  0.0261
15598W        W31407   3.548  16.710  15.411  0.1691 -0.2555 -0.1358
15599W        W31408  16.117  14.415  16.225 -0.3867  0.1770 -0.1999
15600W        W31409   1.858  11.616   0.705 -0.0310  0.1183 -0.0921
15601W        W31410  10.448   7.960   2.417  0.0620 -0.0499 -0.4362
15602W        W31411   2.744  12.601   1.806  0.1020  0.0094  0.3249
15603W        W31412  16.026  13.928   0.044 -0.1004 -0.1179  0.1169
15604W        W31413   8.250   9.108  12.535 -0.1013 -0.1376 -0.2527
15605W        W31414  12.490   3.311  16.064 -0.2383 -0.3243 -0.1399
15606W        W31415  16.399  10.921  13.471 -0.2015  0.1312  0.0191
15607W        W31416  10.056  14.028  14.510 -0.0812 -0.2731 -0.0218
15608W        W31417  15.077   1.610   5.647 -0.1690 -0.0559  0.0269
15609W        W31418   8.511  15.512  11.270  0.2922  0.0651 -0.1511
15610W        W31419   4.477   6.902  15.448  0.2957  0.1570  0.2994
15611W        W31420  15.766   4.163  15.668 -0.0421 -0.0250 -0.0428
15612W        W31421   8.368  11.610  15.852 -0.0009  0.3531 -0.0728
15613W        W31422   7.080  16.743   1.519  0.0683 -0.2555  0.0087
15614W        W31423   6.650  16.149   4.001 -0.3076 -0.1435 -0.1553
15615W        W31424  16.068  11.253  10.804 -0.1704  0.0493  0.0417
15616W        W31425  10.247   6.144  12.677  0.0595 -0.1324  0.1820
15617W        W31426   0.874   8.748  12.410 -0.1859 -0.3072 -0.0196
15618W        W31427   1.106  12.077  16.126 -0.1765 -0.1037  0.0537
15619W        W31428   5.149  11.269  11.462 -0.2838  0.1265  0.2198
15620W        W31429   6.133   7.956   5.685 -0.1777  0.0314 -0.0147
15621W        W31430   3.142   7.951   3.912 -0.0461 -0.1312 -0.0509
15622W        W31431   2.071  14.045  13.939  0.3628  0.0918 -0.3310
15623W        W31432  10.910  12.356  10.170  0.0223  0.1523 -0.1057
15624W        W31433   1.525  17.157   4.841  0.0269 -0.2573 -0.2068
15625W        W31434  15.203  13.545   0.245 -0.1899  0.1143  0.2408
15626W        W31435  12.537   0.083  14.801  0.0011 -0.0012 -0.1602
15627W        W31436  12.846  11.625  15.908  0.1198 -0.2760  0.0290
15628W        W31437   5.008   0.405   3.442  0.1997  0.0600  0.1429
15629W        W31438  14.162   3.112  11.538  0.2592  0.1857  0.0663
15630W        W31439  12.950   2.732  15.418 -0.3360 -0.0763 -0.0529
15631W        W31440  16.293   1.536  13.921  0.0626  0.1314 -0.0407
15632W        W31441   6.926   0.329   5.892  0.1435  0.1201  0.0748
15633W        W31442  12.948   0.370  14.710  0.0947 -0.1042  0.0480
15634W        W31443  14.413  10.211   0.899 -0.3369 -0.1188  0.2093
15635W        W31444   4.330  11.349  14.689  0.0403  0.1705 -0.1600
15636W        W31445   2.511   8.445   2.050  0.4481 -0.0537  0.3884
15637W        W31446   6.310   2.739   3.176 -0.0733  0.0589  0.0850
15638W        W31447   6.025  13.816   0.285  0.1460 -0.2260 -0.1762
15639W        W31448  13.828  15.621   0.286 -0.0308 -0.1157  0.1724
15640W        W31449   1.080   9.705   6.123 -0.2553 -0.0940 -0.2121
15641W        W31450   7.393   8.991   0.559 -0.2909  0.1952  0.0396
15642W        W31451  10.020   6.268  15.938  0.0162 -0.4652 -0.1505
15643W        W31452  15.829  11.682   4.729  0.1711 -0.1159  0.0207
15644W        W31453   3.200   1.282   1.559  0.0448 -0.1837 -0.0760
15645W        W31454   1.045  14.827   4.762  0.0350 -0.0499 -0.0381
15646W        W31455   5.529   7.293   2.510  0.2583  0.1457  0.3323
15647W        W31456  10.031  16.418   2.719  0.1595  0.1442 -0.1092
15648W        W31457  11.033   0.596  14.085 -0.1443  0.2947 -0.0071
15649W        W31458  12.461   4.980  11.447 -0.1330 -0.3297 -0.2381
15650W        W31459   1.494   2.126   4.766  0.0006  0.0310 -0.2611
15651W        W31460  11.080   3.953  13.492 -0.1565  0.2137 -0.0091
15652W        W31461  16.651   7.296   4.944 -0.2663 -0.0377 -0.0308
15653W        W31462   8.395   7.683  13.603 -0.0204  0.0398 -0.0699
15654W        W31463  14.211  17.694  13.417 -0.1424 -0.2739  0.1995
15655W        W31464   6.697   6.705   5.684  0.2121  0.0301 -0.0947
15656W        W31465  14.295  17.731  14.363 -0.2852 -0.1545 -0.1928
15657W        W31466  13.727   7.064   3.991 -0.0724 -0.3284 -0.0706
15658W        W31467   1.857  10.740  12.134  0.0935 -0.3545  0.1124
15659W        W31468   0.363   2.607  15.584 -0.0525  0.3754 -0.0403
15660W        W31469  15.255  14.247   5.077  0.1616 -0.0775  0.0540
15661W        W31470   6.568   5.659  14.139 -0.2998  0.1228  0.1028
15662W        W31471  11.631  16.314  11.238  0.0349 -0.1070  0.0836
15663W        W31472   7.771  11.401   2.505  0.1837  0.1895  0.2029
15664W        W31473  10.307  10.071   4.276 -0.1389 -0.0089  0.1917
15665W        W31474   5.138  10.390   2.068  0.0589  0.1674 -0.1578
15666W        W31475   4.385  12.893  13.825 -0.3518  0.1590 -0.2495
15667W        W31476   8.351   6.847  13.042  0.1907 -0.0740  0.0303
15668W        W31477  15.432  12.035   2.051 -0.1457  0.2631 -0.2023
15669W        W31478  12.783   8.846  11.118  0.2150  0.1731  0.1337
15670W        W31479   6.763  15.307  12.142 -0.2026  0.2325  0.1080
15671W        W31480   1.269   7.343  15.266  0.3482 -0.0217  0.0187
15672W        W31481  10.161   9.195  12.163  0.1856 -0.0596  0.1467
15673W        W31482  14.948  15.919   4.594 -0.1595  0.0599  0.0362
15674W        W31483  17.843   5.611   3.983 -0.0418  0.0461  0.0072
15675W        W31484   9.483   6.791   0.602  0.0977 -0.5019  0.0560
15676W        W31485   9.433  12.827  12.568  0.2887 -0.2396 -0.0079
15677W        W31486   1.748  15.575   4.951 -0.2524 -0.2339  0.0806
15678W        W31487  15.683   6.935  11.730 -0.1941  0.6175  0.0684
15679W        W31488   2.211   0.530   3.057  0.1802 -0.0124  0.1534
15680W        W31489  10.520  11.744  12.468  0.0541  0.3775 -0.0119
15681W        W31490  17.981   3.349  16.117 -0.2742 -0.2036  0.1830
15682W        W31491   3.560  17.026   5.027 -0.1532  0.0277 -0.0694
15683W        W31492   4.817   1.447  13.222  0.0935 -0.1212 -0.0047
15684W        W31493  17.741  16.147   1.959 -0.4987  0.0846 -0.1465
15685W        W31494  13.226   0.618   5.228  0.1339 -0.1053 -0.1733
15686W        W31495   1.482   4.945  11.155  0.3228 -0.1254  0.2457
15687W        W31496   3.597  11.401   2.879 -0.1161 -0.0127 -0.0808
15688W        W31497  17.778   4.857   1.924 -0.1495  0.1409 -0.0899
15689W        W31498  13.498   3.371   2.374  0.1723  0.1793  0.0494
15690W        W31499   9.658   5.251   0.835  0.1349  0.1013  0.3400
15691W        W31500  12.849   7.067   4.313  0.0622 -0.1430 -0.0589
15692W        W31501  10.648   5.906   5.405  0.2728  0.4453  0.4025
15693W        W31502   4.446  18.102  13.311 -0.5064  0.1080  0.3452
15694W        W31503  10.524   8.855   3.758 -0.0658 -0.0283  0.1772
15695W        W31504   3.669  16.456   1.715 -0.0215  0.0110 -0.0215
15696W        W31505   0.731   6.901   1.245 -0.0314  0.3502 -0.0122
15697W        W31506  13.106   2.303  15.944  0.0499  0.1095  0.0093
15698W        W31507   8.512  16.290  11.506 -0.1518  0.0365 -0.1106
15699W        W31508   6.137   4.782  14.497 -0.2702 -0.0849 -0.2824
15700W        W31509  10.355  10.781   2.075 -0.0594  0.3121  0.0490
15701W        W31510   3.448  15.328   0.982  0.0399 -0.5178 -0.3165
15702W        W31511   1.264  16.250  11.110 -0.2195  0.2314 -0.0774
15703W        W31512  16.745   7.452   1.610 -0.1217 -0.0224 -0.2059
15704W        W31513  16.575  14.690  16.206  0.0363 -0.1833  0.2195
15705W        W31514   7.542  10.166  15.558 -0.1004 -0.0228  0.0633
15706W        W31515   8.564  12.953   3.197  0.0391  0.1456  0.1152
15707W        W31516  12.639   9.350  14.866 -0.3799 -0.0030 -0.0268
15708W        W31517   0.800  14.302  14.174 -0.1548  0.0132  0.1238
15709W        W31518   3.599   1.213  12.998  0.0776 -0.2006 -0.1778
15710W        W31519   0.601  13.577  15.261 -0.1366  0.0400 -0.3313
15711W        W31520   9.833  15.064   0.307 -0.1599 -0.3115 -0.1379
15712W        W31521   8.093  13.961  15.342 -0.2108 -0.2868 -0.2347
15713W        W31522   0.909   1.293   3.145  0.1325  0.0181  0.0444
15714W        W31523   5.141   1.893  12.057 -0.1249  0.0929 -0.2576
15715W        W31524   7.722   3.442   3.082 -0.3352  0.2592 -0.3751
15716W        W31525  13.627  11.635  15.645 -0.3731  0.1862 -0.2333
15717W        W31526   7.979  12.395   4.325 -0.2548 -0.2346  0.5419
15718W        W31527  12.630  14.067   0.807  0.0146  0.2654  0.0041
15719W        W31528   1.685   8.518  13.207  0.0286 -0.0912  0.0709
15720W        W31529   3.955  14.326   0.081 -0.1169  0.0182 -0.3795
15721W        W31530   6.457   8.103  12.094  0.2255  0.2605  0.1011
15722W        W31531   6.670   5.168   1.308 -0.0594 -0.3400 -0.1702
15723W        W31532  12.447  16.900   2.639 -0.6860  0.2533 -0.0910
15724W        W31533  17.907   1.906   4.538 -0.2751 -0.0002  0.5225
15725W        W31534  16.319  11.127   3.832 -0.1396  0.0890 -0.3244
15726W        W31535   7.964   9.923  11.486 -0.1164  0.1586  0.1657
15727W        W31536   9.217  10.785   1.552  0.0767 -0.3446  0.3818
15728W        W31537  15.687   3.399  11.746  0.0502  0.2926  0.3747
15729W        W31538  15.834   8.633   2.524 -0.2056 -0.0319 -0.1285
15730W        W31539   4.961  17.929  11.289  0.0353 -0.2930  0.2642
15731W        W31540  17.151  12.245  12.175  0.1906  0.1032  0.0399
15732W        W31541  16.999   6.617  16.331  0.1102  0.1078  0.1274
15733W        W31542   8.658  13.364   5.525 -0.0247 -0.1832 -0.0940
15734W        W31543   8.626   1.678   3.008 -0.0700 -0.1211 -0.0088
15735W        W31544  15.019   0.681  13.765  0.1607  0.2372  0.2503
15736W        W31545   5.864  12.631  11.273 -0.1367 -0.1999  0.0445
15737W        W31546   4.203  13.193  15.354 -0.0303  0.0301  0.2585
15738W        W31547  10.127  17.156  13.595  0.0513 -0.0407 -0.4740
15739W        W31548  10.852  15.007   5.985 -0.2440 -0.0188  0.1794
15740W        W31549   3.995   3.597  12.489 -0.2728  0.1638  0.0963
15741W        W31550  17.701  12.356   1.041  0.0255  0.0107 -0.1591
15742W        W31551  14.618  13.110   1.860  0.2103  0.2207 -0.2022
15743W        W31552   8.747   7.207  12.741  0.2791  0.2821  0.1592
15744W        W31553   8.756  14.485   5.267 -0.0814  0.2403  0.0341
15745W        W31554  15.527   2.852  12.918  0.0114 -0.1889 -0.1607
15746W        W31555   5.240  11.165  15.039 -0.0387  0.0572 -0.0332
15747W        W31556  13.302   7.364  11.007 -0.2558  0.0997 -0.1088
15748W        W31557   5.876   8.673   1.966 -0.1697  0.2592  0.0217
15749W        W31558  13.920   7.916  13.502  0.4376  0.2542 -0.1177
15750W        W31559   7.390   9.501  12.751  0.0698  0.0362  0.0632
15751W        W31560   0.960  11.004   5.471  0.0712 -0.0642 -0.1546
15752W        W31561   7.204   7.496  14.974  0.0250 -0.0480  0.1572
15753W        W31562  10.189  14.655   2.342  0.0207  0.1787 -0.1928
15754W        W31563   8.758  10.183  14.129 -0.0463  0.0954  0.1763
15755W        W31564  16.511   2.503   3.851  0.0659 -0.2438  0.1033
15756W        W31565  10.453  14.373  12.586  0.1633 -0.3787  0.2664
15757W        W31566   7.591   8.362  10.946  0.1760 -0.0350 -0.0950
15758W        W31567  13.844   6.979   3.126  0.0239  0.2172  0.1756
15759W        W31568  15.340   0.070  13.081  0.2115 -0.1096  0.2110
15760W        W31569   3.374  14.025  15.688  0.1525 -0.1294  0.0125
15761W        W31570  16.683   2.052   3.624 -0.0551 -0.4080  0.1837
15762W        W31571  15.225   9.395  14.433  0.2975  0.0841 -0.0465
15763W        W31572  12.027  16.202  12.608 -0.0743  0.0946 -0.1415
15764W        W31573   6.319   9.804   4.162  0.2109  0.0904  0.0512
15765W        W31574  12.225   1.175   4.386 -0.2899 -0.3006 -0.2002
15766W        W31575   3.030  12.395  15.317  0.2177  0.2064 -0.1222
15767W        W31576  15.334  10.550   5.334 -0.2649 -0.1256 -0.0296
15768W        W31577   7.240  17.756   0.249  0.0917  0.0583 -0.1608
15769W        W31578   0.932   4.148   5.400 -0.0924 -0.3260  0.2831
15770W        W31579  12.383  10.566  15.778  0.0323 -0.1734  0.1821
15771W        W31580   1.611   3.869   1.125  0.0612  0.0322  0.0809
15772W        W31581  16.686   6.984  11.295 -0.1600  0.0193 -0.3651
15773W        W31582  11.934   6.551  11.296 -0.3746  0.0823  0.0631
15774W        W31583   4.617   2.540  16.219  0.0603 -0.1574  0.1782
15775W        W31584   7.949   0.368  12.411  0.1440 -0.1410 -0.3029
15776W        W31585   4.496   6.144  13.503 -0.1554  0.0695  0.2665
15777W        W31586  10.019   7.769   2.221 -0.0835 -0.0019  0.3665
15778W        W31587   2.625   2.611   3.333  0.2661 -0.1047 -0.2151
15779W        W31588   9.928   4.623   5.035  0.1800  0.0310 -0.4037
15780W        W31589  12.214   3.183   5.437 -0.1530 -0.0460 -0.1390
15781W        W31590   1.589  15.627  11.253  0.0615 -0.0709  0.1348
15782W        W31591   9.896   2.893  14.327  0.1193  0.2883 -0.0650
15783W        W31592  13.526   6.928  10.193 -0.1220  0.2034 -0.1026
15784W        W31593   5.436  11.024   4.142 -0.0128  0.2412 -0.2716
15785W        W31594  10.757   2.996   2.421 -0.2843  0.1195 -0.0925
15786W        W31595   7.769  16.725   2.394 -0.0021  0.0212 -0.2062
15787W        W31596   2.151  13.227   4.278  0.2850 -0.2875 -0.0333
15788W        W31597  13.478  16.245   2.118  0.0001 -0.0838 -0.1373
15789W        W31598   0.977   7.302  13.126  0.1499 -0.0874 -0.3776
15790W        W31599   3.416  13.034   0.879  0.1182  0.2625 -0.3285
15791W        W31600  11.689  12.157  16.175 -0.0149 -0.0113 -0.0353
15792W        W31601   9.782   5.246   4.266  0.0081 -0.0908 -0.0041
15793W        W31602  17.063  16.963   1.418 -0.0086  0.2346  0.1221
15794W        W31603  10.172  16.321   5.121  0.1805 -0.1799  0.1944
15795W        W31604  10.915   6.549  12.860 -0.0833 -0.1624  0.3052
15796W        W31605  17.453  16.212  14.504  0.1106  0.2086  0.0408
15797W        W31606   5.835   8.716  10.631 -0.1556  0.1344 -0.0488
15798W        W31607   9.193  16.874   2.306 -0.1140  0.0466 -0.1417
15799W        W31608  15.337   5.732   4.389  0.1186  0.1804 -0.0949
15800W        W31609   4.336   7.874  13.671  0.2322 -0.0028  0.0012
15801W        W31610  16.110   7.794  13.985  0.1897  0.0197  0.2086
15802W        W31611  17.152  13.237   1.590 -0.1188  0.0175 -0.1055
15803W        W31612   0.143  11.314   2.131  0.1472 -0.2879 -0.0747
15804W        W31613   4.112  14.957   0.975 -0.0521 -0.2688  0.0864
15805W        W31614  11.855  17.260   1.985  0.0001  0.2644 -0.3659
15806W        W31615  17.651  10.572  15.119 -0.1274 -0.1206 -0.0701
15807W        W31616  15.111   3.104  15.995  0.1078  0.0936  0.1949
15808W        W31617   8.474   5.051   3.683  0.0948 -0.0489  0.0240
15809W        W31618  14.465   9.036   2.358 -0.3937 -0.2289  0.2302
15810W        W31619   0.358  16.372  15.715  0.0763 -0.1739 -0.1075
15811W        W31620  16.296   8.530  14.237  0.2760  0.1937 -0.0203
15812W        W31621   7.421   0.193  15.872  0.1415  0.4725 -0.1255
15813W        W31622   3.129   1.388   3.684  0.0957  0.1015 -0.2642
15814W        W31623  11.797   8.155  14.644 -0.1157 -0.0990 -0.1657
15815W        W31624   7.714   6.414   4.753 -0.1938  0.5168 -0.0796
15816W        W31625  14.930  14.294  13.806 -0.3893  0.0024  0.1782
15817W        W31626   6.065   2.982   2.741 -0.4229  0.1177  0.1043
15818W        W31627  13.484   4.702   3.382  0.1569 -0.0459 -0.0137
15819W        W31628   8.564  14.918   0.778 -0.1821  0.1672  0.0432
15820W        W31629  10.164   7.309  15.686  0.1974  0.0571 -0.1945
15821W        W31630   1.190  11.548   1.963  0.0129  0.1298  0.1131
15822W        W31631   1.788  13.716   3.548  0.0884  0.1416 -0.3597
15823W        W31632   8.136   0.330   5.038  0.0426  0.1659 -0.1929
15824W        W31633   9.113   3.476   2.571 -0.0093 -0.0679  0.3619
15825W        W31634   2.860  17.906  11.661  0.0715 -0.0906 -0.1951
15826W        W31635  16.872   9.296  13.609  0.1294  0.1765  0.0902
15827W        W31636   4.860   9.523   2.909  0.1181 -0.0376 -0.0795
15828W        W31637   6.871   1.987   1.730  0.6394 -0.0039  0.3153
15829W        W31638   5.475  16.412   6.066  0.2057 -0.1943 -0.0085
15830W        W31639  11.445   5.783  11.245  0.1046  0.3470  0.0971
15831W        W31640  16.520   3.444  13.479  0.1876 -0.0493  0.1135
15832W        W31641   1.903  10.101  10.383 -0.0270  0.1811  0.1394
15833W        W31642   2.358  11.073  13.233 -0.0216 -0.0275 -0.0108
15834W        W31643   7.811  16.198   2.621 -0.2080 -0.1189  0.1659
15835W        W31644   7.322   8.899  11.637 -0.0738 -0.0749 -0.1261
15836W        W31645   8.658   5.279   1.070  0.2442  0.0398 -0.2909
15837W        W31646   2.149   3.332   5.963  0.2138 -0.1855  0.0382
15838W        W31647  13.281   8.799  16.093  0.0382  0.2379 -0.0866
15839W        W31648  14.905   6.824  13.228 -0.0248 -0.1550 -0.0479
15840W        W31649   1.384  11.222  13.860  0.0895 -0.2538  0.0683
15841W        W31650  17.332   0.033   2.039 -0.1710  0.2488  0.2483
15842W        W31651  17.194   1.851  15.412 -0.2071 -0.0678  0.1441
15843W        W31652  16.719  12.709  15.352  0.0389 -0.0155 -0.1109
15844W        W31653  17.292   0.614  12.490  0.0958  0.0662  0.3541
15845W        W31654   7.439  10.549   4.902  0.0864 -0.1777  0.1968
15846W        W31655   0.842  13.926  12.264  0.1146 -0.2449 -0.4240
15847W        W31656   5.964   5.020   5.333 -0.3254 -0.0393  0.2456
15848W        W31657   9.506  15.153  12.009 -0.0027 -0.0870  0.0355
15849W        W31658   5.558   6.633   3.121 -0.2481  0.2590  0.0637
15850W        W31659  14.665   4.145  11.215  0.0956  0.1284  0.0091
15851W        W31660   5.917  11.385   0.701  0.0617  0.0800 -0.1447
15852W        W31661   1.862  12.180  13.945  0.3069  0.2335 -0.1117
15853W        W31662  11.151  16.172   1.310 -0.3889  0.3021  0.2431
15854W        W31663   8.169   5.039  13.654 -0.2799 -0.1218 -0.2010
15855W        W31664  10.941   2.911  14.132 -0.2196 -0.0251  0.0676
15856W        W31665  13.520   9.375  16.054  0.1168  0.0597  0.1414
15857W        W31666  10.101   8.148   3.557  0.1631 -0.0886 -0.0768
15858W        W31667   9.373   5.280  12.128  0.2331 -0.1243 -0.1391
15859W        W31668  14.257   9.174  14.905 -0.1113  0.0290  0.0008
15860W        W31669   1.814  17.447  12.610  0.0739  0.0795  0.1542
15861W        W31670   7.292  17.177   0.479  0.2425 -0.0623  0.1987
15862W        W31671   8.998  16.766   2.811 -0.2910 -0.2180  0.2269
15863W        W31672  15.534  13.339   4.811  0.1834 -0.3366  0.1185
15864W        W31673   6.235   6.301   3.771 -0.0144 -0.1805  0.1005
15865W        W31674  16.980   9.169   4.579 -0.0286  0.1177 -0.4092
15866W        W31675  11.963  15.214   2.925  0.3201 -0.2065 -0.1400
15867W        W31676  16.597   5.073   6.301  0.5298  0.0512 -0.1456
15868W        W31677  10.209   8.244  15.583  0.1144 -0.0695  0.0462
15869W        W31678   3.329   5.232   2.717 -0.0660  0.1128  0.1604
15870W        W31679  17.041   3.316   3.036 -0.0390 -0.1054 -0.0319
15871W        W31680  17.005   2.075  15.951  0.0769  0.0099 -0.1611
15872W        W31681   2.068  17.000  12.384 -0.0840  0.5345  0.0903
15873W        W31682  10.533  16.441  14.855  0.0462  0.1345 -0.2848
15874W        W31683   6.997   0.197   0.853  0.0950  0.0345 -0.0236
15875W        W31684   6.847  15.366  11.587  0.2773  0.0847  0.0937
15876W        W31685  17.140   1.139  12.220  0.1932 -0.0591  0.0045
15877W        W31686  15.566  16.531   2.102  0.0137  0.0833  0.2141
15878W        W31687   8.382  14.379   0.325  0.0874 -0.0001  0.0298
15879W        W31688  17.333  13.987  12.666 -0.1079 -0.0708  0.2158
15880W        W31689   3.595  17.891   1.879 -0.3010 -0.1549 -0.0888
15881W        W31690  14.021   4.008  14.180  0.0345 -0.0514  0.1280
15882W        W31691  11.053   9.791   3.726 -0.2317  0.2411  0.2081
15883W        W31692  13.993   2.991   0.648 -0.3451  0.1745  0.1608
15884W        W31693   8.555   2.519  13.250 -0.2500  0.1229  0.2944
15885W        W31694  17.365   4.303  12.711 -0.3656  0.0455  0.3005
15886W        W31695  16.230   8.935  11.113 -0.0082  0.0369 -0.1132
15887W        W31696   6.459   6.280   0.498 -0.0476  0.1524  0.1698
15888W        W31697  16.488  17.549  13.014  0.1172  0.3237 -0.0805
15889W        W31698  17.603  17.461  13.965  0.0980  0.2705  0.0937
15890W        W31699  12.160  15.080  11.987  0.3736  0.3619  0.1689
15891W        W31700   6.705  15.090   6.158 -0.1839 -0.2319 -0.4057
15892W        W31701  14.617   9.462  10.609 -0.1204 -0.0986 -0.0700
15893W        W31702  10.993   1.477  11.739  0.3933  0.0270 -0.0110
15894W        W31703   3.768   1.773   4.889 -0.1469  0.1172 -0.0809
15895W        W31704   9.015   4.858   2.311 -0.2410  0.0087  0.2956
15896W        W31705   4.899  13.773   3.699 -0.1121  0.0345 -0.0265
15897W        W31706   1.405  11.295  11.534 -0.0853  0.2646 -0.1549
15898W        W31707   8.495   3.005  10.699 -0.0286  0.2917 -0.0554
15899W        W31708   8.080  16.587   5.342 -0.1492 -0.0329  0.3177
15900W        W31709  17.171  14.497  13.835  0.2987 -0.1039 -0.1161
15901W        W31710  14.053   0.997  14.527 -0.2776 -0.0145  0.2260
15902W        W31711   6.861   6.625   1.251  0.1209  0.1393 -0.1607
15903W        W31712   1.266  12.365  15.743  0.3843  0.0923  0.5080
15904W        W31713  14.176  17.458  12.903 -0.1397 -0.0275 -0.1315
15905W        W31714  13.353   9.416  14.572  0.0403 -0.0630  0.3105
15906W        W31715   6.932   5.356  16.325 -0.0079  0.1616 -0.3207
15907W        W31716   8.385  10.964   5.058 -0.0203  0.2439  0.1144
15908W        W31717   2.894   4.073   3.246 -0.0318 -0.0225 -0.4247
15909W        W31718   5.969   7.806   0.919  0.0160  0.0615  0.2364
15910W        W31719   2.204   5.332   1.708 -0.1159  0.0477  0.1173
15911W        W31720   7.720   1.303  15.824 -0.3499 -0.0478  0.0002
15912W        W31721  11.007  15.436   3.330  0.0446 -0.0298  0.2822
15913W        W31722   0.224   0.089   0.880 -0.0717 -0.5388  0.1843
15914W        W31723   5.533   2.608  13.513 -0.0935  0.0539 -0.0070
15915W        W31724  10.681   2.328   2.989  0.0805 -0.0995 -0.1209
15916W        W31725   9.773   6.271   2.124  0.2309 -0.0323 -0.5161
15917W        W31726  13.032  10.169  14.509  0.1405  0.0647 -0.1466
15918W        W31727  17.629   4.136   0.718  0.0625  0.1280 -0.1890
15919W        W31728   1.832   9.585  11.246  0.0108  0.0633 -0.2133
15920W        W31729  13.841   2.964   1.527  0.1041  0.1683  0.0254
15921W        W31730  17.010  11.073   1.916 -0.0056 -0.1306  0.0223
15922W        W31731  13.106   3.245  12.098  0.2164  0.2313  0.1388
15923W        W31732  17.510   9.999   3.156 -0.0558 -0.2545 -0.1627
15924W        W31733  10.522   6.307  14.925  0.0554 -0.2247  0.0212
15925W        W31734   2.208   0.788   6.151 -0.2389  0.0749  0.2473
15926W        W31735   3.273  15.647   1.542  0.2925  0.1943 -0.0310
15927W        W31736   3.932   3.641  15.816  0.0908 -0.0995  0.1920
15928W        W31737   8.814  12.876  15.307  0.0040  0.0664  0.0167
15929W        W31738  10.834   4.350  11.834  0.2106  0.3547 -0.2104
15930W        W31739   1.803  11.833   4.337  0.2364  0.1308  0.0686
15931W        W31740   0.793   4.239  13.784 -0.1797 -0.1771 -0.1234
15932W        W31741   3.823  10.302  12.050  0.1549  0.0865 -0.1197
15933W        W31742  16.082  10.360   1.331  0.1043 -0.1857  0.2382
15934W        W31743   9.059   2.480  13.298 -0.1261 -0.1203  0.0314
15935W        W31744   4.866   5.797   0.971 -0.0971 -0.0105  0.0192
15936W        W31745   5.137   9.008  11.174  0.2023 -0.0951  0.0341
15937W        W31746   0.751   3.956  15.782  0.2957 -0.0506  0.2072
15938W        W31747   5.643  10.421   4.133  0.2707  0.3996  0.0211
15939W        W31748   8.755  14.016   0.569 -0.0100  0.0113  0.0346
15940W        W31749   5.707  13.320  12.551 -0.1850  0.0110  0.1535
15941W        W31750   4.781  16.788  12.063 -0.1911  0.0224 -0.1527
15942W        W31751   0.972  15.124   0.146  0.0585  0.1661 -0.2624
15943W        W31752   1.817   2.345   2.924  0.2636 -0.2984 -0.1090
15944W        W31753  10.050   6.896  14.409 -0.1258 -0.2055  0.0683
15945W        W31754   2.639   9.704  12.433  0.2823 -0.1609  0.0549
15946W        W31755   5.455   2.941  11.054 -0.2808  0.0986  0.0464
15947W        W31756  15.850   9.867  12.546 -0.2569  0.3011 -0.1063
15948W        W31757  11.419   3.074   0.460 -0.1255  0.0566 -0.2439
15949W        W31758   4.317   0.243  14.751 -0.0117 -0.1026  0.0789
15950W        W31759  14.822  12.354  15.338  0.2203 -0.2926  0.0669
15951W        W31760   6.631  10.775  14.203 -0.1758 -0.0501 -0.0550
15952W        W31761   4.138  17.015   2.984  0.0093 -0.0414 -0.1784
15953W        W31762   5.694   0.861   5.385 -0.1071  0.1779 -0.0027
15954W        W31763   2.067   2.608  14.731  0.0731 -0.2852  0.2802
15955W        W31764   8.553  12.684   0.002 -0.0266 -0.0058  0.0519
15956W        W31765   7.856   3.980  11.314  0.0838  0.3251 -0.3060
15957W        W31766   9.138  16.721  11.556 -0.4318  0.1232 -0.0231
15958W        W31767   0.707   5.825  14.760  0.0064 -0.1454  0.0954
15959W        W31768  13.004  11.722   4.920 -0.1414  0.0852 -0.0761
15960W        W31769  16.537  16.249  14.142 -0.0125  0.2190 -0.0715
15961W        W31770  16.971   2.809   1.238  0.4545  0.1648 -0.0436
15962W        W31771   1.246  16.094  13.534  0.0464  0.2537 -0.1855
15963W        W31772  12.859  12.934  12.424 -0.1041  0.0017 -0.0860
15964W        W31773   4.570   5.177  11.989  0.1142  0.2341 -0.0109
15965W        W31774  10.000  17.986   2.922 -0.0994  0.5805 -0.1596
15966W        W31775  13.876  17.717  16.207  0.3369 -0.1842 -0.0159
15967W        W31776   7.555   3.430   4.875 -0.1308  0.0001 -0.0158
15968W        W31777   8.731   3.774   6.087 -0.4462  0.0932  0.0839
15969W        W31778   4.400   8.106  11.788  0.2342 -0.1756  0.0163
15970W        W31779   5.827   4.993  14.822  0.1684 -0.0612 -0.0241
15971W        W31780  11.846   3.919   3.553 -0.1130  0.3719  0.3750
15972W        W31781  13.704  13.312   0.958  0.0272  0.2801  0.2901
15973W        W31782   4.534  11.968   0.221 -0.1403 -0.2239  0.0417
15974W        W31783  12.386   8.914   0.183 -0.4287 -0.1055  0.1215
15975W        W31784   3.329  18.201  13.890 -0.2697 -0.1823  0.4360
15976W        W31785   4.340   2.848  13.672  0.0183 -0.1700  0.0881
15977W        W31786   6.082   2.280  12.967 -0.1100  0.3002 -0.0683
15978W        W31787   1.711  12.600  13.631  0.0144 -0.0360  0.1697
15979W        W31788   3.594   6.671   4.695  0.3224  0.1653 -0.2958
15980W        W31789   7.417   1.543  15.498 -0.0413 -0.1480 -0.3299
15981W        W31790  10.118  16.777   5.541  0.0910 -0.1795  0.0903
15982W        W31791  11.921   8.109   1.848 -0.0269  0.4076 -0.4571
15983W        W31792  15.380   5.522   5.952 -0.1204 -0.0286 -0.2688
15984W        W31793   9.190   4.857   3.586 -0.0837  0.0472  0.2270
15985W        W31794  13.750   2.896   3.775  0.0530 -0.2676  0.0618
15986W        W31795  15.175   1.819   5.206 -0.1385  0.0176  0.4447
15987W        W31796   2.105   7.103   2.227 -0.1398 -0.0340  0.1578
15988W        W31797  15.134   0.579  14.368  0.2544  0.1206 -0.2814
15989W        W31798   3.108   9.376  14.005 -0.0125 -0.2068  0.1319
15990W        W31799   2.074  13.001  14.474  0.1578 -0.0245  0.1629
15991W        W31800   2.618   9.133  14.789 -0.0287  0.0551 -0.0219
15992W        W31801   7.142   6.217  14.698 -0.0319 -0.1659  0.0979
15993W        W31802  10.597  17.887   0.121  0.1206  0.1754 -0.0876
15994W        W31803  14.835  15.393   2.805 -0.0742 -0.3616 -0.1406
15995W        W31804  14.724   1.145   0.677  0.0347  0.0944  0.0776
15996W        W31805   9.847   2.882  15.710 -0.0035  0.1170 -0.0970
15997W        W31806   6.396  14.168   2.519 -0.2257  0.2487  0.2151
15998W        W31807  15.793  16.802  14.024 -0.0536 -0.0395  0.1617
15999W        W31808  11.108  11.281   3.588 -0.0191  0.0662 -0.1457
16000W        W31809  16.221   6.157   5.469  0.2468 -0.0711 -0.2187
16001W        W31810   9.035   8.632   4.473  0.0643 -0.1886 -0.0021
16002W        W31811   4.916   8.285   0.971  0.0786  0.1420  0.0152
16003W        W31812  11.963   5.050  12.655 -0.2014 -0.0540 -0.0034
16004W        W31813  14.488   2.270  12.637  0.2244  0.2258 -0.0670
16005W        W31814  14.579  16.774  11.711  0.2790  0.2944 -0.2171
16006W        W31815   5.887   2.752   1.234  0.1551 -0.1012 -0.3366
16007W        W31816   1.935  15.722  15.542  0.1008 -0.0757  0.1780
16008W        W31817  13.411  14.612   3.543  0.1236  0.1187  0.0510
16009W        W31818   5.444  11.312   2.809 -0.1505 -0.0492 -0.0115
16010W        W31819   0.323  13.238  11.313  0.1742  0.1613  0.1261
16011W        W31820   8.473   5.496   3.483 -0.0982  0.2989 -0.2378
16012W        W31821   2.352   0.574   4.816 -0.0527 -0.2175 -0.1009
16013W        W31822   4.100   3.964  14.972  0.0363  0.0108 -0.0004
16014W        W31823   8.497   5.089   4.227 -0.1981 -0.0497  0.2331
16015W        W31824  17.425   7.800  16.179  0.2552 -0.0669 -0.3702
16016W        W31825  12.237   0.461   5.155 -0.1298 -0.0396 -0.3732
16017W        W31826  13.710   5.035   0.568 -0.0170  0.0859  0.0401
16018W        W31827  12.466   2.854   2.903 -0.2851  0.1218 -0.2444
16019W        W31828   7.146  15.135  15.490 -0.2630 -0.0682  0.1830
16020W        W31829   7.770  13.028  14.998  0.1029 -0.1020  0.1161
16021W        W31830   9.398  11.718   4.501 -0.0884 -0.2189  0.1915
16022W        W31831   8.108   8.350   4.892 -0.0128 -0.1709  0.2201
16023W        W31832   3.963   6.090   1.343 -0.0842 -0.0228 -0.4832
16024W        W31833   8.360   7.246   5.125 -0.2093 -0.0938 -0.0224
16025W        W31834  12.366  11.927  15.172  0.0879  0.2692  0.1414
16026W        W31835   3.385  12.219  15.662  0.1625 -0.2741 -0.0666
16027W        W31836   2.720  16.423  15.013 -0.0471 -0.0792  0.1248
16028W        W31837   1.387   5.693  11.533  0.0975 -0.1203 -0.1147
16029W        W31838  15.150  12.680  15.055 -0.1819  0.2198  0.2123
16030W        W31839  11.912  16.870  13.422  0.1569  0.1428 -0.1102
16031W        W31840   6.747  13.962  12.345  0.1714  0.0576  0.0774
16032W        W31841   1.043  10.208   3.690 -0.0270  0.0003  0.2421
16033W        W31842   7.657  12.369   4.771 -0.3574 -0.2738 -0.0515
16034W        W31843  15.293   7.133  12.744  0.2124 -0.1747 -0.1784
16035W        W31844   8.914  10.657  12.519 -0.1622  0.1205 -0.1524
16036W        W31845  12.115  12.671  10.889 -0.0382 -0.0844 -0.0832
16037W        W31846   6.064  16.959   0.780 -0.3758  0.1123 -0.0126
16038W        W31847   4.686  12.547  16.208 -0.0493 -0.1082  0.3860
16039W        W31848   9.555  14.230   0.562 -0.0167  0.0839 -0.0742
16040W        W31849   4.778  11.843  12.541  0.0750 -0.1559  0.0652
16041W        W31850   6.762  14.664   5.736  0.2340 -0.2489  0.1902
16042W        W31851   0.150  15.150   0.182  0.0363 -0.1766 -0.0620
16043W        W31852   0.433  15.037   1.950 -0.0286 -0.1050  0.0158
16044W        W31853   3.048   6.516  12.722  0.0418 -0.0125  0.0108
16045W        W31854   6.716  14.523  14.609  0.0880 -0.0168  0.1231
16046W        W31855   3.328  16.516   2.785  0.3130  0.1903  0.4787
16047W        W31856   9.503  12.535  13.757 -0.0200 -0.1089 -0.4786
16048W        W31857   7.912   1.473  11.699 -0.1489  0.3189  0.0048
16049W        W31858  13.049  16.872  12.412  0.2198  0.1029 -0.0493
16050W        W31859  14.282  11.397  15.086  0.2330  0.0734  0.2194
16051W        W31860   5.143  13.702  15.569 -0.2056 -0.2705 -0.0805
16052W        W31861  17.779  14.993   3.166  0.3641 -0.1466  0.1118
16053W        W31862  11.690  12.401   1.558 -0.3731 -0.2138  0.0750
16054W        W31863   1.206   3.265   3.902 -0.0165 -0.2575  0.1694
16055W        W31864   9.672  12.661  11.872  0.1507  0.1865 -0.0866
16056W        W31865   8.401   8.104  15.119  0.3266  0.0799  0.1101
16057W        W31866  13.887  13.377  12.791  0.1272  0.0601  0.3436
16058W        W31867   3.871   5.722   5.509  0.0205 -0.0207  0.0682
16059W        W31868   3.626   1.808  12.581  0.4795  0.0192 -0.1002
16060W        W31869   5.407  18.020   1.423 -0.0072 -0.1361  0.0182
16061W        W31870  17.651  15.649  16.006 -0.1008 -0.5865  0.2896
16062W        W31871  16.049   7.961   1.345 -0.0305  0.0167 -0.0747
16063W        W31872   3.808  12.475  12.287  0.0558  0.3677 -0.0981
16064W        W31873  15.108  10.215   3.844 -0.0114 -0.2032  0.0009
16065W        W31874   4.167   0.802  11.487  0.3431  0.1538  0.0401
16066W        W31875  14.740  17.587   0.543  0.2126  0.2282  0.0391
16067W        W31876  15.581  15.469   1.795  0.0346  0.0001 -0.1148
16068W        W31877  15.234  11.644  13.803  0.0925 -0.2700  0.0171
16069W        W31878   8.580   2.136  12.293  0.2170 -0.0067 -0.1548
16070W        W31879   3.929  14.251   5.157 -0.0317  0.2840 -0.0141
16071W        W31880   9.410   1.844  15.116 -0.2074 -0.0830  0.0475
16072W        W31881   3.071   5.724  11.602  0.1145  0.1685 -0.1913
16073W        W31882  16.021   5.279   6.374  0.2339 -0.1744  0.2753
16074W        W31883  13.966  11.255   3.191 -0.1288 -0.1016  0.0506
16075W        W31884   7.951   0.497  15.457 -0.0752  0.4467  0.2136
16076W        W31885   4.298   6.515  13.126  0.1379 -0.0364  0.1644
16077W        W31886   6.899   4.822  16.195  0.0577  0.3396 -0.2508
16078W        W31887  15.643  15.185   0.083  0.1219  0.4573  0.2568
16079W        W31888   6.845   2.915   3.075 -0.1869 -0.0700  0.1154
16080W        W31889   9.770  13.244  13.376  0.2182  0.2699 -0.1810
16081W        W31890   5.639   4.953  11.029 -0.1288  0.1391  0.0827
16082W        W31891  11.426   0.750   0.076  0.4772 -0.1534 -0.2554
16083W        W31892   3.366   5.252  15.715 -0.1769  0.2915  0.0410
16084W        W31893   8.794   8.474   3.742  0.1037 -0.1180 -0.0941
16085W        W31894  12.504   8.470   1.240  0.1415 -0.5628 -0.1996
16086W        W31895   9.622   8.127  12.401  0.0009  0.0924 -0.0570
16087W        W31896   9.409   6.454   1.526  0.1446  0.2837  0.0071
16088W        W31897  17.344  14.225  14.312 -0.0067 -0.6209 -0.0260
16089W        W31898   6.263  15.223  11.465  0.0420  0.0555  0.3420
16090W        W31899   3.702  13.557  12.099  0.3351 -0.1410 -0.2790
16091W        W31900   3.840   3.392  16.264 -0.1750  0.1133 -0.3807
16092W        W31901  15.866  10.627  11.948 -0.0708 -0.0111 -0.4847
16093W        W31902  12.948  17.697  16.356  0.1449  0.3377  0.1041
16094W        W31903  14.303   1.512   2.970  0.4400  0.2602 -0.3226
16095W        W31904  11.026   1.366   1.534  0.0831 -0.1567 -0.3098
16096W        W31905   8.494  10.649   0.586 -0.1805  0.0117  0.1448
16097W        W31906   5.794  10.585   2.224  0.0872  0.0373 -0.3092
16098W        W31907   6.822   2.625  11.850  0.1374  0.1064  0.0957
16099W        W31908   2.106   8.473   3.334  0.2689 -0.0761  0.1427
16100W        W31909   4.687  14.020  14.297 -0.1481  0.0327 -0.0959
16101W        W31910  16.576  17.558   2.265  0.0183 -0.4059 -0.1569
16102W        W31911   5.578   8.448   4.175  0.0289  0.0738  0.0253
16103W        W31912  16.474   1.843  14.270  0.1525 -0.0589 -0.0603
16104W        W31913  13.820  16.183   3.289  0.0786  0.1662  0.0073
16105W        W31914   4.018  18.101  12.538  0.0686  0.2034  0.0317
16106W        W31915  14.400   5.442   1.616  0.3517  0.1407  0.1844
16107W        W31916  13.290   1.392  10.804  0.1769 -0.0971  0.0996
16108W        W31917   4.213   6.547   0.929  0.0232  0.1438  0.0397
16109W        W31918   8.129   5.608   5.051  0.1418  0.0581 -0.2148
16110W        W31919  17.606   7.217  12.361  0.0816  0.0672 -0.3551
16111W        W31920   5.482  17.862   2.462  0.4062  0.0029  0.1762
16112W        W31921  11.551  14.810   4.645  0.1747 -0.0394  0.2608
16113W        W31922   1.331   4.169   5.083 -0.0416 -0.2099  0.1152
16114W        W31923  17.455  15.482   1.298 -0.2510  0.0099 -0.4580
16115W        W31924   2.410  18.219   3.166  0.1228  0.0682  0.0553
16116W        W31925   6.492   9.194  11.458  0.3313 -0.0514 -0.0831
16117W        W31926  14.679  16.032  15.162  0.3318 -0.0384  0.0643
16118W        W31927  15.910   7.931   4.004  0.0951 -0.1305  0.0485
16119W        W31928  15.373  13.926  13.145 -0.0894 -0.2915 -0.2009
16120W        W31929   2.851   3.943  12.756 -0.2120  0.1385  0.1644
16121W        W31930  13.793   5.804   5.266 -0.4001  0.0069  0.3901
16122W        W31931   4.354  13.906   3.480 -0.1951  0.3139 -0.1581
16123W        W31932   6.724  14.401  12.652  0.0797 -0.4879  0.2999
16124W        W31933  11.069   8.551  15.236  0.0196  0.0199 -0.1678
16125W        W31934   2.837   5.603   3.612  0.1815 -0.0161  0.2104
16126W        W31935   5.940  17.622   0.030 -0.0075 -0.1476  0.0506
16127W        W31936   4.373   2.167  14.338 -0.0845  0.1142 -0.2806
16128W        W31937   8.323  13.580   0.718 -0.0821 -0.0958  0.1824
16129W        W31938   7.453   0.317  11.085  0.0668  0.0447 -0.1204
16130W        W31939   2.166  17.254   2.162 -0.0378 -0.1021 -0.2886
16131W        W31940   4.326  10.923   1.062  0.3542  0.1021  0.1266
16132W        W31941   2.404   4.431   4.089  0.2145  0.1620 -0.2853
16133W        W31942  15.768   2.296  15.407  0.0229  0.0243 -0.0390
16134W        W31943  13.296  13.361  10.951 -0.3505 -0.0467  0.1526
16135W        W31944   5.937   8.074  12.190  0.3040  0.2061  0.0714
16136W        W31945  15.210  16.281   1.734 -0.0853  0.1371 -0.0473
16137W        W31946  15.285  18.167  12.566 -0.0992 -0.0983  0.0321
16138W        W31947   6.613   9.516   1.886  0.0733  0.2054  0.0764
16139W        W31948   7.244  11.249   3.723 -0.0960  0.0141  0.2058
16140W        W31949  14.707   6.948  12.802 -0.3218  0.3453 -0.4153
16141W        W31950  12.253   4.933   5.378  0.1330  0.0682 -0.0093
16142W        W31951  11.835   5.233   3.096 -0.0342 -0.1155 -0.2071
16143W        W31952   9.639  14.563   5.127 -0.4989  0.1454  0.2539
16144W        W31953  14.217  15.274   0.627 -0.0974  0.0877  0.0220
16145W        W31954   3.756  14.049  14.127 -0.0591 -0.0337  0.0487
16146W        W31955   2.371   7.290   0.205 -0.0913  0.1185 -0.0561
16147W        W31956   4.915   4.523  14.509  0.0941 -0.1427  0.0004
16148W        W31957  16.289  15.351  15.044 -0.4846  0.0973 -0.3502
16149W        W31958  17.451  13.326   3.556  0.1438  0.1535  0.0548
16150W        W31959   7.610  15.650   2.434 -0.1506 -0.0724  0.1374
16151W        W31960   9.587  11.930   1.648 -0.0933 -0.1167 -0.4014
16152W        W31961  12.100   2.898  14.947 -0.0845  0.1403 -0.1588
16153W        W31962   7.319  10.751   1.180 -0.1939  0.4262 -0.3881
16154W        W31963  13.429  11.403  12.480 -0.1880  0.0967 -0.4321
16155W        W31964  16.025   0.668  13.404 -0.0357 -0.0380 -0.1683
16156W        W31965  15.872  12.251   3.788  0.0231  0.0082  0.0357
16157W        W31966   2.403   5.642   5.675 -0.1241 -0.1171 -0.1289
16158W        W31967  16.491   0.665  16.082  0.5646  0.0213 -0.0438
16159W        W31968   5.862  12.959  12.848  0.0909 -0.0192 -0.0031
16160W        W31969  11.098  12.439   4.615 -0.0625 -0.0194  0.2085
16161W        W31970  17.890   5.577   4.541  0.1893 -0.0491  0.2849
16162W        W31971   9.435  10.550  12.085 -0.2745  0.0175  0.1581
16163W        W31972   1.903  12.104   0.645 -0.2281  0.2594 -0.2037
16164W        W31973   0.517  12.693  12.354 -0.0939 -0.0548  0.1433
16165W        W31974   5.866  15.581   1.256 -0.1147  0.2977 -0.1019
16166W        W31975  11.403   7.492  15.302  0.0896  0.0288  0.2458
16167W        W31976   3.046  14.840   3.551 -0.1911  0.1337  0.0614
16168W        W31977   2.608   7.127  15.322 -0.0462  0.3837 -0.0906
16169W        W31978  16.529  10.751  14.657  0.0326  0.1862 -0.0804
16170W        W31979  14.730  14.809  13.882  0.0165  0.0420 -0.1312
16171W        W31980   9.737   1.505  12.005 -0.0118 -0.2468  0.1344
16172W        W31981  13.795  14.277   0.838 -0.3543 -0.3019  0.3263
16173W        W31982   3.145   0.500   4.131 -0.0702  0.2293 -0.2643
16174W        W31983   7.170   0.309  10.669 -0.0644  0.0036  0.1873
16175W        W31984  16.452  15.269   4.345 -0.2467 -0.1311 -0.2653
16176W        W31985   3.348   8.407   0.770  0.2842  0.5255  0.0016
16177W        W31986   5.223  12.549   2.665  0.3489  0.1775  0.1625
16178W        W31987   0.654   6.881   2.127 -0.0799 -0.1528  0.1329
16179W        W31988   6.090   3.357   1.370 -0.1082 -0.0193  0.0193
16180W        W31989   6.807   7.271   3.689  0.1835 -0.0392  0.1637
16181W        W31990  13.292   7.582  15.515 -0.1778  0.1007  0.1131
16182W        W31991  10.224  10.100   4.979  0.2473 -0.0847  0.2908
16183W        W31992   0.505   6.483  13.300 -0.1773 -0.0563  0.1607
16184W        W31993  14.938   9.709  12.307 -0.2763 -0.1799  0.0647
16185W        W31994  15.262   5.380   1.378  0.0344 -0.3176  0.0563
16186W        W31995  16.493   9.976   5.066 -0.0691  0.1797  0.0364
16187W        W31996  16.918  10.428  14.469  0.1755 -0.0662  0.0573
16188W        W31997   5.227   9.922   6.112  0.0694  0.4047 -0.0211
16189W        W31998   6.360   6.182   3.299  0.0611  0.0521  0.0334
16190W        W31999  15.545   6.922   3.834  0.4213  0.1616  0.1003
16191W        W32000  13.859   4.382   3.222  0.2058 -0.0347  0.0890
16192W        W32001   9.055   7.453  14.125  0.1054 -0.0695 -0.1605
16193W        W32002  13.800   5.680   1.255 -0.0334  0.0038 -0.1343
16194W        W32003   4.828  14.114   1.601 -0.0493  0.2762 -0.0210
16195W        W32004  12.674   1.907   1.943 -0.0945  0.1880 -0.2844
16196W        W32005   2.299  10.877   0.560 -0.2267 -0.1364  0.1599
16197W        W32006  11.802   9.947  14.533 -0.1100 -0.0612 -0.0712
16198W        W32007   7.397   4.520   1.311  0.1316  0.0528  0.3378
16199W        W32008  12.294  11.376   2.205  0.3585 -0.0450 -0.0108
16200W        W32009   5.892  11.259   4.335 -0.3514 -0.0434 -0.1150
16201W        W32010   2.438   2.444  14.134 -0.2275  0.3923  0.1009
16202W        W32011   6.632   9.243   0.999  0.1579 -0.0184  0.2274
16203W        W32012   4.386   4.549   3.136  0.2537 -0.0830 -0.0778
16204W        W32013   9.490  10.672  14.051  0.2538 -0.0004 -0.0267
16205W        W32014   8.225  17.585  12.381 -0.0648 -0.2123 -0.3681
16206W        W32015   3.205   1.749   0.132  0.0574  0.0878  0.0275
16207W        W32016   6.007   4.465   3.531  0.2357 -0.3359 -0.0235
16208W        W32017  10.922   5.773  15.393  0.3462  0.1019 -0.2322
16209W        W32018  17.368  12.175  15.705  0.1761  0.1297 -0.3522
16210W        W32019   5.453  13.669   4.809 -0.0110 -0.2780 -0.1218
16211W        W32020  17.061   6.672  11.550 -0.2313 -0.2134  0.1759
16212W        W32021   1.501   3.396  16.261  0.2775  0.0537 -0.0145
16213W        W32022  11.704   6.292  14.005 -0.1394  0.1337  0.0256
16214W        W32023   9.254   9.887  11.299 -0.2213  0.0376 -0.1247
16215W        W32024  14.704   2.927   4.435 -0.0555  0.0939 -0.1978
16216W        W32025  13.392   1.510  11.380  0.0117 -0.0843  0.1430
16217W        W32026   1.462  12.648   5.552  0.2023 -0.3048 -0.1573
16218W        W32027  17.485   1.467  12.324  0.3441  0.1360 -0.3900
16219W        W32028   0.743   9.980  11.295 -0.1114  0.0164 -0.2297
16220W        W32029   8.582  14.649   1.304 -0.1293 -0.1539  0.1882
16221W        W32030   6.332   2.443  10.939  0.1037  0.1486 -0.0477
16222W        W32031   3.164   8.640  11.464 -0.2743  0.1389  0.0433
16223W        W32032  14.228   3.121  12.044 -0.1671 -0.0795 -0.3211
16224W        W32033   2.638   5.985   0.374  0.0793 -0.0760  0.0638
16225W        W32034  10.986  13.200   2.684  0.1516 -0.2009 -0.0102
16226W        W32035   0.311   0.091   3.554 -0.1595  0.0074 -0.1613
16227W        W32036   1.604  13.831  14.125 -0.4921 -0.0214  0.0732
16228W        W32037  17.966  17.353   5.466  0.0290 -0.1424 -0.0370
16229W        W32038  15.573   2.200   5.416  0.0704  0.1967  0.0481
16230W        W32039  14.062   8.124  11.043  0.1010 -0.1038 -0.0706
16231W        W32040   1.234  16.261  15.614  0.3003  0.0764  0.1898
16232W        W32041   1.030   6.117  15.683 -0.4535 -0.1278 -0.1407
16233W        W32042   0.250   4.370  13.487 -0.1977  0.0670  0.0217
16234W        W32043   0.069   4.060  11.691 -0.0850  0.2779  0.2214
16235W        W32044   6.385   0.063   1.154 -0.1012 -0.1473  0.0403
16236W        W32045  17.948  17.246  13.370 -0.1384  0.0665 -0.1788
16237W        W32046   2.581   8.975   4.455 -0.1020 -0.0278 -0.1276
16238W        W32047  13.389   5.742   0.045  0.0209  0.0960 -0.3228
16239W        W32048   1.528   5.660  14.412 -0.0888 -0.2773 -0.2157
16240W        W32049  17.242   7.707  11.117 -0.0309  0.2217  0.2418
16241W        W32050   8.294   7.585   5.510 -0.0234 -0.0675  0.2140
16242W        W32051  15.777  10.728  12.987  0.1042  0.1061  0.2449
16243W        W32052   3.626  10.553  12.885 -0.1370  0.0849  0.0425
16244W        W32053  10.853   0.636   1.851 -0.0003  0.0045 -0.0469
16245W        W32054  14.291  13.428   4.712  0.1235  0.1314  0.3486
16246W        W32055   9.411   9.586  16.085  0.2036 -0.1753 -0.1122
16247W        W32056  11.301  10.617  14.360  0.0009 -0.0854 -0.2028
16248W        W32057   2.237  15.336  14.627 -0.0635  0.3825  0.2721
16249W        W32058  18.197   2.428  11.967 -0.0350  0.0009 -0.1826
16250W        W32059  10.888  10.198   4.904 -0.0615 -0.1492 -0.1352
16251W        W32060   4.435   8.162  15.579 -0.0537 -0.1085 -0.1054
16252W        W32061   6.399  13.141  14.683 -0.1670  0.0133  0.1204
16253W        W32062   1.528  17.858  14.290  0.0787  0.1344  0.0788
16254W        W32063  13.853   2.038   4.824 -0.1432  0.3134  0.2943
16255W        W32064   5.554   7.444  13.658 -0.1614 -0.0469  0.1663
16256W        W32065   4.157  13.182   3.174  0.3893 -0.1475  0.0542
16257W        W32066   2.970   7.553   0.905 -0.0490 -0.0398  0.0795
16258W        W32067   6.971  11.071   1.396 -0.3978  0.0020 -0.2906
16259W        W32068  16.587   4.013  15.043  0.0180 -0.2446  0.2668
16260W        W32069  17.753   4.917   2.990  0.0739  0.0303  0.1483
16261W        W32070  14.708   8.708   5.138  0.2224 -0.3521  0.3622
16262W        W32071   7.573   6.687  16.265 -0.1536 -0.0810 -0.1686
16263W        W32072  17.002  15.429  13.767  0.1865  0.2659 -0.1460
16264W        W32073  15.925  11.359  11.263  0.3308 -0.2087  0.0053
16265W        W32074   4.987  13.054  15.037  0.1904 -0.0263  0.2750
16266W        W32075   1.046   5.668   3.881 -0.0684 -0.0544 -0.4770
16267W        W32076   6.731  12.494  11.774 -0.2356 -0.0978  0.0072
16268W        W32077   9.320   9.219   2.163  0.0388  0.1502 -0.0999
16269W        W32078   5.505  10.184  16.256  0.0103 -0.1235 -0.2726
16270W        W32079  13.903   1.491  14.645 -0.0624  0.3233 -0.2033
16271W        W32080   6.291   1.633  12.224  0.1077 -0.0188 -0.1320
16272W        W32081  14.060   1.545   1.687 -0.0122  0.1407  0.0328
16273W        W32082  16.267   9.076  15.830 -0.0958  0.0929  0.3217
16274W        W32083  16.610  12.707   2.037 -0.0001 -0.1543  0.0002
16275W        W32084  10.083   9.684   0.389  0.0219  0.0557 -0.1241
16276W        W32085   9.051  13.437   6.175 -0.2942 -0.2749 -0.2477
16277W        W32086  14.013   1.710   5.284 -0.0063 -0.0833 -0.3935
16278W        W32087   8.015   0.548  11.984 -0.0595 -0.0912  0.0739
16279W        W32088   1.414  14.431   1.504  0.2089  0.1909 -0.0812
16280W        W32089   0.357   5.097  15.199  0.4000  0.0501  0.2277
16281W        W32090   5.591  18.037  14.372 -0.1255  0.1611 -0.1364
16282W        W32091  11.718   6.296   3.004 -0.3011  0.0689  0.0805
16283W        W32092   1.026  18.009  11.465  0.0348  0.2442  0.1577
16284W        W32093  15.183   6.572  10.913  0.0207  0.1422 -0.0238
16285W        W32094   7.012   4.323  14.615 -0.0661 -0.3183 -0.1991
16286W        W32095  14.061   8.999  15.784  0.0333 -0.0367 -0.4189
16287W        W32096  13.830  14.025  16.295 -0.1919 -0.0093 -0.1387
16288W        W32097  10.324  14.017   4.289  0.0697  0.2514  0.2602
16289W        W32098   2.967   9.469  15.984  0.0221 -0.1980 -0.0097
16290W        W32099  16.845   7.464  12.221  0.0808 -0.0204 -0.0368
16291W        W32100  14.620   3.986  16.022  0.0254  0.0959  0.4469
16292W        W32101   6.891  17.711  16.129 -0.1447 -0.1396  0.1465
16293W        W32102  14.639  16.871  15.645 -0.3786  0.2250  0.0890
16294W        W32103  14.776   7.401   3.398 -0.4306  0.0098  0.2000
16295W        W32104   6.767   1.783   4.067 -0.1928 -0.5290  0.2837
16296W        W32105   0.528  11.231  15.876  0.1211  0.0690  0.0804
16297W        W32106   1.831  11.969  14.429 -0.1816  0.2010 -0.3205
16298W        W32107  12.778   0.944  14.953 -0.2958  0.0959  0.0519
16299W        W32108  10.835  12.178   4.989 -0.1093 -0.2747 -0.0597
16300W        W32109   0.204  17.256  11.603  0.0434  0.0597  0.1836
16301W        W32110   1.251  10.836  16.094  0.0530  0.1135 -0.1017
16302W        W32111   0.582  12.325   4.509 -0.0990 -0.2450  0.2918
16303W        W32112  16.399   6.567   1.344 -0.3769  0.1088 -0.0089
16304W        W32113   9.842  14.349   4.632  0.1996 -0.4049  0.0377
16305W        W32114   7.322   8.919  12.854 -0.1146 -0.1341 -0.1919
16306W        W32115  11.879   9.129  14.964  0.1902 -0.0599 -0.3273
16307W        W32116   0.211   2.155   1.946 -0.2433  0.2993  0.1246
16308W        W32117   0.365   0.575  12.055 -0.1680  0.2468  0.2158
16309W        W32118   7.162   0.657   2.188  0.0355  0.0776 -0.3157
16310W        W32119  11.731  16.428  13.540  0.0624  0.2205  0.1738
16311W        W32120  11.997   9.258  13.023  0.0061  0.1758 -0.0858
16312W        W32121  15.836  15.115  13.864  0.0338  0.2459 -0.0680
16313W        W32122  12.368   5.954  15.211  0.0913  0.2314  0.2848
16314W        W32123  15.825   2.074   1.023  0.0122  0.0325  0.0503
16315W        W32124  15.845  15.957   3.500  0.3140 -0.1571  0.1595
16316W        W32125  14.831   6.024   3.631  0.0196  0.1684  0.3386
16317W        W32126   7.346   4.659   3.007  0.1773 -0.0670  0.1154
16318W        W32127  15.348   8.699  15.541  0.2968  0.0894  0.1990
16319W        W32128   2.814   4.438  13.021  0.3396  0.1458  0.0903
16320W        W32129   5.405   0.527   0.239  0.0592 -0.0732  0.0843
16321W        W32130  11.237  16.806  14.252  0.0833  0.1061 -0.2505
16322W        W32131  14.027   6.120  13.052 -0.3731 -0.0613  0.0677
16323W        W32132   7.297  16.114  14.326 -0.0809 -0.0999  0.0499
16324W        W32133  11.015   6.784   0.780  0.2470 -0.2689 -0.0883
16325W        W32134  12.526  15.806  15.279  0.2758 -0.1248  0.0651
16326W        W32135  17.290   1.524   5.293 -0.0716 -0.1415 -0.1799
16327W        W32136  14.329  11.308  13.453 -0.2513  0.0343 -0.0735
16328W        W32137   0.201   9.152   3.411  0.1318  0.1909 -0.3000
16329W        W32138  12.428  10.902  15.391 -0.1563 -0.0445 -0.1378
16330W        W32139  17.180  14.935  12.569 -0.2329  0.3252  0.0402
16331W        W32140   2.840   4.699   3.918  0.0288  0.2465 -0.2773
16332W        W32141  14.378   1.833  11.813  0.1411 -0.1795 -0.0331
16333W        W32142  13.502   2.384  11.763  0.3538  0.1172 -0.1554
16334W        W32143   4.333   3.676  15.464 -0.0343 -0.0535 -0.0482
16335W        W32144  14.980  17.025  11.665 -0.1641 -0.1287 -0.0123
16336W        W32145   2.452  17.247  15.166 -0.1200 -0.2629 -0.1311
16337W        W32146   0.242   2.821  13.740  0.2283 -0.3147  0.3560
16338W        W32147   7.955  13.580   0.291 -0.2703  0.3477  0.0107
16339W        W32148  16.996  10.283   3.106  0.1335  0.1214  0.3019
16340W        W32149   9.061   8.953   2.568  0.4021  0.2887 -0.1315
16341W        W32150  15.130  15.182   0.667  0.1388  0.3057 -0.0881
16342W        W32151  12.825   5.234  12.941  0.0766  0.0418  0.0805
16343W        W32152  14.804   8.401   2.705 -0.0658 -0.0125 -0.1717
16344W        W32153   7.249   7.320  13.810  0.2789 -0.1129  0.1624
16345W        W32154  17.861  10.997  13.132 -0.0940  0.0851 -0.0442
16346W        W32155   6.799   9.769   3.583  0.0036 -0.3060 -0.0377
16347W        W32156  10.116   9.812  15.737 -0.2406  0.0238  0.1591
16348W        W32157  17.051   3.344   5.828  0.1658 -0.0881  0.0695
16349W        W32158   7.527   0.265   0.747 -0.1983  0.1266  0.1455
16350W        W32159  17.410  10.808   0.054 -0.0571  0.1915 -0.0663
16351W        W32160   6.709   5.065  14.829 -0.0373  0.3504  0.0012
16352W        W32161   4.335   5.640  11.758 -0.1764 -0.0618  0.1818
16353W        W32162   1.111   0.856  14.001 -0.0570 -0.2209 -0.1508
16354W        W32163  12.260  16.129   0.606  0.1137 -0.0546 -0.1658
16355W        W32164   0.862   7.180   0.390  0.1482 -0.1349  0.0111
16356W        W32165   7.384  12.662   3.868 -0.1369  0.0763 -0.0133
16357W        W32166   6.031   8.546   0.964 -0.0716 -0.2594 -0.0413
16358W        W32167  15.179  10.543  15.747 -0.1151 -0.1493 -0.2001
16359W        W32168  10.132   5.164   0.673  0.0989  0.1114  0.1738
16360W        W32169  12.811   1.448   3.878  0.0734  0.2577  0.2250
16361W        W32170   9.577  15.088   5.095  0.0703 -0.1048 -0.1370
16362W        W32171   1.457   6.878   4.632 -0.0040 -0.1245  0.2216
16363W        W32172   6.023   4.154  14.710 -0.1562  0.1777  0.1204
16364W        W32173   4.001  13.298  12.779  0.2291  0.0699 -0.3477
16365W        W32174   9.868   3.610  14.898 -0.0748 -0.3210 -0.2614
16366W        W32175  15.572   3.945   2.709 -0.0712 -0.3190  0.1171
16367W        W32176   5.082  14.353  14.507  0.2044 -0.0902 -0.1936
16368W        W32177  14.017  16.251   4.135 -0.0582  0.2054  0.1906
16369W        W32178  17.138  11.152   4.220  0.0196  0.4060  0.0772
16370W        W32179  17.920  10.070  12.003 -0.1203  0.0885 -0.0495
16371W        W32180  12.142   7.391  13.534  0.1051  0.0970 -0.2375
16372W        W32181  10.857  15.199   0.392 -0.0581  0.0096 -0.0660
16373W        W32182  11.309  14.798   3.528 -0.1442  0.0303 -0.1022
16374W        W32183  13.861   2.492   1.338 -0.2706  0.2440  0.0544
16375W        W32184   3.096   9.044  15.659 -0.0761 -0.0466  0.0213
16376W        W32185  14.855   4.767   4.629  0.1810  0.2040 -0.2567
16377W        W32186  10.298  12.830   0.163 -0.2148 -0.1233  0.0757
16378W        W32187   9.877   3.852   5.715  0.2386 -0.1400 -0.0024
16379W        W32188   4.363   1.123  12.566  0.0864 -0.1970 -0.0077
16380W        W32189   6.310   9.305  14.497 -0.2878  0.3035 -0.0817
16381W        W32190  13.401   6.180  11.285 -0.0456 -0.1579  0.2662
16382W        W32191   3.040  18.007   1.673  0.0294  0.0372  0.0454
16383W        W32192   0.288   5.197  13.560 -0.2050 -0.1156  0.0224
16384W        W32193  12.916  10.331  13.434  0.2000 -0.2073  0.0293
16385W        W32194   8.423   3.226  14.620  0.1553 -0.1823  0.1247
16386W        W32195   2.733  16.098   3.957  0.0868 -0.0311  0.2063
16387W        W32196  10.140   8.765   1.752 -0.4100  0.2266 -0.4708
16388W        W32197  12.436   8.168  12.818  0.0604 -0.1331 -0.0711
16389W        W32198   5.962   0.232  12.323  0.0897 -0.2415 -0.0397
16390W        W32199   9.716   6.352  12.817  0.1284  0.1116 -0.0465
16391W        W32200   4.027   0.025   1.169  0.0726 -0.2031 -0.3074
16392W        W32201  14.136   5.940  14.357  0.0443  0.1980 -0.3064
16393W        W32202   7.030  12.160   1.858  0.1175 -0.2954 -0.1221
16394W        W32203   8.523   9.880   1.999 -0.3209  0.0427 -0.2055
16395W        W32204  10.380   2.005  14.132 -0.1389  0.0295 -0.2136
16396W        W32205   3.572  10.919   1.126 -0.0629  0.0234 -0.0027
16397W        W32206  12.949  17.917  12.597  0.4455 -0.2367 -0.4098
16398W        W32207  13.444   6.162   5.169 -0.0896  0.0004 -0.0839
16399W        W32208  15.105  17.860   5.655 -0.1596 -0.1298 -0.1925
16400W        W32209   5.505   4.299  11.586 -0.2129 -0.1595  0.2590
16401W        W32210   7.897   5.502   4.599 -0.1481 -0.0956  0.1420
16402W        W32211   9.359   7.431   3.824  0.0027  0.0008 -0.1191
16403W        W32212   1.504  13.031   2.109  0.3547  0.1522 -0.2017
16404W        W32213   9.782  16.678  14.492 -0.3584  0.0336 -0.1192
16405W        W32214  16.593   1.196   4.329  0.2380  0.0428 -0.1459
16406W        W32215   2.602  12.942   1.272  0.0013  0.2853 -0.3744
16407W        W32216   9.848  13.090  13.868 -0.0501  0.0791 -0.3706
16408W        W32217   0.212  10.416   0.548 -0.2011  0.0898  0.0077
16409W        W32218  14.527   6.556  13.037  0.0598  0.0344  0.0102
16410W        W32219  13.225   7.052  15.489 -0.1650 -0.0728  0.3044
16411W        W32220  10.233  10.509  13.057 -0.1956  0.1532 -0.0525
16412W        W32221   6.763  10.721   1.168 -0.0925  0.1427  0.0939
16413W        W32222  18.189   2.238   3.225  0.1043 -0.0803 -0.0121
16414W        W32223  11.144   9.414   3.337 -0.1538  0.0979 -0.0197
16415W        W32224  17.372   4.757   4.392  0.1394 -0.0504 -0.0625
16416W        W32225  11.697  17.826   5.738 -0.0020  0.0075 -0.2398
16417W        W32226  12.353   7.078   3.348 -0.1921  0.1657  0.1689
16418W        W32227  15.012  13.131   5.104 -0.1333  0.0506  0.0182
16419W        W32228   3.957   5.138   4.630  0.1359 -0.1858 -0.1827
16420W        W32229   7.923   5.281   1.568 -0.3027  0.2195  0.1152
16421W        W32230   9.508  17.526   1.740 -0.0189  0.3158 -0.2286
16422W        W32231  18.095   9.516   0.630 -0.1789  0.1846  0.0600
16423W        W32232  16.044   3.359  13.555 -0.0431  0.0402  0.0589
16424W        W32233  10.283   5.893   3.703 -0.1089  0.1806  0.1087
16425W        W32234   8.933   5.894  13.686  0.3420 -0.1248  0.1180
16426W        W32235  16.678   1.631   1.092 -0.1681  0.2002  0.3224
16427W        W32236  12.726  16.981   3.561  0.1974 -0.0934 -0.0594
16428W        W32237   2.736   5.817   5.353  0.0924 -0.0872  0.0930
16429W        W32238   9.309   9.828  15.256 -0.0316  0.3859  0.2039
16430W        W32239   6.348   1.136   0.375  0.1828 -0.3139  0.0326
16431W        W32240   7.854   5.288   3.727  0.0623  0.1920 -0.1582
16432W        W32241   0.185  15.837   3.290 -0.0154 -0.0080  0.0962
16433W        W32242  16.549   0.424  13.352 -0.0028 -0.0432 -0.0660
16434W        W32243  16.274   5.850  16.305 -0.4551 -0.4043 -0.0164
16435W        W32244   0.563   1.391   3.583 -0.0112 -0.2426  0.1024
16436W        W32245   3.625   2.203   5.243  0.0645  0.1545 -0.0509
16437W        W32246   0.920  14.886  13.240 -0.2728 -0.3791 -0.0019
16438W        W32247  13.594  12.068   0.068 -0.0319 -0.2153  0.1444
16439W        W32248   4.789   0.752  13.533 -0.0890  0.0408  0.3147
16440W        W32249   7.536   6.653  15.392 -0.1139  0.1426  0.0569
16441W        W32250   3.774  17.339   1.103  0.0222 -0.0195  0.1530
16442W        W32251  10.517   9.562   0.106 -0.0396 -0.0706  0.1473
16443W        W32252  12.106  14.899   4.632  0.1099 -0.2178 -0.1186
16444W        W32253   5.098  11.991  11.120 -0.2104 -0.0777  0.0198
16445W        W32254   9.872  11.457  14.216 -0.3530 -0.1577  0.0528
16446W        W32255   9.418   9.907   2.648  0.0716  0.3445 -0.0172
16447W        W32256   8.782  10.882  16.019 -0.1777  0.0878  0.0742
16448W        W32257   7.100   5.697   0.355 -0.1531 -0.0292  0.3744
16449W        W32258   2.931  16.720  13.925  0.1062 -0.0460  0.0807
16450W        W32259  14.109   2.252  13.575  0.1621  0.1496  0.0325
16451W        W32260   0.097  15.986  14.569  0.0612 -0.1296  0.0693
16452W        W32261  15.735  13.090   1.457  0.1912 -0.2283 -0.2482
16453W        W32262   9.796   6.739  12.326  0.0468 -0.2177  0.0742
16454W        W32263  16.601  14.576  11.754 -0.0398  0.1536 -0.0632
16455W        W32264   9.707   0.640   5.432  0.1833 -0.0139 -0.1545
16456W        W32265  15.384  17.165  11.432  0.3825  0.1361  0.0085
16457W        W32266  13.647  13.856  12.882  0.0338 -0.2518 -0.1977
16458W        W32267   5.901  14.229   5.908  0.0636 -0.2139 -0.1976
16459W        W32268   4.953  15.951   4.019  0.1321 -0.0673  0.1056
16460W        W32269   6.771   6.324   2.032 -0.0934  0.0855 -0.1377
16461W        W32270   9.850  11.063   0.863  0.2480 -0.2656  0.0911
16462W        W32271  13.117   2.835   1.070 -0.1252  0.1943 -0.0954
16463W        W32272  14.957   3.599   5.714 -0.0526  0.0476  0.0206
16464W        W32273   9.585  16.218   4.628 -0.0400  0.0973 -0.1681
16465W        W32274   4.982  11.100  10.689  0.0117 -0.2036  0.3606
16466W        W32275  17.633  11.176   2.147  0.0561  0.0754  0.1049
16467W        W32276   6.044   5.235   4.198 -0.1126  0.1723 -0.1390
16468W        W32277  15.494  17.171  13.783 -0.0031  0.0811 -0.4342
16469W        W32278   3.548   0.733   5.381 -0.0203  0.0693  0.4539
16470W        W32279  12.736   1.082  13.997  0.0044 -0.0442 -0.0106
16471W        W32280   8.119   1.919   1.622  0.0134 -0.0949 -0.1618
16472W        W32281  17.023  16.864  13.460 -0.0244  0.1035  0.1519
16473W        W32282  13.896  16.231  14.819 -0.0364 -0.0166 -0.0102
16474W        W32283   9.335  10.861  13.553  0.2126  0.1407 -0.1005
16475W        W32284   2.417  15.924  13.288  0.0779  0.0357 -0.1396
16476W        W32285  10.753   3.427  14.910 -0.0786  0.4103  0.0989
16477W        W32286  10.010  17.682   3.689 -0.2172 -0.1037  0.0906
16478W        W32287   8.007  12.775  13.992 -0.1328 -0.0353  0.2911
16479W        W32288  10.585   8.087   1.809 -0.1730  0.2668 -0.0091
16480W        W32289   5.882  15.312  12.353 -0.0252 -0.0897 -0.0185
16481W        W32290  16.939  16.941  15.801  0.1985 -0.0575 -0.4067
16482W        W32291   7.818  12.476  14.755 -0.0701 -0.1124  0.0907
16483W        W32292  13.506   9.088   0.695  0.1654 -0.0964 -0.1845
16484W        W32293  10.525   0.826   2.209  0.2722  0.0551 -0.0491
16485W        W32294  16.778   2.284   5.085  0.2946 -0.3621 -0.4030
16486W        W32295  12.537   9.435  14.225 -0.0867 -0.0019  0.1547
16487W        W32296  10.262  12.741   0.717 -0.2310 -0.1209 -0.1046
16488W        W32297   2.909  12.680   4.844 -0.0598  0.0450 -0.0176
16489W        W32298  10.139  13.574   3.523  0.2362 -0.1707  0.2040
16490W        W32299   6.543   2.751   4.854 -0.1169 -0.1499 -0.0063
16491W        W32300  17.423   8.167   5.437 -0.3141  0.2101 -0.0970
16492W        W32301  11.530  14.714   1.137 -0.1556  0.1138 -0.0023
16493W        W32302  10.840  12.579   3.084 -0.3166 -0.0040 -0.1476
16494W        W32303  12.870   2.366   1.047  0.2418 -0.0280 -0.0191
16495W        W32304   6.472   3.035  11.077 -0.2760  0.3751 -0.0632
16496W        W32305  12.040  17.216  15.680  0.2861  0.0056 -0.1596
16497W        W32306   2.626  11.826  12.637  0.5164 -0.2614  0.1858
16498W        W32307   4.459   1.382  12.116  0.0575  0.1144  0.0187
16499W        W32308  13.774   9.623   1.147 -0.1864  0.1589  0.0157
16500W        W32309   0.587   9.402   4.798  0.1072 -0.1727  0.2214
16501W        W32310   0.385   0.941  12.404  0.1406  0.0587 -0.2138
16502W        W32311  16.183   9.444  12.657 -0.2410  0.0994  0.4266
16503W        W32312   6.655   6.218   1.050  0.0250 -0.1774  0.0079
16504W        W32313   7.980   6.493  14.366 -0.1738 -0.1097  0.0300
16505W        W32314   9.880  11.394  15.446  0.1706  0.1748  0.0077
16506W        W32315   8.525  10.879  12.670  0.2141 -0.4082 -0.0093
16507W        W32316   7.357   6.663   2.027 -0.0001  0.5072 -0.1098
16508W        W32317   3.193   9.953  14.436 -0.2041 -0.0278 -0.0949
16509W        W32318  13.861  11.884   5.213 -0.1000  0.0755 -0.1752
16510W        W32319   8.478  17.276  11.708  0.2255 -0.0768  0.2198
16511W        W32320  11.719   4.813  14.221  0.2476  0.2564  0.0013
16512W        W32321  13.228  15.819   3.814 -0.1333  0.1486  0.0075
16513W        W32322   7.777  18.204   4.002  0.1087  0.0629 -0.0815
16514W        W32323  13.534   9.476  11.997 -0.3995  0.0354  0.0589
16515W        W32324   9.856  14.396  14.784  0.0356 -0.2521  0.2358
16516W        W32325  15.388   7.852  15.649  0.0619 -0.1084 -0.0974
16517W        W32326   6.531   8.774   3.243  0.0702  0.1251  0.3796
16518W        W32327  17.232  11.083  12.337 -0.0401  0.0643  0.1679
16519W        W32328  14.273   8.167   0.818  0.1660  0.2246  0.0502
16520W        W32329  18.186   6.424  13.923  0.2066  0.0489 -0.1677
16521W        W32330  13.427   3.706   4.210  0.1405  0.1142 -0.3579
16522W        W32331   8.415  17.947   2.500 -0.3930  0.0769 -0.0224
16523W        W32332   4.473   7.369   5.508 -0.2895  0.1920  0.3525
16524W        W32333   9.605  16.482   5.455 -0.2597 -0.0766  0.2601
16525W        W32334  16.923  10.309  15.486  0.1628  0.1204 -0.1228
16526W        W32335   7.564   8.603  13.590  0.0599  0.0957  0.0126
16527W        W32336   2.828  14.871  15.199 -0.1720  0.1981  0.2032
16528W        W32337   4.595   4.543  14.078 -0.1487 -0.1309  0.0128
16529W        W32338   2.093   2.485  12.414 -0.2216  0.2452  0.0618
16530W        W32339   9.849  10.118   1.730 -0.0892  0.2560 -0.0977
16531W        W32340   3.433   6.649   0.574 -0.2177  0.0162  0.2605
16532W        W32341  16.050   1.182   2.848 -0.0821  0.3306 -0.1913
16533W        W32342  14.643   6.882   5.548  0.3920 -0.1878  0.4155
16534W        W32343  17.004  12.566   0.279 -0.1184  0.0027  0.1349
16535W        W32344  10.833  16.841  11.599  0.2129  0.0962 -0.1444
16536W        W32345   6.826   6.733  12.145 -0.1359  0.0371  0.0221
16537W        W32346   6.486   4.084   3.498  0.4598 -0.0551  0.0012
16538W        W32347   9.543  14.153  12.609 -0.1368 -0.1781  0.0664
16539W        W32348   9.004  12.249  13.372  0.1790  0.3268  0.0538
16540W        W32349   7.886  15.076   1.067  0.6490 -0.0910  0.1240
16541W        W32350   6.112   1.819  13.517  0.1197  0.0573  0.1059
16542W        W32351  13.584   6.764  15.298  0.1543  0.1790  0.2629
16543W        W32352   5.652   6.036   1.226  0.0697  0.1237  0.0373
16544W        W32353  18.082   8.239   2.497  0.2779 -0.1413 -0.2294
16545W        W32354  16.789   0.832   0.031 -0.2398 -0.0043 -0.0525
16546W        W32355  15.944  16.837  12.785  0.1179  0.1572 -0.2679
16547W        W32356   2.169  15.250  11.414 -0.0478 -0.0344  0.0969
16548W        W32357   9.498  15.959   0.194 -0.1246 -0.0110 -0.0942
16549W        W32358   9.263   1.862  11.838 -0.0034  0.1567  0.1651
16550W        W32359   2.874   0.594   5.984 -0.0459  0.0417 -0.1019
16551W        W32360  13.682  11.590   4.096 -0.0943 -0.1868 -0.3714
16552W        W32361  16.417  14.077  15.970 -0.2008  0.0151  0.0275
16553W        W32362   2.720   5.273  12.577  0.0914  0.0098 -0.3225
16554W        W32363   0.844  16.998   4.970 -0.3994 -0.0092 -0.0594
16555W        W32364   1.976  17.110  14.196  0.2744  0.3250 -0.0128
16556W        W32365   6.718   3.474  11.057 -0.2533 -0.0241 -0.0570
16557W        W32366  11.092   4.566   3.805  0.0919  0.1604  0.0884
16558W        W32367  17.898   7.764  13.126  0.1274 -0.2586  0.3052
16559W        W32368  12.667   4.723   5.613 -0.1622  0.3338 -0.1481
16560W        W32369   6.980   8.962  11.332  0.1150  0.0697  0.1666
16561W        W32370   6.043  13.085   4.623 -0.3459  0.2708  0.0033
16562W        W32371  16.121   3.777   3.766  0.2168 -0.2032  0.4635
16563W        W32372   3.834   6.859   0.846  0.4628  0.2058  0.1023
16564W        W32373   1.310   1.452  14.074 -0.1148 -0.0758  0.0986
16565W        W32374  14.498  10.571  15.052 -0.1688 -0.0258 -0.1902
16566W        W32375   1.145  11.032  12.900  0.1523 -0.0894  0.0841
16567W        W32376   3.853  17.305   1.877 -0.0524 -0.1701 -0.0445
16568W        W32377   2.340  17.130   5.571  0.0546 -0.1994 -0.2685
16569W        W32378  12.148   0.949   3.442  0.1609  0.0245 -0.0133
16570W        W32379   7.750   1.832   3.641  0.0575 -0.1758 -0.1536
16571W        W32380  11.339  11.437   9.806 -0.0126  0.0755 -0.2039
16572W        W32381   8.270   6.057  11.520 -0.0490  0.1785  0.0404
16573W        W32382  10.699   8.649   3.222 -0.1644 -0.0344  0.0007
16574W        W32383   4.923   5.091  13.252  0.0522 -0.3148 -0.0831
16575W        W32384  13.982  14.699   4.385  0.3038 -0.0575  0.1579
16576W        W32385   8.129  13.235   3.998  0.1289 -0.0645 -0.3305
16577W        W32386   7.918  13.952   3.769 -0.1187  0.1460  0.2894
16578W        W32387   4.961   1.380  12.318  0.1847 -0.1005 -0.3986
16579W        W32388   6.343  15.754   0.444  0.0174 -0.2005  0.1143
16580W        W32389  11.353  15.239   0.137 -0.2863 -0.2448 -0.0824
16581W        W32390  15.080   8.947   1.820  0.0663  0.1649  0.1356
16582W        W32391   5.661  12.053   3.883  0.1737 -0.1796 -0.0102
16583W        W32392   4.813  15.612  14.793  0.0854  0.2099 -0.4282
16584W        W32393   2.347   2.456   5.351 -0.1923  0.3718  0.0096
16585W        W32394   7.833  17.386  16.183 -0.0859  0.2831 -0.1540
16586W        W32395   9.087  13.829  13.856 -0.0362  0.1870 -0.1907
16587W        W32396  16.479   0.154   5.116  0.1600  0.1951  0.1497
16588W        W32397   1.091   9.704   5.573  0.0704  0.0807  0.0796
16589W        W32398   9.765  13.360   1.273 -0.2520  0.1366 -0.1932
16590W        W32399  12.322  13.587   0.946 -0.0532  0.2510 -0.0239
16591W        W32400   3.987  11.824   1.978 -0.0073 -0.2583  0.0116
16592W        W32401   9.279  12.198   5.500 -0.0154  0.1787 -0.0623
16593W        W32402   3.478   0.398  14.270  0.1976 -0.0225  0.1824
16594W        W32403  16.563  14.738   4.246  0.1956 -0.2921  0.1154
16595W        W32404   9.223   2.221   1.894 -0.3206  0.3289  0.2934
16596W        W32405   2.650  14.460  15.554  0.0459  0.0473 -0.0498
16597W        W32406   4.496  11.254  13.832 -0.0170  0.0927  0.3667
16598W        W32407  13.740  13.936  14.557 -0.0833  0.3238  0.1199
16599W        W32408  13.066   9.509  16.243 -0.0605  0.0170  0.1758
16600W        W32409   3.120   6.335   1.029 -0.0658 -0.1852 -0.0704
16601W        W32410  10.821   4.198  10.845  0.0881 -0.1157  0.0796
16602W        W32411   2.940   1.696  13.704  0.0877  0.1381 -0.0036
16603W        W32412  17.736  10.287   5.272 -0.1183 -0.0018  0.0614
16604W        W32413  10.401   5.936   4.923 -0.0418 -0.2775 -0.1003
16605W        W32414  15.471  17.688  11.530 -0.0393  0.0668  0.1964
16606W        W32415   3.068  17.724   4.646  0.0245  0.0964  0.2099
16607W        W32416   6.853   7.954   4.260 -0.2085  0.1727 -0.0142
16608W        W32417   7.771   6.905  15.757  0.3334 -0.0087  0.0469
16609W        W32418  10.338   1.994  11.420  0.1554  0.0633 -0.1119
16610W        W32419   0.616   8.087   2.671 -0.0324 -0.0717  0.1052
16611W        W32420  13.605   1.240   3.267 -0.1879  0.0399 -0.1958
16612W        W32421   5.127   0.415  13.447 -0.2032  0.1384  0.2005
16613W        W32422   0.637   7.382  14.600 -0.2537  0.0203  0.0632
16614W        W32423   6.011  15.571  15.858  0.0019  0.1818 -0.0893
16615W        W32424  17.631   8.694   3.509  0.0824 -0.1577  0.0743
16616W        W32425   5.405   1.035   0.235  0.1412 -0.1657 -0.1559
16617W        W32426   0.367   0.614  13.347 -0.0161 -0.2089  0.1844
16618W        W32427   9.866   3.479  13.277 -0.1134 -0.3301 -0.0428
16619W        W32428  13.993  12.191  13.958 -0.1699  0.1014 -0.1537
16620W        W32429  12.378   0.414   1.355  0.0236  0.0360  0.0281
16621W        W32430   6.542  11.661  15.721  0.0270 -0.0464 -0.0460
16622W        W32431   6.986   3.961  12.729  0.2620 -0.2632  0.0201
16623W        W32432   4.630  12.301  12.659  0.0975 -0.1137  0.0117
16624W        W32433   7.962  17.261  13.278 -0.0497 -0.0522  0.1037
16625W        W32434  16.633   8.807  14.496 -0.1748  0.0504  0.2476
16626W        W32435  17.090  14.718  11.665 -0.3569 -0.1410 -0.0113
16627W        W32436  12.853   4.534   2.649 -0.0869 -0.2463 -0.0688
16628W        W32437   3.062  15.038   0.751 -0.2431  0.1644 -0.1914
16629W        W32438  18.159  12.408  15.278 -0.0568  0.0816 -0.0657
16630W        W32439   4.948  12.013   9.901 -0.1361  0.3074  0.0186
16631W        W32440  17.772   9.262  14.084 -0.0116 -0.1142 -0.0216
16632W        W32441   4.215  14.459  15.521 -0.3600  0.2114 -0.0451
16633W        W32442  18.001   9.141   0.054 -0.1108 -0.2714 -0.1452
16634W        W32443  12.044  14.758   2.775  0.1505  0.1857  0.1699
16635W        W32444  11.426   9.279   2.330  0.1306  0.5019  0.0784
16636W        W32445  12.401  14.743   1.053  0.1119 -0.0217  0.2921
16637W        W32446   3.609  14.066  12.083 -0.2160 -0.1746  0.1084
16638W        W32447   6.553   3.676   2.255 -0.0288  0.0005 -0.3782
16639W        W32448  17.489  10.175   2.636  0.0166  0.2073 -0.0827
16640W        W32449  17.241   8.224   0.950 -0.1569  0.0361  0.1869
16641W        W32450  17.835   6.652  14.751  0.1325  0.2819  0.0277
16642W        W32451  15.881  12.027  11.897 -0.2886  0.0862  0.2278
16643W        W32452  15.101  16.433   0.689 -0.0708 -0.1620 -0.2815
16644W        W32453   1.701   9.732   3.936  0.0951 -0.0168  0.1004
16645W        W32454  17.006   7.761  13.072 -0.0534  0.2772 -0.1064
16646W        W32455  11.821   9.623   2.417 -0.2846  0.0859 -0.2992
16647W        W32456  16.352   1.634   2.013  0.3057 -0.0568 -0.1065
16648W        W32457   4.368  12.756   2.319 -0.0116 -0.1936  0.2127
16649W        W32458  14.471   3.472  11.746 -0.1723 -0.1134  0.1487
16650W        W32459  16.885  13.244   4.521  0.0805  0.2569 -0.1251
16651W        W32460   6.865   8.016  12.438  0.2060 -0.0072  0.1138
16652W        W32461   4.123   1.269  14.418 -0.0389  0.2386 -0.0023
16653W        W32462   3.681   7.440   4.378 -0.0693 -0.0860 -0.4758
16654W        W32463   7.388   7.107  15.565 -0.0810  0.1145  0.1942
16655W        W32464   8.150   4.978   1.121 -0.3333 -0.0396 -0.0495
16656W        W32465   8.570  11.842   1.333 -0.3442  0.1143  0.0149
16657W        W32466   8.814   0.161   3.655  0.3033  0.0807 -0.2532
16658W        W32467  18.190   8.878  15.588  0.2897 -0.0364  0.1036
16659W        W32468  15.618   0.104   1.323 -0.0573 -0.0278 -0.1038
16660W        W32469   8.908  14.852  14.759 -0.2609  0.1256 -0.2963
16661W        W32470  13.788  14.634  11.186  0.1343 -0.1901 -0.0615
16662W        W32471   0.905  12.377  11.856 -0.1416 -0.0298  0.0398
16663W        W32472   7.178   1.971  15.268 -0.3631 -0.2361  0.0985
16664W        W32473  15.796   0.031  12.881 -0.1050  0.1073  0.2139
16665W        W32474   2.806   2.702   3.999 -0.0295  0.0889  0.0010
16666W        W32475   4.731   6.364  13.891 -0.0794 -0.1665  0.0377
16667W        W32476  13.972   6.110   1.475  0.2365  0.0980  0.0380
16668W        W32477   1.407   7.661   3.131  0.0519  0.0517 -0.1437
16669W        W32478  17.764   5.390  15.557 -0.2324  0.0002 -0.0500
16670W        W32479   6.676  16.388   5.289  0.2478 -0.1682 -0.0452
16671W        W32480  16.573  13.877  13.404  0.1657  0.1169 -0.2306
16672W        W32481   6.446  11.329  11.370 -0.2762 -0.3138  0.2308
16673W        W32482  13.031  11.836  11.513 -0.1822  0.1483  0.0728
16674W        W32483  15.890   4.281   5.068 -0.1700 -0.0726  0.0828
16675W        W32484   3.953   0.442  13.997 -0.1270 -0.0480  0.0552
16676W        W32485   5.336   4.284  13.380 -0.1992 -0.0135 -0.1242
16677W        W32486   3.474   1.233   5.564 -0.0961  0.1187 -0.0693
16678W        W32487   7.321   3.516   0.419 -0.1591 -0.0730 -0.0053
16679W        W32488  10.915   7.631  15.431 -0.1182  0.0379  0.1937
16680W        W32489  16.432   4.040   4.008 -0.1242 -0.0602 -0.2675
16681W        W32490  11.348  15.232  11.555  0.0616 -0.0970  0.0780
16682W        W32491  14.117   3.741  12.026  0.1228  0.3354 -0.0133
16683W        W32492  11.236  15.164   4.813 -0.0514 -0.1535 -0.1486
16684W        W32493   1.851   8.759  14.905  0.0751 -0.2238  0.0832
16685W        W32494  16.390   5.980  13.319 -0.0892  0.0064  0.0537
16686W        W32495   9.887  11.657   2.623  0.1980  0.1544  0.1529
16687W        W32496   6.433   3.968  11.824  0.0826  0.3158  0.1272
16688W        W32497  15.672   7.804  16.025 -0.1786 -0.0153  0.0180
16689W        W32498   2.535  14.320   1.662  0.0615  0.2906  0.0025
16690W        W32499  13.250   5.011   4.938 -0.0854 -0.1230  0.0948
16691W        W32500   2.726   3.756   0.249  0.2532 -0.2030  0.4870
16692W        W32501   2.192   3.423   3.724 -0.1456 -0.3185 -0.0970
16693W        W32502   3.603   0.247   2.879  0.6004 -0.3726  0.0935
16694W        W32503   4.449  16.398   4.421  0.3214 -0.3713 -0.2550
16695W        W32504  17.517  15.380   2.985  0.1396  0.2451 -0.0721
16696W        W32505  12.526   3.612   5.207 -0.4014 -0.0009  0.3399
16697W        W32506   7.866   2.476  13.737 -0.0793 -0.1630  0.2880
16698W        W32507  11.946  16.097   4.128 -0.0505 -0.0688  0.2267
16699W        W32508   9.379   5.525  14.463  0.1441 -0.0012  0.0271
16700W        W32509   2.275   8.331  16.309 -0.2321 -0.1681 -0.2956
16701W        W32510   2.542  13.574   2.051 -0.1176 -0.0685  0.2402
16702W        W32511   3.126  17.725  16.121 -0.1159  0.2003 -0.1448
16703W        W32512  11.290  13.607   5.074 -0.1744 -0.1694  0.0813
16704W        W32513   6.235   5.962  16.009 -0.0465 -0.0549 -0.1097
16705W        W32514   1.013  16.106  15.049  0.2245  0.0685 -0.1189
16706W        W32515   2.459   9.343   2.234  0.0005 -0.0387 -0.2729
16707W        W32516  16.371   9.911   3.833  0.1612 -0.0125 -0.0796
16708W        W32517   8.803   9.681   0.803 -0.1146 -0.0230  0.1005
16709W        W32518  16.136  11.227  16.297  0.0377  0.0817  0.2342
16710W        W32519   9.359   9.300   4.060 -0.0849 -0.1364  0.0252
16711W        W32520  16.890  15.743  15.210 -0.0227  0.1417  0.1398
16712W        W32521   6.888   3.109  11.688 -0.0760 -0.1200 -0.2191
16713W        W32522  17.958   9.204  15.891 -0.1241  0.2094  0.1995
16714W        W32523   4.285   8.682  14.033  0.0078 -0.0585  0.0624
16715W        W32524   6.193   7.536  12.728 -0.5599 -0.0201 -0.2799
16716W        W32525   2.071   1.551   3.639 -0.0873 -0.3035 -0.0566
16717W        W32526   6.330  15.961   5.527  0.0789 -0.3189 -0.1458
16718W        W32527  17.344  16.136   5.083 -0.1138 -0.1118 -0.1752
16719W        W32528   0.031   3.243   0.865  0.2519  0.0978  0.1345
16720W        W32529  11.098   1.525  13.945 -0.2670  0.0293 -0.1909
16721W        W32530   3.715  15.103  12.330  0.0118  0.2358 -0.2034
16722W        W32531  17.639   7.876   4.178 -0.3715 -0.3888  0.0888
16723W        W32532   9.987   4.323  10.486 -0.1955 -0.3799  0.2774
16724W        W32533  14.401  10.244   2.163 -0.0827  0.0520 -0.0963
16725W        W32534   2.515  15.323   1.328  0.0702 -0.1910 -0.1166
16726W        W32535  10.565   8.191  12.215  0.0863  0.0994 -0.0577
16727W        W32536  11.921   3.354   4.232  0.3124  0.0619 -0.2051
16728W        W32537   9.494  14.793   0.652 -0.1050 -0.0072 -0.0242
16729W        W32538   4.172   1.094  14.929  0.0411 -0.1702  0.0918
16730W        W32539   1.616   8.132   1.279 -0.2275 -0.0186 -0.3620
16731W        W32540   4.043   3.759   4.769 -0.2458 -0.1859 -0.0340
16732W        W32541  15.369  14.311  12.426 -0.1009  0.0926  0.0867
16733W        W32542   4.993  10.958   1.647  0.1109 -0.0511 -0.1541
16734W        W32543   1.397   3.710  12.569  0.3577 -0.2685 -0.0025
16735W        W32544  12.687   9.539  12.904 -0.0376 -0.0340  0.5304
16736W        W32545   1.116   8.094   5.404  0.3642 -0.0759  0.0451
16737W        W32546   0.959  10.268  12.054  0.0709  0.1110  0.2363
16738W        W32547  16.952  14.160  10.801  0.1292  0.0556  0.3594
16739W        W32548   1.139   6.682  14.127 -0.0148  0.1495  0.0793
16740W        W32549   9.753   6.347  11.241  0.2321 -0.0626 -0.2710
16741W        W32550   0.764  17.216  11.980  0.1325 -0.1885  0.3220
16742W        W32551   2.058  13.304   4.941 -0.0716 -0.1266  0.1849
16743W        W32552   4.308  11.945  13.058  0.1205 -0.2170 -0.1926
16744W        W32553   9.068  18.109   2.465 -0.1222 -0.0906  0.0423
16745W        W32554  14.009  14.042   1.767 -0.0924  0.1183  0.3216
16746W        W32555   7.553   4.100   1.060 -0.0940  0.0598  0.1951
16747W        W32556   1.367   2.644   2.947  0.0457 -0.0917 -0.2211
16748W        W32557  12.687  14.301   4.117  0.0929 -0.2006 -0.4115
16749W        W32558  15.226  13.605  11.123  0.0077  0.2070  0.0513
16750W        W32559  15.133  17.630   1.798  0.0075  0.1142 -0.2043
16751W        W32560  10.945  13.961  11.587 -0.2146 -0.0661 -0.0972
16752W        W32561   6.090   3.927   0.216  0.1536 -0.1873  0.2063
16753W        W32562  11.876   0.075   5.326 -0.0253  0.1995  0.2439
16754W        W32563   3.048   9.542  15.463  0.1353 -0.0803 -0.0377
16755W        W32564  13.136   3.133  13.020  0.2287 -0.1295  0.0987
16756W        W32565   4.342  17.002  12.179  0.1790 -0.2281 -0.0422
16757W        W32566   1.282  14.779  13.671 -0.0977  0.1877  0.3573
16758W        W32567   0.767   5.392  14.313  0.0780  0.0324 -0.2446
16759W        W32568   2.865  16.553   4.213  0.0267 -0.0760 -0.2864
16760W        W32569   1.440  16.231   1.911 -0.1524 -0.2968 -0.0877
16761W        W32570   9.118  12.443   5.085  0.0990 -0.1032 -0.0610
16762W        W32571  11.363  14.437   4.873 -0.0407  0.4451  0.0050
16763W        W32572  11.258  16.038   0.471 -0.1877 -0.0711 -0.1408
16764W        W32573  18.177   1.485  11.273  0.3541  0.1571 -0.0811
16765W        W32574   7.374   3.390   1.758  0.0660 -0.0835  0.0640
16766W        W32575  10.992   2.334   1.626 -0.2335 -0.1200 -0.1488
16767W        W32576   1.712   2.254  14.442  0.0252  0.1319 -0.2897
16768W        W32577   9.017  10.361   1.441 -0.0001  0.2479  0.2532
16769W        W32578   6.371  16.746   4.872 -0.3322 -0.1709  0.4522
16770W        W32579   3.794   5.151   5.637 -0.3461  0.0802  0.2034
16771W        W32580   9.977  17.720   1.707  0.2638  0.1609  0.1004
16772W        W32581   2.844  17.256  13.295  0.0977 -0.1597 -0.0867
16773W        W32582   6.128  12.293   2.159 -0.2963  0.2404  0.0313
16774W        W32583   4.439  15.695  12.805 -0.3012  0.0798  0.1117
16775W        W32584  10.116   8.213  16.059 -0.2997  0.0786  0.0882
16776W        W32585   2.839   2.742  11.642  0.1181 -0.3073  0.2778
16777W        W32586  10.012  15.677  15.617 -0.1149  0.0554  0.1761
16778W        W32587  10.072   9.812   1.396  0.0391 -0.0308  0.1688
16779W        W32588  17.236   6.661   0.878  0.0325 -0.0492  0.1948
16780W        W32589  16.715   3.591   4.004  0.1460 -0.1161 -0.1405
16781W        W32590  11.805  15.622   1.298 -0.1110 -0.1695  0.2168
16782W        W32591  14.210  10.308  14.140  0.0612  0.4406  0.3582
16783W        W32592  16.613  17.064   1.262 -0.3220 -0.0169  0.1167
16784W        W32593  11.522   4.232   0.344 -0.0307  0.2460 -0.0592
16785W        W32594  12.221  17.188   3.415 -0.0397 -0.2474  0.0250
16786W        W32595   4.364   1.601  14.900 -0.0991 -0.2852  0.1756
16787W        W32596   8.065  12.933   5.917  0.1189 -0.2657 -0.2224
16788W        W32597  18.081  17.387  12.811  0.2813 -0.2570 -0.5284
16789W        W32598   3.150   1.962   1.000 -0.5473 -0.0450 -0.1983
16790W        W32599   7.084  14.252   5.778  0.0090 -0.2042 -0.1116
16791W        W32600  17.619  13.110  12.452  0.0379 -0.3500  0.3562
16792W        W32601  14.749  11.026  13.603 -0.3776  0.0993 -0.1099
16793W        W32602  13.939  15.956   3.738  0.1296  0.1652 -0.0085
16794W        W32603   5.993   2.105  16.115 -0.1069  0.1475 -0.2792
16795W        W32604   1.773  16.608  14.152  0.1096 -0.2780 -0.2149
16796W        W32605   8.872   9.136  13.289 -0.0645  0.0094  0.0725
16797W        W32606  18.205   3.211  12.926  0.1332 -0.3349  0.1416
16798W        W32607  14.044  16.266   1.613 -0.2971  0.2294  0.0042
16799W        W32608  14.029  17.188   3.976 -0.2531  0.3970 -0.1173
16800W        W32609  13.919   8.042  12.213 -0.0635 -0.2255  0.0226
16801W        W32610  14.559  13.521  11.313  0.2702  0.1326 -0.1247
16802W        W32611   2.672  13.599   3.622 -0.0941 -0.2192 -0.0047
16803W        W32612  12.881  15.726   1.349  0.0278  0.0181  0.0389
16804W        W32613   0.206  14.377   2.568 -0.0119  0.1770 -0.2505
16805W        W32614  14.674  13.793  15.983  0.0954  0.1245 -0.0345
16806W        W32615  16.103  10.044  11.749  0.0080 -0.0790 -0.0224
16807W        W32616   4.860   2.196   2.812  0.1823 -0.1069 -0.0003
16808W        W32617   0.033   7.283  13.219  0.0437 -0.0798  0.1698
16809W        W32618   7.533  11.710  15.940  0.3773 -0.1662 -0.0945
16810W        W32619  13.173   4.484  12.530  0.0871 -0.1662  0.0328
16811W        W32620  12.428   2.019  12.830 -0.0665 -0.0526 -0.0049
16812W        W32621   2.641   7.363  12.271 -0.3982 -0.0443 -0.1045
16813W        W32622  14.267  16.967  15.277 -0.0869 -0.2086 -0.0445
16814W        W32623   9.004   1.695  11.017 -0.2266 -0.1615  0.0501
16815W        W32624   3.214   4.906  15.351 -0.3067  0.3215 -0.2313
16816W        W32625  15.505   7.381  10.910 -0.1595 -0.0798  0.0042
16817W        W32626   5.700  14.229   1.748  0.3077  0.1233 -0.0130
16818W        W32627   9.056  11.070   4.820  0.0169  0.0540  0.1259
16819W        W32628  13.832   3.931   3.468  0.0260  0.2580 -0.0788
16820W        W32629   2.697   4.241   0.064  0.2931  0.1870 -0.1596
16821W        W32630   0.410  14.072   5.298  0.2119  0.1516 -0.0703
16822W        W32631   5.279   0.762   3.170  0.1380 -0.2285 -0.2049
16823W        W32632  11.229  12.215   1.599  0.1157 -0.1545 -0.3588
16824W        W32633  15.998  12.480  16.017  0.0239 -0.1799  0.1360
16825W        W32634   8.514   5.394   2.029 -0.2199  0.1656  0.1137
16826W        W32635  15.351   2.320   0.808  0.2397  0.1737 -0.0452
16827W        W32636   5.108   2.680   0.704  0.0065  0.4217  0.0761
16828W        W32637  12.202  16.188   3.670  0.1440 -0.0180 -0.2471
16829W        W32638  11.730   9.980  10.544 -0.0410  0.1240 -0.2329
16830W        W32639  16.657  16.076   0.438  0.0734  0.1154 -0.0565
16831W        W32640  14.090  13.144   2.747  0.2704  0.0405 -0.0809
16832W        W32641   9.142  12.704  15.608  0.2568  0.1126  0.0733
16833W        W32642  10.097  15.084  16.243  0.0035 -0.0696 -0.2933
16834W        W32643   1.400  14.405   4.766  0.0492  0.1851  0.2389
16835W        W32644   5.517   2.862   0.514  0.1041  0.1319 -0.2936
16836W        W32645  14.986   4.591   3.484  0.0437  0.1579  0.3356
16837W        W32646   4.695   7.086  14.242 -0.0215 -0.1562 -0.1768
16838W        W32647   9.388   4.241  16.099  0.3392  0.2395 -0.3416
16839W        W32648   1.958   3.233   2.255  0.0019  0.0184  0.0462
16840W        W32649   2.277   9.659  14.209 -0.1774 -0.2370 -0.3289
16841W        W32650   8.673  17.174   0.860  0.2059 -0.0265  0.0003
16842W        W32651   4.309   2.550   1.333  0.1450  0.2575  0.0724
16843W        W32652  10.580   0.620  11.107 -0.0880 -0.2664  0.4744
16844W        W32653   5.030  15.587   0.665 -0.2510 -0.3113  0.4275
16845W        W32654   6.359  15.373   5.191 -0.0167 -0.1042  0.0247
16846W        W32655   3.908  16.649  14.377  0.0073  0.4324  0.2579
16847W        W32656  17.887  12.639   3.319  0.0219  0.2285 -0.0286
16848W        W32657  16.554   6.423  15.599  0.0180  0.2469 -0.0686
16849W        W32658   3.990   9.947  13.597 -0.1238 -0.0483  0.0399
16850W        W32659  15.647  12.166  15.011  0.1461  0.2714 -0.3022
16851W        W32660   8.603   2.021  14.070 -0.0279  0.0563 -0.0833
16852W        W32661  15.518   9.187  11.995  0.0012 -0.1197 -0.3828
16853W        W32662   6.602  11.258  13.488 -0.1766 -0.2874  0.0080
16854W        W32663  17.167  17.273  12.472 -0.0526 -0.0179 -0.0313
16855W        W32664  16.242  11.464   6.099 -0.1516  0.1530  0.1004
16856W        W32665  12.999  11.606   5.461 -0.1922  0.2538 -0.0083
16857W        W32666  13.638  13.055  13.533  0.0733  0.1705  0.0221
16858W        W32667  18.152  15.183  14.771 -0.1430 -0.1474 -0.0023
16859W        W32668   8.772  16.626   0.200  0.1140 -0.0904  0.1987
16860W        W32669   1.204  11.643   0.019 -0.3149  0.1290 -0.1237
16861W        W32670   6.776   6.967   3.128 -0.0065  0.1012 -0.1184
16862W        W32671  14.527   8.980   5.906  0.3816  0.0886  0.1138
16863W        W32672  13.454  16.208   4.090  0.1085  0.1594 -0.0578
16864W        W32673   1.643  10.111  14.653  0.2166  0.0831 -0.2516
16865W        W32674  11.159   4.097   4.584  0.0653  0.0085  0.5215
16866W        W32675   1.040  16.099  13.981  0.2723  0.2619 -0.0383
16867W        W32676   9.846   0.340   2.189  0.0191 -0.2181  0.1977
16868W        W32677   9.421   2.270   0.465 -0.3222 -0.1300  0.2211
16869W        W32678  15.675  14.421   4.807  0.2354 -0.0999 -0.0846
16870W        W32679   6.636   6.765   5.151 -0.1829 -0.0358 -0.0111
16871W        W32680  16.404  12.592  13.315  0.0755 -0.0529  0.0006
16872W        W32681  10.647   8.990  11.913  0.1827 -0.3831 -0.0630
16873W        W32682  15.141   3.925  13.414  0.0329 -0.1314 -0.0870
16874W        W32683  12.995   3.128   1.487  0.1937  0.0792  0.1070
16875W        W32684  10.130  18.036   0.252  0.0594  0.1737 -0.1773
16876W        W32685  15.090  15.509   2.001 -0.0817 -0.2014 -0.1391
16877W        W32686   0.906  16.768  15.679  0.2071  0.3983 -0.2748
16878W        W32687   3.745  15.646  15.345  0.2036 -0.1766 -0.3024
16879W        W32688  10.923  11.476   1.891 -0.0922  0.2573  0.5476
16880W        W32689  13.529  16.427  16.261  0.0076 -0.0906 -0.2199
16881W        W32690   8.411  12.970   4.568 -0.1602  0.1213 -0.1037
16882W        W32691  12.386   6.966   4.298  0.0165  0.0054 -0.2083
16883W        W32692   3.992  16.707   4.420  0.3335 -0.0840  0.1445
16884W        W32693   2.160   6.919  15.578 -0.2935  0.0822 -0.0544
16885W        W32694  10.607  15.298  14.161 -0.2378 -0.2741  0.0827
16886W        W32695   1.905   7.472  16.278  0.4760  0.1968 -0.0685
16887W        W32696   6.229  14.379  12.501 -0.0029  0.0660  0.0473
16888W        W32697  17.890   4.247  12.643  0.3220 -0.0433 -0.1711
16889W        W32698  14.538  16.705  13.144 -0.2202 -0.3385 -0.1596
16890W        W32699   4.247   9.049   4.125 -0.3158  0.1395 -0.0471
16891W        W32700   0.589  16.144  11.915 -0.1876  0.0809 -0.1123
16892W        W32701  10.672  10.851  13.899 -0.3010  0.1267  0.0905
16893W        W32702   1.707   2.842  12.960  0.3429 -0.1438  0.0003
16894W        W32703  17.794   6.057   0.268  0.2015  0.1250  0.1656
16895W        W32704   6.776  14.359   2.761 -0.2650 -0.0308 -0.0900
16896W        W32705   8.734   0.179  13.138  0.2103 -0.0999  0.0733
16897W        W32706  16.694   4.161   5.546 -0.2049  0.1553  0.2604
16898W        W32707   0.680   8.476   5.296 -0.4388 -0.1629  0.1396
16899W        W32708   6.555  14.860  15.148 -0.0545 -0.0949 -0.3267
16900W        W32709  15.453   6.724   1.062  0.1122  0.1793  0.1323
16901W        W32710  12.980   8.430   1.061  0.0617 -0.0870  0.1106
16902W        W32711   0.952   2.509  10.848 -0.1336  0.1092 -0.0057
16903W        W32712  14.300   2.747   0.160  0.0248 -0.1349 -0.1535
16904W        W32713  17.059   1.338  13.386  0.2435 -0.2912 -0.1187
16905W        W32714  10.544  10.315  12.282 -0.1712 -0.0577 -0.2178
16906W        W32715   7.473   8.527  13.093  0.1827 -0.1823 -0.0660
16907W        W32716   6.422  15.849  12.360 -0.2123  0.4792  0.1725
16908W        W32717  15.175   2.363   2.925  0.5670  0.1497 -0.2054
16909W        W32718  16.007   4.327   6.331  0.0902 -0.1455 -0.2910
16910W        W32719  16.377   8.303  11.503  0.1194  0.0787  0.0665
16911W        W32720  15.596   7.356  11.488  0.1302 -0.1342  0.3184
16912W        W32721   6.788  16.655   2.901  0.6228  0.1969 -0.2882
16913W        W32722   2.778  16.004  15.980 -0.0486  0.1428 -0.2280
16914W        W32723   3.508  16.967   3.916 -0.1716  0.1003  0.0333
16915W        W32724  15.050  17.862  15.457  0.1177  0.2545  0.1977
16916W        W32725   2.732  12.493   5.717  0.0481  0.0351 -0.2951
16917W        W32726  15.294   8.681   5.132  0.0076  0.2579  0.3489
16918W        W32727  14.594   6.395  16.332 -0.0570 -0.0692  0.0151
16919W        W32728   8.558  15.973  13.907  0.0719 -0.1363 -0.2088
16920W        W32729   4.611  14.079   4.670 -0.3220 -0.2309  0.0332
16921W        W32730   0.289  12.017  15.416 -0.0501  0.1565 -0.3079
16922W        W32731   6.475   2.694   2.622 -0.2457  0.2460  0.1977
16923W        W32732  12.381  15.701   5.592  0.0554  0.0998  0.0230
16924W        W32733   8.655  13.136  16.240  0.1350  0.0845  0.0181
16925W        W32734   7.821   3.323  12.698  0.2412 -0.0808 -0.1004
16926W        W32735  14.294  17.973  16.270  0.0740  0.0821 -0.1480
16927W        W32736  10.648  15.636  15.956  0.1020  0.1820 -0.1368
16928W        W32737  14.361   1.424   4.296  0.1885  0.1273  0.1487
16929W        W32738  10.616  17.874  15.291  0.0016 -0.2488 -0.0961
16930W        W32739   8.629   9.043   5.003  0.2405  0.1601  0.1517
16931W        W32740   0.198   4.883   1.320  0.0316 -0.1312  0.1206
16932W        W32741   6.969  15.145   0.454 -0.0806 -0.3781  0.0045
16933W        W32742   6.567   1.836  14.602  0.1064  0.2488  0.0452
16934W        W32743   1.358   9.901  12.110 -0.3168  0.1102 -0.2445
16935W        W32744   1.341   5.723  15.774 -0.0137 -0.1371  0.0173
16936W        W32745  14.577   6.445   4.429  0.0544  0.1910  0.2033
16937W        W32746   1.676   3.739   3.103 -0.0304 -0.0160 -0.0985
16938W        W32747  17.681   2.473   5.326 -0.1198  0.2101  0.1440
16939W        W32748   0.512  12.679   3.420 -0.1634  0.1126  0.0761
16940W        W32749  14.893  14.621   3.604 -0.2071  0.1341  0.3090
16941W        W32750  12.970  17.783   0.592 -0.0223 -0.0870 -0.0563
16942W        W32751   9.247   1.303   4.385 -0.1409 -0.1635  0.4883
16943W        W32752  15.523  13.904  11.436  0.2274 -0.1548 -0.0699
16944W        W32753   8.601  17.340  14.932  0.0418 -0.2188  0.1798
16945W        W32754  15.950  11.989  15.918  0.0687 -0.0229  0.1601
16946W        W32755  14.988   9.159   2.278  0.4375 -0.1960 -0.1434
16947W        W32756   6.128   1.245  13.161  0.2894 -0.2377 -0.2906
16948W        W32757  12.493   8.506  10.917 -0.0458  0.1178  0.1034
16949W        W32758  11.796   4.547   0.623 -0.0747  0.3013  0.0417
16950W        W32759  17.760  15.451   3.922 -0.2334 -0.2058  0.2873
16951W        W32760   2.598   1.061   2.205 -0.0850 -0.0341 -0.1216
16952W        W32761  17.434  15.244  15.825  0.0152 -0.3251 -0.0879
16953W        W32762  15.587   5.429   0.944 -0.0833  0.2037  0.0114
16954W        W32763  14.087  15.478   2.629 -0.0265  0.0135  0.0860
16955W        W32764  12.944   0.803   0.329 -0.1988  0.1012 -0.1077
16956W        W32765  15.540  17.066  10.974  0.3551 -0.1992 -0.2148
16957W        W32766   6.656   0.625   2.184  0.0607  0.0828 -0.1170
16958W        W32767   4.091  12.493  13.854  0.0215 -0.1883  0.0569
16959W        W32768   9.086  11.592   5.589 -0.0500  0.0171 -0.0969
16960W        W32769   6.040  18.122   4.935 -0.3210 -0.2843 -0.2858
16961W        W32770   4.117   0.758  10.830  0.2109  0.2312  0.0972
16962W        W32771  13.033  15.966   1.964 -0.1521 -0.1836  0.2963
16963W        W32772  15.486  12.486  13.098 -0.2070  0.0685 -0.1702
16964W        W32773   5.376   0.062  11.225  0.2309  0.0806  0.1332
16965W        W32774   5.711  16.641   0.073  0.1792  0.3307 -0.0354
16966W        W32775   8.184   3.584  15.537 -0.1084  0.0464  0.2829
16967W        W32776  15.011   3.814  15.710 -0.0249  0.3263 -0.0357
16968W        W32777   4.394  14.111  13.335  0.0660 -0.4420 -0.1222
16969W        W32778   6.397   0.655   1.226  0.1419  0.0234  0.1764
16970W        W32779  17.132  10.598  12.395  0.1152 -0.1051 -0.0532
16971W        W32780   2.501  17.417   4.632 -0.1175  0.2348 -0.4081
16972W        W32781   7.567  10.013  12.529  0.0906  0.0705  0.1238
16973W        W32782   0.745   0.090  13.872 -0.1560  0.1282 -0.1308
16974W        W32783   2.295  14.850  14.691 -0.1348  0.3171  0.2054
16975W        W32784   6.309  15.953  15.919  0.1296 -0.1079  0.0134
16976W        W32785  14.449   0.625   4.633  0.0035  0.1949  0.0878
16977W        W32786  13.745  16.095   1.098 -0.0404  0.1889 -0.0600
16978W        W32787  14.873  12.734  11.827 -0.0871  0.1050 -0.2140
16979W        W32788   1.214  12.691   0.124  0.0489 -0.1765  0.1249
16980W        W32789  14.826   1.656   3.999  0.0477  0.1728 -0.0393
16981W        W32790  10.574   2.393   4.331  0.4659  0.0991  0.2427
16982W        W32791   2.897  13.851  15.840 -0.0219  0.0067  0.2251
16983W        W32792  15.128   2.434   1.622 -0.1765  0.1422 -0.2509
16984W        W32793   5.444  17.824  15.573  0.0805  0.1101  0.0718
16985W        W32794   7.475  14.138   1.346 -0.1321 -0.0898 -0.0176
16986W        W32795   5.687   4.877  15.866  0.2751 -0.1361 -0.1576
16987W        W32796   1.137   4.106   2.600  0.5376  0.0446 -0.0307
16988W        W32797   2.329   1.074   1.788  0.0316 -0.0688  0.0151
16989W        W32798   6.267   7.308   6.407 -0.0535 -0.2874 -0.0292
16990W        W32799  11.997   8.055   4.299 -0.1150 -0.0990  0.0411
16991W        W32800  10.548  10.701   1.605 -0.1373  0.2036 -0.1320
16992W        W32801   9.453   9.321  15.411  0.2472  0.0142 -0.0086
16993W        W32802   2.703  15.451   4.732 -0.1001  0.1207 -0.1032
16994W        W32803   8.376   0.193  14.037  0.0780  0.2246  0.0302
16995W        W32804   0.436   4.190   5.384 -0.2427 -0.0213 -0.0301
16996W        W32805   6.048   1.831   2.862 -0.4041  0.1032 -0.0334
16997W        W32806  15.169   7.469  11.241 -0.1049 -0.1506 -0.2716
16998W        W32807   4.472   8.020  14.193 -0.4449 -0.1498 -0.3250
16999W        W32808   2.102  10.402   2.290  0.3893 -0.0764  0.0400
17000W        W32809   8.909   6.400   2.730  0.0867 -0.0965 -0.0868
17001W        W32810  12.486  13.787   5.503  0.1254  0.1362 -0.1078
17002W        W32811   1.286  17.376  12.599  0.0091  0.1923  0.0724
17003W        W32812  14.951   6.325  12.692 -0.0308  0.2969 -0.0949
17004W        W32813   6.316  16.033  14.180  0.2280 -0.0602  0.0673
17005W        W32814  17.911  13.995   1.746 -0.2569 -0.0152  0.0524
17006W        W32815   2.192   7.044   3.338 -0.1861 -0.1032  0.0772
17007W        W32816  11.337  12.237  12.904  0.2342  0.2436  0.4285
17008W        W32817   3.678   0.408   5.775  0.2748  0.1092  0.1431
17009W        W32818  15.750  10.822   5.041 -0.0208 -0.1895 -0.2083
17010W        W32819   2.187  10.003   4.259 -0.2939 -0.0783 -0.2144
17011W        W32820  11.376  17.660  15.936  0.1008 -0.1888  0.0914
17012W        W32821   9.242   7.012   1.013  0.2093  0.5013 -0.1000
17013W        W32822  14.355  15.488  12.064  0.0915  0.3429  0.2571
17014W        W32823   4.859  12.829   1.244 -0.2031 -0.2097  0.1601
17015W        W32824  14.059   7.169   2.081  0.2132  0.0756 -0.0374
17016W        W32825  17.423   0.347  11.166 -0.2688  0.1752  0.0105
17017W        W32826   4.961   6.890   3.488  0.2471 -0.1087  0.3247
17018W        W32827   9.884  10.608   1.026  0.0908 -0.1297  0.4650
17019W        W32828   7.774   2.672  11.973  0.2526  0.1638 -0.1220
17020W        W32829  13.362  16.510  11.601 -0.0184  0.1982 -0.0485
17021W        W32830   1.249  16.501   2.797  0.1061  0.1574  0.2929
17022W        W32831  14.212  15.007  13.163  0.1587  0.1139 -0.1009
17023W        W32832   8.581  14.096   3.628  0.3303 -0.0030 -0.3121
17024W        W32833  14.386  15.543   1.045 -0.0660 -0.1888 -0.2343
17025W        W32834   6.300   3.415   4.424 -0.1410  0.3388 -0.3187
17026W        W32835   7.302   6.347   5.609 -0.0244  0.1135 -0.0866
17027W        W32836   0.359   6.198  13.752 -0.1467  0.0316  0.1055
17028W        W32837  17.802  15.338  12.417  0.1969  0.0633 -0.2239
17029W        W32838  17.713  13.263  13.038 -0.3400  0.1277 -0.2195
17030W        W32839   4.895   8.429  11.496  0.1578 -0.0109 -0.1734
17031W        W32840   4.163   2.620  15.964 -0.0916 -0.0306 -0.0087
17032W        W32841   1.055  15.590  12.570 -0.1513  0.1121 -0.0822
17033W        W32842  14.423   1.813   2.615  0.0158  0.0918  0.2461
17034W        W32843   8.403   9.185   1.464 -0.0254 -0.1623  0.0024
17035W        W32844  12.977  12.581   2.068 -0.1271 -0.1743 -0.0568
17036W        W32845   8.891   3.892   4.370 -0.0413 -0.2277 -0.2765
17037W        W32846   1.938   0.402   5.196  0.0348  0.1592  0.1894
17038W        W32847  15.191   9.558   0.377 -0.0377  0.2544  0.0892
17039W        W32848   3.100  12.248   2.832  0.1954  0.3734 -0.3051
17040W        W32849  12.291  12.052  11.033 -0.1135 -0.3280 -0.0102
17041W        W32850   1.063  14.222   2.459 -0.1873  0.1573  0.0248
17042W        W32851   8.651   1.222  13.650 -0.1521 -0.0688 -0.4154
17043W        W32852  13.507  11.072  11.223 -0.5098 -0.1665  0.1244
17044W        W32853   7.166  13.869  15.830  0.3130  0.3380 -0.0481
17045W        W32854   4.322   7.344  15.297  0.1420  0.0256 -0.1971
17046W        W32855   8.021  11.434   0.155  0.1675  0.1440  0.0466
17047W        W32856   4.723  13.033   3.250  0.3755 -0.1235  0.0310
17048W        W32857   9.582  16.648  11.822 -0.1638  0.2355 -0.1008
17049W        W32858   6.391   6.811   0.432 -0.0398  0.0002  0.3452
17050W        W32859   7.183  10.926   5.121 -0.1288 -0.0383  0.1606
17051W        W32860  10.043   1.405   0.352 -0.0046  0.0974  0.1626
17052W        W32861  10.291   0.790  14.718  0.1105  0.1963 -0.1305
17053W        W32862   5.120  14.729  15.296  0.0596 -0.3965 -0.0329
17054W        W32863   0.974  10.875   0.164 -0.2944 -0.2835  0.0056
17055W        W32864  10.517  14.724  15.566 -0.0352  0.2196 -0.1685
17056W        W32865   2.388   8.350  11.890 -0.0310 -0.3519 -0.3067
17057W        W32866   0.154   1.573   4.591  0.3119  0.0416  0.4520
17058W        W32867   7.600  12.487   2.765 -0.1547  0.2773  0.1084
17059W        W32868   9.638   6.041   2.928  0.2154 -0.2826  0.2290
17060W        W32869   1.240   2.377   2.088  0.1781  0.1437 -0.0693
17061W        W32870  13.798  15.022   0.426  0.0375  0.1771  0.1220
17062W        W32871   5.356   4.007  12.180  0.0517 -0.0312  0.0703
17063W        W32872  10.953   5.039  12.820 -0.0942 -0.0702 -0.0835
17064W        W32873  18.077   5.832   0.779 -0.2712  0.3119 -0.3350
17065W        W32874   8.501  17.504   3.933 -0.4374  0.0574 -0.0750
17066W        W32875   3.726   4.828   0.407 -0.1928 -0.2923  0.0298
17067W        W32876  16.792   1.609  13.900 -0.0089 -0.0928 -0.1405
17068W        W32877  11.401  13.755   3.964  0.3639 -0.0292  0.3255
17069W        W32878   4.408  13.123  12.398 -0.0278 -0.1324  0.0915
17070W        W32879   5.011   7.350  13.533  0.0219 -0.1137 -0.0767
17071W        W32880  14.628  17.472  12.688  0.0738 -0.1247  0.3307
17072W        W32881   3.140   6.216  11.836 -0.2289 -0.0626 -0.0574
17073W        W32882   6.525  16.282   3.173  0.1812 -0.1571 -0.1667
17074W        W32883   1.570  15.337   1.745  0.1022 -0.1678  0.0385
17075W        W32884  18.146   5.751   5.902  0.1568  0.3472 -0.0713
17076W        W32885  17.558   0.946  14.485 -0.3617 -0.2394 -0.1896
17077W        W32886  17.729  11.327  15.831  0.2221  0.2261  0.1870
17078W        W32887  16.079  12.262  12.319  0.0710 -0.0248 -0.0018
17079W        W32888  10.455   4.239   2.861 -0.0293 -0.0468 -0.1189
17080W        W32889  13.073   1.510  13.133  0.1935  0.1944  0.1602
17081W        W32890   6.232  17.334  11.630 -0.3345  0.2207 -0.1360
17082W        W32891   1.846   7.733   0.450 -0.0570 -0.1671 -0.0131
17083W        W32892  10.738   3.419   1.392 -0.1920  0.2958 -0.3245
17084W        W32893   9.401   8.190  13.481 -0.1306 -0.0012  0.2956
17085W        W32894   7.275  16.284   3.552  0.3729  0.2769 -0.1861
17086W        W32895   0.070  12.583  12.456  0.1260 -0.1553  0.1221
17087W        W32896  14.973   8.070  15.810 -0.0758  0.1709 -0.1441
17088W        W32897   1.296  16.967  13.551  0.0854  0.0603  0.1872
17089W        W32898   5.549   1.927  15.873  0.2562 -0.0665 -0.2848
17090W        W32899   0.655   5.754   0.210 -0.1990 -0.1843  0.5139
17091W        W32900   5.004   7.238  14.621  0.0027 -0.1389 -0.0252
17092W        W32901   1.054  15.340   5.343 -0.2608  0.0340  0.1864
17093W        W32902  11.731  16.963  15.346 -0.0224 -0.2542 -0.1495
17094W        W32903  16.326  16.264   1.762 -0.0591 -0.1232 -0.0207
17095W        W32904   3.755  11.940  12.935 -0.0594  0.1975 -0.0993
17096W        W32905  12.544   1.249   5.434 -0.0405 -0.1218  0.1185
17097W        W32906   3.309   6.591   1.502  0.3006 -0.1297 -0.0383
17098W        W32907  12.787   4.151   1.944  0.0593 -0.0671  0.2158
17099W        W32908  16.734   3.015  15.229  0.2254  0.3624 -0.3511
17100W        W32909  16.000   1.933   5.690  0.3646  0.2614  0.0055
17101W        W32910  12.509  15.710   4.633 -0.1030  0.1789  0.0641
17102W        W32911  15.677   8.360   1.529 -0.3353  0.2110  0.2809
17103W        W32912   2.740   3.532   4.352 -0.2755  0.3752  0.0899
17104W        W32913  12.705   2.655   4.893 -0.2322  0.2292  0.0999
17105W        W32914  15.916   0.279   0.246  0.1469 -0.3747 -0.1377
17106W        W32915  10.564   6.240   5.835 -0.1642 -0.0620  0.0454
17107W        W32916  16.465   9.958   1.228 -0.1077 -0.1065  0.0127
17108W        W32917  11.246  12.413   3.364  0.0402  0.0395 -0.1074
17109W        W32918  13.759  10.513  13.833  0.4845 -0.4473 -0.0125
17110W        W32919  14.229   2.449  14.014 -0.0858  0.1340 -0.2237
17111W        W32920  15.594  12.501  12.236 -0.0398 -0.1139 -0.1451
17112W        W32921  17.655  13.118   2.364  0.1519 -0.0088 -0.2276
17113W        W32922  12.577   3.891   1.582  0.0306 -0.0220  0.0254
17114W        W32923  14.761  10.063   3.501  0.2347 -0.0853  0.1098
17115W        W32924  10.259   4.499  14.162 -0.0039 -0.2730  0.1020
17116W        W32925   8.959   4.363   3.883 -0.0632  0.1896 -0.0890
17117W        W32926  12.831  11.561   4.120 -0.0250 -0.2414 -0.0701
17118W        W32927   8.826   9.841   5.442  0.0733  0.0552 -0.0564
17119W        W32928   9.310  11.349  16.235 -0.1660  0.2510 -0.0530
17120W        W32929  10.313  17.361   1.126 -0.1786  0.1741  0.1265
17121W        W32930   6.199   1.644   5.126  0.2066 -0.0595  0.0087
17122W        W32931  11.232  12.314   2.863  0.0459  0.1314 -0.1114
17123W        W32932   6.559  18.101   3.385  0.1291 -0.0281 -0.0692
17124W        W32933  10.668  12.678  14.543 -0.0918  0.1778  0.2423
17125W        W32934   2.664  11.441  14.679 -0.1899 -0.0288 -0.0446
17126W        W32935   8.675  12.346  11.915 -0.1684  0.1542 -0.1812
17127W        W32936  13.477  13.456   2.900  0.3988  0.1653 -0.1569
17128W        W32937   1.077   7.806  14.371 -0.0316 -0.2107  0.1704
17129W        W32938   7.571  11.224  15.743 -0.3524 -0.2579 -0.1189
17130W        W32939   2.224  17.681   1.894 -0.0197 -0.1232 -0.3055
17131W        W32940  17.481   9.041   1.690  0.1316  0.1202 -0.0763
17132W        W32941   5.789   5.956  12.321 -0.2689 -0.2388 -0.4074
17133W        W32942  11.221   2.095   1.988 -0.0777  0.2567 -0.2077
17134W        W32943  17.905  10.213   4.465 -0.1633  0.0703 -0.1928
17135W        W32944   5.684   7.354  15.883 -0.3668 -0.0924  0.1188
17136W        W32945   8.272  10.516   2.718  0.0179  0.1216 -0.0150
17137W        W32946  13.425   6.719  13.347 -0.2574  0.1389 -0.0100
17138W        W32947  11.964   7.479   1.860  0.3476 -0.2160 -0.0814
17139W        W32948   0.037   6.775  13.484 -0.0738 -0.2023  0.1015
17140W        W32949   9.699  10.044  11.405 -0.1128 -0.2067  0.0402
17141W        W32950  17.408  16.089  16.133 -0.1885 -0.0999 -0.0415
17142W        W32951   0.979   2.063  16.199  0.3783  0.0648 -0.0379
17143W        W32952  11.546   5.284   0.148 -0.0553 -0.0273  0.0384
17144W        W32953   0.996  15.463   3.735 -0.0455  0.0019  0.1837
17145W        W32954   0.327   9.597   2.901 -0.1734  0.0746 -0.2623
17146W        W32955  10.668   8.194  13.550 -0.2981 -0.1977  0.3515
17147W        W32956  17.980   5.018  14.417 -0.0288  0.1006  0.1227
17148W        W32957   5.753   0.690   5.855 -0.0593  0.0549  0.3030
17149W        W32958   0.647   6.491  14.758  0.3494  0.2389 -0.1895
17150W        W32959  10.372   4.880  13.012  0.2733  0.2312 -0.1177
17151W        W32960   5.528   6.769  14.445  0.0886 -0.0663 -0.4043
17152W        W32961   5.767   1.527  12.881 -0.1252  0.1465 -0.1488
17153W        W32962  15.785  11.402  12.747 -0.1785 -0.1992 -0.3884
17154W        W32963   1.022  15.863  15.840  0.1678  0.1319 -0.0614
17155W        W32964   9.851  16.050  16.193 -0.0607  0.1731 -0.1153
17156W        W32965  10.746  15.768   0.531 -0.0260 -0.1953  0.0068
17157W        W32966   6.965   3.054   3.939 -0.1195  0.2064  0.2489
17158W        W32967   2.835  13.694   0.903 -0.1211  0.1403  0.2350
17159W        W32968  12.088   1.759   2.629  0.1242 -0.0004 -0.2082
17160W        W32969   6.449  17.164  14.131 -0.2915 -0.2704  0.1762
17161W        W32970  13.467   5.582   3.505 -0.0684 -0.2160  0.0274
17162W        W32971   7.776  17.279  15.214  0.0316  0.0290  0.1127
17163W        W32972  16.079   1.914   3.223 -0.3281 -0.0109  0.1583
17164W        W32973   5.488   6.525   1.304  0.2177  0.0077 -0.1820
17165W        W32974  12.133  18.155  10.385  0.1823 -0.1184  0.0696
17166W        W32975   9.676   3.776   4.389  0.4215 -0.0415 -0.3143
17167W        W32976   4.575  15.741   2.771  0.1036  0.0009  0.0120
17168W        W32977  15.302   1.426  14.122 -0.0302  0.1939 -0.2070
17169W        W32978   9.239  13.443   5.157 -0.0538  0.1730  0.0603
17170W        W32979   4.623  16.305   2.400 -0.0812  0.1320  0.1729
17171W        W32980  11.567   7.081   2.715  0.1283 -0.0355  0.1261
17172W        W32981   0.357   1.847   1.212  0.0078 -0.1895 -0.0789
17173W        W32982   3.604  12.557   1.201  0.1059  0.0312  0.1985
17174W        W32983  11.151  18.119   4.786 -0.4011  0.0558 -0.1429
17175W        W32984  17.540  13.274   5.777  0.0849 -0.0879  0.1147
17176W        W32985   7.544  15.063  15.142 -0.1355  0.4189  0.1277
17177W        W32986  10.168   2.585  13.402 -0.3027 -0.2339 -0.2004
17178W        W32987   4.051   9.605   4.702  0.1447  0.4555 -0.3165
17179W        W32988  16.765   7.303  14.576 -0.2003 -0.1313 -0.0065
17180W        W32989   6.679   6.439   2.875  0.0493 -0.1206 -0.0572
17181W        W32990  15.575   7.428  13.566 -0.2630  0.2530 -0.1798
17182W        W32991   6.813   6.062  15.444  0.0155 -0.0077  0.0225
17183W        W32992   5.729  16.748  14.362  0.0483  0.1513  0.0176
17184W        W32993   3.755   0.564   3.321  0.2392  0.1557  0.2050
17185W        W32994  10.369  12.686   5.491  0.1465 -0.2652  0.5080
17186W        W32995  13.628  13.846   3.130  0.1295 -0.2822 -0.2022
17187W        W32996   2.682  11.279  11.929 -0.1617 -0.1932  0.0026
17188W        W32997   1.328  10.010   4.042  0.0310 -0.0970  0.2655
17189W        W32998   3.713  13.514   2.045 -0.1510  0.1384 -0.2216
17190W        W32999   2.444  16.432  13.059  0.0645  0.0649  0.0874
17191W        W33000  17.555   1.033   4.042  0.2933 -0.1866 -0.0994
17192W        W33001   6.394   7.183  14.838  0.0100 -0.0525 -0.0082
17193W        W33002   5.065  13.204   4.572  0.0260  0.1941  0.1951
17194W        W33003  11.391  12.875   4.593 -0.0308 -0.0147 -0.0729
17195W        W33004   5.010  15.565  15.763 -0.0512 -0.0299 -0.2180
17196W        W33005  17.587   9.939  16.261 -0.0312 -0.3701 -0.0509
17197W        W33006  17.877   7.737  13.677 -0.0066 -0.1412  0.0742
17198W        W33007  11.825   3.994  15.732 -0.1250 -0.2389 -0.3472
17199W        W33008   3.801   2.794   3.911 -0.1290 -0.0208 -0.0660
17200W        W33009  17.116  17.894  11.875 -0.1324 -0.1441  0.3152
17201W        W33010  12.800   0.758  13.643 -0.0977 -0.2161 -0.0452
17202W        W33011   9.813  16.138   1.531 -0.3286 -0.0031 -0.1809
17203W        W33012   8.576  15.814   4.222  0.4180  0.0713  0.1237
17204W        W33013   9.022   1.015  14.902 -0.0596  0.3822 -0.2477
17205W        W33014   8.670   4.405  14.354 -0.2534  0.1547 -0.1652
17206W        W33015   5.248   1.635   4.352 -0.3636 -0.3763 -0.1279
17207W        W33016   1.519  13.859  12.965 -0.0034 -0.5390  0.2445
17208W        W33017  11.739  11.737   5.790 -0.0238  0.0607 -0.0066
17209W        W33018  15.371   5.914  11.461  0.0580 -0.2964 -0.0167
17210W        W33019   3.278  10.641   0.340 -0.3653  0.1784 -0.2149
17211W        W33020   9.105   9.784  14.423  0.1724  0.0097  0.0780
17212W        W33021  11.738  13.067   0.105 -0.0377  0.0594 -0.0603
17213W        W33022   3.580   4.821  13.415 -0.1549  0.3137 -0.1778
17214W        W33023  15.218   5.686  15.323  0.0839 -0.1722  0.1755
17215W        W33024  16.894   2.010  13.597  0.3658 -0.1015  0.1565
17216W        W33025   2.274   6.266   2.111 -0.2353 -0.0831  0.1942
17217W        W33026  14.323   7.706  13.735  0.0255 -0.0389  0.1259
17218W        W33027   6.992   5.632  12.704 -0.0004 -0.1405 -0.1807
17219W        W33028   4.192   8.089   2.619  0.0887  0.2535  0.2410
17220W        W33029   7.126  11.623   3.116 -0.2599 -0.1486 -0.0525
17221W        W33030  13.188   4.712   1.508 -0.0083  0.2248  0.0955
17222W        W33031  13.278  17.161   4.807 -0.2412 -0.0390 -0.3622
17223W        W33032   9.815  11.743   4.022  0.1361  0.0143 -0.0943
17224W        W33033   7.161   5.434  15.130  0.0221  0.0442  0.2065
17225W        W33034  13.698   7.269   1.371  0.0605  0.4443 -0.0354
17226W        W33035   0.847   2.914  15.701  0.0314 -0.0516  0.0487
17227W        W33036   6.523  15.743   3.242  0.0226  0.0268  0.2710
17228W        W33037   6.844   8.458   4.149  0.1266  0.0097  0.2605
17229W        W33038   2.040   0.283  14.824  0.3579  0.0032 -0.1783
17230W        W33039   6.010   4.454  11.915 -0.0992 -0.1769 -0.1402
17231W        W33040  10.312  10.221   1.385 -0.3949  0.1111  0.1014
17232W        W33041   1.550   6.409   4.778 -0.0458 -0.4029  0.3104
17233W        W33042   9.675   6.014   1.678 -0.0974 -0.0841 -0.1210
17234W        W33043  14.286  17.976  10.480 -0.2192  0.1816  0.0715
17235W        W33044   0.750   2.382   1.173  0.1890  0.0316  0.0441
17236W        W33045  10.252   7.116   3.373 -0.2895  0.0348  0.0947
17237W        W33046  11.195   7.280   0.777 -0.2472  0.1889  0.0984
17238W        W33047  16.263   5.300  12.663  0.1088 -0.0922 -0.0539
17239W        W33048   6.727  13.405   5.119 -0.4844 -0.5472  0.1454
17240W        W33049  13.663   6.611  11.520  0.0787  0.1984 -0.1397
17241W        W33050   8.788  14.473  12.274  0.0461  0.3618 -0.1352
17242W        W33051  18.025  12.247   3.624  0.0809  0.2421 -0.1206
17243W        W33052   7.988  17.979   0.375  0.1616 -0.1938  0.1097
17244W        W33053  11.973   4.777  10.562  0.2683  0.4046  0.1258
17245W        W33054   6.813  11.887   2.633  0.0254 -0.2228 -0.2205
17246W        W33055  14.309  15.928   3.301  0.1528 -0.0002  0.0637
17247W        W33056  13.041   2.637  11.714  0.1353  0.0422  0.3756
17248W        W33057  15.020  13.613  11.543  0.0353  0.2010 -0.3022
17249W        W33058   7.048  17.781   2.629  0.0678 -0.1321 -0.2382
17250W        W33059  14.377   4.960   5.072  0.0457  0.0123 -0.1049
17251W        W33060  10.492   0.925   1.687 -0.0128  0.0071 -0.0123
17252W        W33061  11.526  17.813   1.452  0.1112  0.0701  0.2136
17253W        W33062  14.475   8.880   3.524 -0.1782 -0.4048 -0.1219
17254W        W33063   0.081  12.943   4.135  0.0634 -0.4682 -0.0042
17255W        W33064  13.670  13.055   3.098  0.4006  0.0348  0.1861
17256W        W33065   5.990   4.142   4.015  0.0171 -0.0153 -0.0239
17257W        W33066   8.985   4.203   1.727  0.4419 -0.2094 -0.1598
17258W        W33067   2.538   0.580   2.041 -0.1597 -0.4030  0.4751
17259W        W33068   0.698  15.188   1.521 -0.0123 -0.1170  0.1844
17260W        W33069   8.934  16.745  12.734  0.1101  0.1778  0.0722
17261W        W33070  10.333   6.901   4.715  0.1881 -0.3009  0.1562
17262W        W33071  11.745  10.342  15.197 -0.1652  0.1108 -0.2153
17263W        W33072   5.859  10.943  15.754 -0.1916  0.0510 -0.1484
17264W        W33073   4.473  14.973   2.199  0.0774 -0.4391  0.1184
17265W        W33074   5.200  15.040   2.477  0.0741 -0.2142 -0.1771
17266W        W33075   8.263   6.983   0.730 -0.5591  0.4197  0.0023
17267W        W33076  17.116  15.564  14.776  0.0807 -0.2381 -0.0384
17268W        W33077   8.848   5.697   1.355 -0.0592  0.0280  0.1607
17269W        W33078  16.032   8.080   6.031  0.0262 -0.1370  0.4112
17270W        W33079  13.747  15.879  15.650 -0.4630  0.0307 -0.1144
17271W        W33080   9.090  16.587  15.236  0.3602  0.2122  0.1794
17272W        W33081  11.610   6.175   4.717 -0.3822  0.0454  0.0784
17273W        W33082   3.831  13.400   1.260 -0.2242  0.3425  0.0897
17274W        W33083   8.873   5.341   0.120 -0.0707  0.0425 -0.3079
17275W        W33084   8.674  13.399   4.099 -0.0282  0.1062  0.0641
17276W        W33085   5.202  14.619  15.848  0.0289 -0.7421 -0.0629
17277W        W33086  14.672  17.320   1.080 -0.2377 -0.0878  0.0497
17278W        W33087   9.265  16.130  16.059 -0.2416  0.0037  0.3068
17279W        W33088  15.728  13.535   1.852  0.2265  0.3324  0.1484
17280W        W33089   3.102  17.239   2.094  0.2755  0.1641  0.1211
17281W        W33090  14.215   0.311   3.788 -0.3376  0.2469  0.1519
17282W        W33091  13.161   3.893  11.561  0.1184 -0.2254  0.0131
17283W        W33092  16.972  11.903   3.113 -0.0606  0.1420  0.1334
17284W        W33093  11.497   4.849  15.180 -0.1679 -0.0095  0.1310
17285W        W33094   0.610   3.472  12.353  0.0840  0.2492  0.1027
17286W        W33095   5.875  16.793   5.285 -0.2410 -0.0417 -0.1319
17287W        W33096   1.926   7.406  11.863  0.1279  0.1946 -0.4489
17288W        W33097  17.508   1.312  16.166 -0.0022  0.0348  0.3914
17289W        W33098   2.649   9.361  12.823  0.1089 -0.0556  0.1039
17290W        W33099   0.386  16.462  12.228 -0.0145  0.3630  0.3893
17291W        W33100  10.520  10.343   4.612 -0.1381 -0.2754  0.1145
17292W        W33101  15.251   5.481  12.406  0.0827 -0.0561  0.1018
17293W        W33102   9.781   3.151  12.729  0.0027 -0.3342  0.0265
17294W        W33103  13.948  15.748   4.555  0.0324 -0.0445 -0.1475
17295W        W33104  12.894  11.599  13.551 -0.3164 -0.1434  0.1137
17296W        W33105  10.465   6.109   4.400  0.1459  0.1142  0.0242
17297W        W33106  11.748   3.379   1.344  0.0847  0.2846  0.0186
17298W        W33107   7.897   7.727   3.931 -0.2206 -0.0497 -0.0119
17299W        W33108  10.467   1.355   0.965  0.1599  0.1032  0.1263
17300W        W33109   3.485  18.099   2.396 -0.0478  0.2262 -0.2529
17301W        W33110  10.714  12.119   2.701 -0.1511  0.1077  0.0455
17302W        W33111   7.369   4.664   0.024 -0.3910 -0.3431 -0.1146
17303W        W33112  10.151   5.746   4.229 -0.0056 -0.0105 -0.0326
17304W        W33113   1.865   7.512   3.435  0.1277  0.0226  0.2391
17305W        W33114  10.140  15.104   0.701  0.2308 -0.0297  0.2532
17306W        W33115  12.017  14.092   5.593  0.1697  0.0584 -0.2229
17307W        W33116  11.633   0.423  11.459 -0.1526  0.2353  0.2999
17308W        W33117   3.716  11.236  11.936 -0.0917  0.0835 -0.2309
17309W        W33118   0.305  16.590   5.478  0.0702 -0.0550 -0.1363
17310W        W33119  14.080   5.298   3.049  0.1283 -0.3421  0.0940
17311W        W33120   6.900   2.718  10.827  0.2170 -0.2118 -0.0478
17312W        W33121   1.272  12.895   0.689  0.1385  0.1697  0.2418
17313W        W33122  15.977   2.846  11.322  0.1410 -0.3335  0.0973
17314W        W33123   1.833  11.450   2.635 -0.1775 -0.0616 -0.0677
17315W        W33124   8.462   4.585  13.475  0.3529 -0.0238 -0.0795
17316W        W33125   4.035   3.459   5.197  0.0327 -0.2687  0.2270
17317W        W33126   6.830   7.957   2.180 -0.4119 -0.0911 -0.1187
17318W        W33127   7.217  16.960   5.903  0.0241  0.1640  0.0736
17319W        W33128  12.740  15.852  11.980 -0.1197  0.2023  0.3007
17320W        W33129   3.040  15.692   0.706  0.0832  0.0931 -0.1114
17321W        W33130  13.741  15.062  14.817 -0.1534  0.0434  0.0716
17322W        W33131   0.376   2.653  16.051 -0.3620  0.0101  0.0926
17323W        W33132   5.777   6.046   0.699 -0.2006  0.1495 -0.1844
17324W        W33133   6.427  13.411   1.726 -0.0389 -0.2141 -0.1311
17325W        W33134  16.349   6.882  13.649  0.0175  0.3722  0.0202
17326W        W33135   3.294   6.689  13.126 -0.2841 -0.1214  0.0283
17327W        W33136   7.616   8.610  12.554  0.0030  0.1280  0.2216
17328W        W33137  10.587  14.019   1.586 -0.1164  0.1735  0.2062
17329W        W33138  11.587   0.814  11.751  0.0934 -0.1287  0.0605
17330W        W33139  15.581   7.697   3.111  0.0115 -0.0560 -0.0386
17331W        W33140   5.458   0.040   2.936  0.1400 -0.0809  0.2105
17332W        W33141   8.456  13.592   2.388  0.1434  0.0053 -0.1490
17333W        W33142   5.278   2.079   0.825  0.0231 -0.0759 -0.3255
17334W        W33143  16.340   5.137  13.116 -0.2122  0.1420 -0.1816
17335W        W33144  15.985   2.098  13.230 -0.4159  0.3044  0.0463
17336W        W33145   8.809   8.921  16.082 -0.2307 -0.1197 -0.0375
17337W        W33146  17.594   4.413   2.770  0.1624 -0.4485 -0.0782
17338W        W33147   0.718   6.775   0.070  0.1066  0.1311 -0.2681
17339W        W33148   1.712  14.752   0.409 -0.0410  0.1062  0.1882
17340W        W33149  17.059  12.643   0.798  0.1190  0.2220  0.0589
17341W        W33150   7.162   5.927  13.138  0.0736  0.1456  0.0235
17342W        W33151  18.152   2.357   5.468  0.0148 -0.0239  0.0232
17343W        W33152  14.825   1.593  14.044 -0.1187  0.1912  0.4595
17344W        W33153  15.806   4.079  12.825 -0.1676 -0.1105 -0.3227
17345W        W33154  12.614  17.426   0.809  0.0941  0.2830 -0.0746
17346W        W33155   8.539   5.019   0.333 -0.3596  0.1955 -0.1841
17347W        W33156   3.923   4.860   5.085 -0.0904  0.0260  0.1570
17348W        W33157   3.021  15.670  11.206 -0.0248 -0.0611  0.1863
17349W        W33158  14.407  11.686  15.493 -0.2134  0.0184  0.3265
17350W        W33159  17.830  16.514  15.086 -0.0098  0.0168 -0.1079
17351W        W33160   4.481   8.705   1.834  0.0489  0.0095 -0.2182
17352W        W33161   0.268   4.281   0.750 -0.0960 -0.1691  0.3387
17353W        W33162   3.867  16.336   0.881  0.2674 -0.1145  0.0499
17354W        W33163  10.466  10.199  11.167 -0.1810  0.1316  0.2761
17355W        W33164  17.830  15.849   0.588  0.0073  0.0355  0.0605
17356W        W33165  15.361  17.506   2.423 -0.0234 -0.2277 -0.0757
17357W        W33166   6.036  10.761   0.717 -0.1751 -0.1957 -0.1536
17358W        W33167   5.753  14.411  12.358 -0.1791  0.0448  0.1320
17359W        W33168   8.352  16.768  15.624 -0.1296 -0.1396  0.2702
17360W        W33169  12.412   7.517   2.965  0.0148  0.0367 -0.1514
17361W        W33170   7.226  13.032  12.193 -0.4437  0.2307 -0.0307
17362W        W33171  14.408  12.225   2.450  0.1275  0.0074  0.0266
17363W        W33172  13.674   4.509  12.555 -0.0014 -0.2890 -0.2181
17364W        W33173  10.634   5.388  11.595  0.0198 -0.0050  0.1833
17365W        W33174  12.943   8.731   5.168  0.1516 -0.2424 -0.1004
17366W        W33175   7.627   5.942  11.776  0.2876  0.0558  0.1702
17367W        W33176  10.096   2.562  10.409  0.2617 -0.1015  0.2410
17368W        W33177   7.599  10.480  12.368 -0.2258  0.1447 -0.0540
17369W        W33178   6.071   0.863  11.039 -0.0906  0.2474 -0.6391
17370W        W33179  12.409   4.905  12.794  0.3916 -0.0234  0.2724
17371W        W33180  18.108  15.895   3.750  0.0178  0.2228 -0.3345
17372W        W33181  14.787   3.133  14.046  0.2752  0.1824  0.0994
17373W        W33182   3.067  14.764  11.827 -0.4714 -0.1910  0.0399
17374W        W33183   7.473   7.613   0.046 -0.0179  0.0179  0.0129
17375W        W33184   7.119   5.958  11.867 -0.1222  0.0324 -0.3733
17376W        W33185  17.882   3.395  12.490  0.0181  0.4555 -0.0451
17377W        W33186  12.646  13.008  14.596  0.1197 -0.0946 -0.1099
17378W        W33187  13.485  15.432   2.011  0.0284 -0.0425 -0.0843
17379W        W33188   1.818   9.364  13.448 -0.1102 -0.5667  0.1124
17380W        W33189  15.071  16.368   3.626 -0.1369  0.1591  0.3499
17381W        W33190   4.877   2.886  15.285  0.2080  0.0652 -0.4216
17382W        W33191  12.185  12.274  16.144 -0.0686  0.1558  0.1199
17383W        W33192  12.675   2.407  15.069  0.0067 -0.0583 -0.2469
17384W        W33193  12.262   5.795  15.702 -0.1498  0.1457  0.2110
17385W        W33194  14.310   3.163  16.122 -0.0190 -0.3563  0.3010
17386W        W33195  13.626  11.976   2.226 -0.1942 -0.2364 -0.2258
17387W        W33196  13.871   2.509   4.946 -0.1462 -0.0445 -0.1941
17388W        W33197  15.766   7.842  11.594  0.2293  0.0231 -0.1366
17389W        W33198   7.796   5.159  12.463 -0.1152 -0.2012 -0.1762
17390W        W33199  15.511   4.956   0.554 -0.2773 -0.0545 -0.0439
17391W        W33200  13.322   9.341   1.129 -0.0167  0.1501 -0.0013
17392W        W33201   6.614  15.589   5.644  0.1839  0.0239 -0.0131
17393W        W33202   6.060  11.845   5.382 -0.1790  0.0180 -0.2434
17394W        W33203  13.183   1.407   4.778  0.0568  0.0016  0.2665
17395W        W33204  10.242   2.837  10.787 -0.4140  0.1269 -0.0250
17396W        W33205   4.731  13.145   1.667  0.1338 -0.0627 -0.2070
17397W        W33206   2.862   6.497  11.167  0.0527 -0.1632  0.1608
17398W        W33207   3.441  12.067  16.154  0.0703 -0.0715  0.1609
17399W        W33208   0.663  11.177   3.863 -0.0032  0.0059  0.0004
17400W        W33209   9.878   3.664   2.225  0.1140 -0.0126  0.1399
17401W        W33210  12.722   1.544  12.378 -0.1207 -0.1732 -0.0036
17402W        W33211  14.445   6.105   4.050  0.1964 -0.4297 -0.2841
17403W        W33212   9.659  13.930  11.655 -0.0055 -0.1291  0.0423
17404W        W33213   5.685   7.116  14.063  0.2298 -0.1591 -0.1533
17405W        W33214   4.517  17.940   4.744  0.0483  0.3345  0.0151
17406W        W33215  17.935  14.409  15.888 -0.1473  0.2511  0.1056
17407W        W33216   8.107  10.230  16.184  0.0526  0.0171 -0.1089
17408W        W33217   2.263   3.065  15.557 -0.0934 -0.4908 -0.1132
17409W        W33218  15.216   2.844   1.823 -0.2335 -0.0143 -0.3966
17410W        W33219  13.425  10.385   3.360  0.1167  0.4146 -0.3519
17411W        W33220  15.772   9.573   0.031  0.0550  0.2799  0.1511
17412W        W33221   0.294  15.192  14.244  0.2530 -0.2765 -0.3871
17413W        W33222   2.933   2.625  13.229 -0.1154  0.2067  0.0622
17414W        W33223  11.560   7.284  11.403  0.0671  0.0074  0.2103
17415W        W33224   9.156  11.842   4.077  0.0629  0.2222  0.2307
17416W        W33225   4.739  17.176  15.817  0.1098 -0.0763  0.1242
17417W        W33226  11.660   3.576   3.856  0.0139  0.1997 -0.2558
17418W        W33227   2.257  15.044  14.183 -0.2201 -0.2157 -0.1711
17419W        W33228   5.746   6.239   2.131  0.0927  0.2193 -0.0349
17420W        W33229  11.841  13.694  15.341  0.3471 -0.0945 -0.2893
17421W        W33230   4.940  18.102  13.279 -0.2637 -0.2040 -0.2027
17422W        W33231  14.129   9.469   5.123 -0.1781 -0.1351 -0.1460
17423W        W33232  12.786   3.806  15.907 -0.0092  0.0429 -0.0334
17424W        W33233  13.579  17.450   2.946  0.1318  0.0413 -0.0671
17425W        W33234   6.290   8.552  13.804 -0.2614 -0.0595  0.2983
17426W        W33235  11.006   2.488   3.375 -0.1756 -0.0856  0.3469
17427W        W33236  17.067  11.981   5.060  0.1994 -0.0696  0.4001
17428W        W33237  17.018   5.233  12.272 -0.3814 -0.1346 -0.2901
17429W        W33238   7.501   2.115  14.918 -0.1116  0.2061 -0.0620
17430W        W33239   9.982  17.111  12.854  0.0565  0.3726 -0.1703
17431W        W33240   7.441   3.496  11.130 -0.0520 -0.1109 -0.1395
17432W        W33241   1.262  12.946   5.123  0.0273  0.0360  0.2148
17433W        W33242  10.633   3.444  11.369 -0.1968  0.0734 -0.0454
17434W        W33243   9.980  10.917  11.060 -0.1493 -0.2327  0.0006
17435W        W33244  17.418  16.880  11.176  0.1522  0.2396  0.3304
17436W        W33245  14.959   2.703  11.506  0.3400  0.2137  0.0483
17437W        W33246  13.545  13.674   5.127 -0.0611 -0.1071 -0.3599
17438W        W33247   8.071   8.322   6.087 -0.0777 -0.1247 -0.2790
17439W        W33248  17.580  16.531   5.394 -0.1484  0.1974 -0.1131
17440W        W33249  14.464   5.038   5.543 -0.0092 -0.1990 -0.1572
17441W        W33250   1.795   6.741   1.984  0.0347 -0.0578 -0.0425
17442W        W33251   9.449   1.968  13.570  0.1898 -0.1176 -0.0223
17443W        W33252   4.441   4.689   0.032  0.2007 -0.0465 -0.1022
17444W        W33253  10.665   2.083   4.660  0.0979 -0.0425 -0.1960
17445W        W33254   1.199  10.423  12.858  0.0636 -0.1566 -0.2189
17446W        W33255  15.796  17.458  11.908  0.0776 -0.2078  0.0549
17447W        W33256  15.871   6.998   0.736 -0.1980  0.0657  0.0042
17448W        W33257   8.717  10.316   3.447  0.0188 -0.1639 -0.1359
17449W        W33258   5.137   2.692   4.300 -0.1015  0.1145  0.2207
17450W        W33259   7.500  15.576  14.243 -0.1369 -0.3196  0.1753
17451W        W33260   7.512  10.117  11.543  0.0522  0.1131  0.1700
17452W        W33261  11.620  10.379  14.685  0.0617  0.0138  0.0223
17453W        W33262   3.618   6.355  11.982 -0.0432 -0.1612  0.1529
17454W        W33263  12.560   6.397  12.226  0.0773  0.4257  0.1249
17455W        W33264  13.701  17.548   1.889 -0.1764 -0.1897 -0.1034
17456W        W33265  14.456  17.700   4.733 -0.0972 -0.2887 -0.2322
17457W        W33266  15.031  15.016  12.651 -0.0128 -0.0834 -0.0092
17458W        W33267   2.741   3.469  12.839  0.0020  0.2294 -0.0417
17459W        W33268   3.980   8.093  14.330  0.0795 -0.1747  0.1732
17460W        W33269  14.650   2.264  11.620 -0.0637  0.1198 -0.1300
17461W        W33270   5.271   0.738  13.853  0.0929  0.0859  0.4508
17462W        W33271  13.630   5.309   0.985 -0.4285 -0.3323  0.3373
17463W        W33272   1.843  10.367  15.144  0.1671  0.1119  0.4304
17464W        W33273  16.347   4.006   2.065  0.0229  0.0248  0.2603
17465W        W33274  15.809   5.370  14.214  0.1411 -0.0094  0.1068
17466W        W33275  15.109   4.063  10.492 -0.0302 -0.3363 -0.0030
17467W        W33276  13.265   6.726   2.220 -0.0101 -0.1359  0.1049
17468W        W33277   1.908  11.992   1.996  0.1043 -0.1706 -0.0122
17469W        W33278  12.227   6.507   4.676  0.0791 -0.0271 -0.1334
17470W        W33279  10.884   8.939   2.759  0.1030  0.0475 -0.2432
17471W        W33280  12.008   4.977   3.471  0.3057  0.2403  0.1942
17472W        W33281   5.072   1.606  13.614 -0.1776 -0.1186 -0.5482
17473W        W33282   3.837   0.419   0.640 -0.2447  0.0690 -0.2389
17474W        W33283  17.312   3.737   1.584 -0.1074  0.0366 -0.1192
17475W        W33284  11.695   6.876   1.272  0.0834 -0.1232  0.1801
17476W        W33285   0.733  12.036  12.346  0.0997  0.0311  0.0034
17477W        W33286  12.027   0.775  13.183  0.1427 -0.1084 -0.1692
17478W        W33287  11.171  12.583  15.291 -0.2101 -0.0292 -0.1107
17479W        W33288  10.101   3.176   2.322 -0.1874 -0.3184 -0.1371
17480W        W33289   5.526  15.285   2.817  0.4999  0.3050 -0.2284
17481W        W33290  17.054   5.321  14.424  0.1130 -0.0506  0.0956
17482W        W33291   9.516  14.189   5.645 -0.0397  0.3840  0.1000
17483W        W33292   9.796   9.242  11.794  0.1823 -0.1978  0.2781
17484W        W33293  17.430   4.900  11.590  0.4310 -0.0239 -0.1890
17485W        W33294   1.848  11.329   3.585 -0.1719 -0.0194  0.0253
17486W        W33295   3.581  11.191  15.578  0.0099  0.1375 -0.4078
17487W        W33296  15.324  10.184  15.005  0.0170 -0.0613 -0.1263
17488W        W33297  15.160   2.252  16.305  0.2065  0.0370 -0.1543
17489W        W33298   0.922  14.394  13.133 -0.0092 -0.1617 -0.1551
17490W        W33299   7.842   5.789   1.474 -0.0082  0.3217  0.1760
17491W        W33300  14.009   9.618  16.158  0.0132  0.1874 -0.2545
17492W        W33301   9.325   4.652  12.334  0.1490  0.3078  0.1363
17493W        W33302  11.934   7.907  15.978  0.3488  0.0636  0.0461
17494W        W33303   4.117  10.610   4.887  0.5426  0.1794  0.0719
17495W        W33304  13.022   7.900  15.763  0.1259 -0.3762  0.0192
17496W        W33305  11.220   6.888  16.001 -0.2165  0.3639 -0.0605
17497W        W33306   5.535   0.442  14.848 -0.3408 -0.0342 -0.1565
17498W        W33307  13.998   6.896  16.116  0.0736  0.0496 -0.0785
17499W        W33308   8.377  11.286  10.660 -0.1061  0.0591  0.0732
17500W        W33309   3.794   7.866  12.889 -0.2679  0.2272  0.1709
17501W        W33310   8.078  14.569  12.965  0.2332  0.3514 -0.0364
17502W        W33311  10.521  14.987  13.291 -0.1052  0.0371  0.1620
17503W        W33312   5.869   8.121   0.196  0.3068 -0.2654 -0.0216
17504W        W33313  15.440  13.450  11.976 -0.1006  0.3822  0.0734
17505W        W33314   3.359  12.315  12.180 -0.2097  0.1347  0.0668
17506W        W33315   2.027  14.229   4.687 -0.0521 -0.0041 -0.0475
17507W        W33316  10.370   3.440   1.069 -0.5011  0.0108 -0.0077
17508W        W33317   0.381   0.929  14.916 -0.5906 -0.1036 -0.1595
17509W        W33318  14.312   7.943   2.289  0.1575 -0.0314  0.4620
17510W        W33319   1.159  11.461   5.056  0.0792 -0.0210  0.0982
17511W        W33320  13.667   8.545  15.322  0.0849 -0.1506 -0.2019
17512W        W33321   9.705   5.087  13.458  0.3069 -0.1359 -0.0809
17513W        W33322   9.614   0.646  13.058  0.2067  0.1248 -0.1003
17514W        W33323   1.946  17.130  11.092  0.2204  0.0763 -0.0955
17515W        W33324   9.107  16.342   4.665 -0.1115  0.1298  0.1315
17516W        W33325  14.842   6.436  14.875 -0.0598 -0.3690 -0.1759
17517W        W33326  17.166  14.203  14.867  0.1314 -0.3177 -0.1886
17518W        W33327  10.050   5.263  13.818  0.0088  0.2715 -0.0973
17519W        W33328   6.275   3.021   3.625  0.0297 -0.2083 -0.1024
17520W        W33329  11.612   8.629   3.093  0.2495  0.0721 -0.1256
17521W        W33330   6.050   0.973  15.274 -0.1011  0.1524 -0.3441
17522W        W33331  15.422   8.733  13.745  0.2242  0.0936 -0.3353
17523W        W33332   7.342   5.479  11.735 -0.1308 -0.0661  0.0216
17524W        W33333   2.170   4.295  16.015 -0.0564  0.0406  0.2337
17525W        W33334   6.008   3.068   0.838  0.0329  0.0271  0.0564
17526W        W33335  15.735  12.699   2.472 -0.1778 -0.1828  0.0085
17527W        W33336  14.845   0.026  12.979  0.2037 -0.1065 -0.1721
17528W        W33337   7.108   4.532  11.898 -0.2135  0.1208  0.1865
17529W        W33338  13.348   2.580  15.604 -0.2742  0.0745  0.0479
17530W        W33339  12.660   2.388  13.162  0.3026 -0.0420  0.1773
17531W        W33340   5.471  17.035  12.498  0.1942 -0.2109 -0.3154
17532W        W33341   1.468   4.449  13.223 -0.0455  0.0703  0.1663
17533W        W33342   5.186   0.450   5.283  0.3023 -0.0390  0.0052
17534W        W33343   1.774  13.477  12.004  0.2187 -0.0993 -0.0941
17535W        W33344   3.572   7.761  10.307  0.1074  0.0089 -0.0497
17536W        W33345   4.483   5.026  12.852 -0.1563  0.0507  0.0153
17537W        W33346   8.699   2.711   3.595 -0.0187 -0.2329 -0.0146
17538W        W33347   4.649   4.206   4.283  0.2913 -0.1024 -0.0607
17539W        W33348  16.425   3.821   5.190 -0.1810 -0.0037 -0.0624
17540W        W33349   9.445   7.002  11.618 -0.0688 -0.4945  0.0128
17541W        W33350  14.663  10.106   1.295  0.0954 -0.2659 -0.2029
17542W        W33351   9.609   1.404   4.004 -0.1910 -0.0121  0.1466
17543W        W33352  11.109   4.524  12.905 -0.0086 -0.4406 -0.0411
17544W        W33353   3.060   9.715   5.221  0.0503 -0.1271 -0.1337
17545W        W33354   8.490   2.665  12.400 -0.0106  0.0064 -0.1373
17546W        W33355  16.853   8.374  11.784 -0.0233  0.2321  0.0427
17547W        W33356  13.459   2.351  12.827  0.1902 -0.0261 -0.1700
17548W        W33357   6.365  11.605   2.770  0.1611  0.1810 -0.0580
17549W        W33358   1.136   7.384  14.729 -0.0540  0.1850 -0.1804
17550W        W33359  14.247   5.109   3.925 -0.0329  0.0811 -0.0279
17551W        W33360  16.012   9.541   4.672  0.2792 -0.2845  0.3055
17552W        W33361  12.740   5.793  12.980  0.1055  0.1317 -0.2960
17553W        W33362   5.756   6.646   3.819  0.3164  0.2844 -0.1701
17554W        W33363   0.910   6.288   2.849 -0.0756 -0.2156  0.1866
17555W        W33364  10.288   4.829  13.591 -0.0312 -0.2097 -0.0780
17556W        W33365   0.886   6.434   2.318 -0.1195  0.2028  0.0416
17557W        W33366   9.333   3.601   0.567  0.1145  0.0115 -0.3340
17558W        W33367  15.544  12.304   2.966 -0.0454 -0.1086 -0.0390
17559W        W33368  16.126   5.535   4.325  0.3914  0.3256  0.2121
17560W        W33369  17.297   7.194   0.751  0.1558  0.0838 -0.2707
17561W        W33370  12.935   0.581   1.511 -0.1167 -0.2463  0.3609
17562W        W33371   1.900  13.485   1.654 -0.2374  0.2839 -0.0522
17563W        W33372   1.759   3.315   2.798  0.1855  0.0008  0.0247
17564W        W33373  10.702  12.121  12.123  0.0205  0.3899 -0.1951
17565W        W33374  15.721   3.225  15.690  0.1397 -0.0303 -0.1737
17566W        W33375   0.727   7.212   5.690 -0.0715  0.2510  0.2895
17567W        W33376   0.091   5.434   5.041  0.1387 -0.0154 -0.2526
17568W        W33377  11.091  15.125   0.901  0.1956 -0.1499 -0.0639
17569W        W33378   7.402  15.323   3.399  0.0782  0.1332  0.0621
17570W        W33379   4.611  16.823   2.976 -0.0132 -0.3124  0.2558
17571W        W33380   5.077  15.961   1.733  0.2039 -0.1066 -0.1840
17572W        W33381   8.158  13.119   2.895 -0.1380 -0.2757  0.1352
17573W        W33382   6.982   4.074  11.839  0.0620  0.2331 -0.1791
17574W        W33383  12.092  18.103   2.014  0.2317  0.2350 -0.1859
17575W        W33384  15.200  12.399   1.722 -0.0003  0.2893  0.0810
17576W        W33385   9.460  10.021  13.080 -0.0912  0.0009 -0.0112
17577W        W33386   4.554   6.321  15.818  0.1262  0.2608  0.1738
17578W        W33387  15.543  16.384   3.234 -0.3344  0.0509  0.2340
17579W        W33388  12.296   2.278   1.871 -0.0030 -0.0095 -0.2631
17580W        W33389  11.445   3.295   4.386  0.1453 -0.0774 -0.1454
17581W        W33390   0.570   6.107   3.229  0.1464 -0.1424 -0.1016
17582W        W33391  11.894   3.944   0.506 -0.2126  0.2378 -0.0056
17583W        W33392  17.831   1.544   2.563 -0.0003  0.0297  0.4196
17584W        W33393   2.669   3.980  12.242 -0.2164  0.0233  0.2673
17585W        W33394  11.867  16.467   4.600  0.2301 -0.1726 -0.1288
17586W        W33395  14.503  10.346   3.145  0.0292 -0.0865 -0.2353
17587W        W33396   3.951   7.306   3.919 -0.1906  0.2771 -0.2658
17588W        W33397   4.862  12.862   2.074  0.0513  0.2208 -0.3104
17589W        W33398   7.630  11.372   3.012  0.1978  0.0045 -0.1527
17590W        W33399  14.935   2.938  11.039 -0.1428 -0.0202  0.0173
17591W        W33400  11.319   6.602   5.954 -0.0942 -0.2894  0.1090
17592W        W33401   0.225  11.986  13.317 -0.1188 -0.0261  0.0819
17593W        W33402   4.076  15.781   4.543 -0.0146  0.1403  0.1027
17594W        W33403  16.351   5.920  12.562 -0.0705  0.0332  0.0355
17595W        W33404   9.491  13.908  14.277  0.1761 -0.1207 -0.0950
17596W        W33405  16.070   3.427   4.714 -0.0207 -0.1560 -0.1827
17597W        W33406   6.322   7.591  11.697  0.0218 -0.0448 -0.1478
17598W        W33407  10.034   8.571  10.490  0.2341 -0.1533  0.0995
17599W        W33408   5.141  14.591  13.610  0.0125  0.0018  0.0351
17600W        W33409   9.032   7.626   4.270  0.3011  0.3876  0.0265
17601W        W33410   1.362  12.579   1.044 -0.0933  0.0171 -0.0748
17602W        W33411   3.118  16.091   1.337 -0.0891 -0.0687 -0.1913
17603W        W33412   0.654  15.406  13.345  0.0210 -0.2690 -0.1324
17604W        W33413  14.127   6.408  11.324 -0.1332  0.1299 -0.0589
17605W        W33414   7.570   4.151   4.841 -0.0787  0.1694  0.2384
17606W        W33415  14.393   9.247   0.289  0.0507  0.1851  0.1383
17607W        W33416   3.374   6.034   2.878  0.1920 -0.5168 -0.1557
17608W        W33417  11.590   6.912   0.728 -0.0319  0.0184 -0.1426
17609W        W33418  17.582  11.193   1.588  0.1924 -0.2335 -0.1307
17610W        W33419  17.739   0.144   5.069  0.1963  0.2736 -0.0654
17611W        W33420   5.327   9.632   3.118  0.0873  0.0019 -0.1533
17612W        W33421  17.700  13.653   6.083 -0.3818 -0.1150 -0.2119
17613W        W33422  14.914   4.988  13.143 -0.0016 -0.0658 -0.0784
17614W        W33423   4.538  15.547   1.875 -0.0201 -0.1219 -0.2184
17615W        W33424  13.636   1.921  16.101  0.0739 -0.1280  0.2019
17616W        W33425  17.700   9.761   0.856  0.1301  0.1096  0.2723
17617W        W33426  12.663  10.440  11.975  0.0686  0.0573  0.0667
17618W        W33427  15.030   2.597  15.917  0.0772 -0.0692 -0.2903
17619W        W33428  14.882  11.046   3.668 -0.0291  0.3203 -0.1352
17620W        W33429  13.078   3.395  14.456  0.0715  0.0374 -0.1636
17621W        W33430   1.046  10.070  12.529 -0.1280 -0.1848 -0.1797
17622W        W33431   8.799   1.369  14.609 -0.0302  0.1869 -0.1626
17623W        W33432   9.899   5.099   0.251 -0.0043 -0.0562 -0.1699
17624W        W33433   3.656   7.015  12.950  0.1810 -0.3335 -0.0428
17625W        W33434  17.283  13.840  11.747 -0.2170 -0.0755 -0.0326
17626W        W33435   5.953  10.067   1.406 -0.0889 -0.0957  0.1945
17627W        W33436   6.441   8.732   1.172  0.0498 -0.3092  0.1200
17628W        W33437   0.272   9.634  15.118 -0.0895  0.1714  0.0475
17629W        W33438   1.801   5.578  15.968 -0.0473 -0.0596  0.0312
17630W        W33439   4.842  15.686   5.048  0.3430 -0.0055  0.2410
17631W        W33440  11.886   5.495  14.077 -0.0305  0.0525 -0.0484
17632W        W33441   3.484  14.212   3.324  0.0309 -0.1015 -0.1015
17633W        W33442  17.236   2.744  15.341  0.1200 -0.0895  0.0443
17634W        W33443   1.743  15.564   3.641  0.0094  0.1474  0.2637
17635W        W33444   5.819   5.253   1.276 -0.3079 -0.1027 -0.0497
17636W        W33445  17.016   9.395   5.041 -0.1258  0.5089 -0.1265
17637W        W33446  15.461  10.410   3.551  0.0763 -0.3171 -0.3295
17638W        W33447  18.068  11.399   1.792  0.1272  0.2250  0.0371
17639W        W33448  15.507   6.686   0.496 -0.0556  0.0786  0.0487
17640W        W33449   0.132   7.884  11.460  0.2921  0.4145 -0.0669
17641W        W33450   3.496   0.486  14.806  0.0320  0.0863 -0.4422
17642W        W33451  15.871   7.849   5.116 -0.0816  0.0723  0.0432
17643W        W33452  12.932   0.934   3.666 -0.0777  0.1828 -0.1006
17644W        W33453   3.313  11.479  14.442  0.1958 -0.1882  0.1745
17645W        W33454   1.162   2.168  15.600 -0.4617  0.3379  0.0277
17646W        W33455  16.282  17.722   3.872 -0.0298 -0.1837  0.0819
17647W        W33456   3.230   6.841   5.544 -0.1736  0.1490 -0.3259
17648W        W33457   2.896  16.968  14.988 -0.2275 -0.0224 -0.0130
17649W        W33458   7.562   5.129   3.332  0.4017 -0.1900 -0.2474
17650W        W33459  16.738   1.663  15.798  0.1258  0.3053 -0.0776
17651W        W33460   0.236  17.110  13.521  0.0635 -0.2185 -0.1685
17652W        W33461   3.442   0.912   3.658  0.0403 -0.0706  0.2233
17653W        W33462   5.058   0.858  16.331 -0.2415 -0.1165  0.1775
17654W        W33463  14.377   7.828   0.264 -0.0676  0.0657  0.3467
17655W        W33464   2.739   0.407  15.908 -0.1191 -0.2168 -0.0784
17656W        W33465   1.371   2.158  13.539  0.1746 -0.2236  0.3477
17657W        W33466   9.318  11.828  11.231  0.0292 -0.0731 -0.2892
17658W        W33467   3.848   3.081   2.193  0.0193  0.0695 -0.0554
17659W        W33468  12.251   5.689   2.958 -0.0581 -0.1867 -0.1573
17660W        W33469  15.848  11.230   4.082 -0.1624  0.2320 -0.0796
17661W        W33470  17.476   0.474   3.526  0.0110  0.1313  0.2408
17662W        W33471   2.557  17.500  14.238  0.2465 -0.0538  0.1381
17663W        W33472  15.997   6.934   1.253  0.2017  0.1874 -0.2302
17664W        W33473   6.390   1.373   3.948  0.1311 -0.0277  0.0553
17665W        W33474   9.999   9.365  12.637  0.1079 -0.1193  0.0046
17666W        W33475  14.149   8.957  11.814  0.0285 -0.1035 -0.0633
17667W        W33476   4.150   1.330   0.905  0.4199 -0.1558  0.1285
17668W        W33477  12.912  17.981  13.184 -0.2716 -0.1029 -0.1382
17669W        W33478   3.291  13.429  11.277 -0.1781  0.2120 -0.3145
17670W        W33479   6.390  14.167  13.736 -0.0372  0.3193  0.2498
17671W        W33480  10.627  16.286  15.555 -0.1877 -0.0409 -0.1721
17672W        W33481  17.398  13.341  15.477 -0.1061 -0.0178  0.1164
17673W        W33482   5.052   8.336   5.156  0.0352 -0.1553 -0.2003
17674W        W33483   4.454  11.061  13.273 -0.0307  0.0433  0.0641
17675W        W33484   1.821   3.634   1.924  0.1891  0.0249  0.0537
17676W        W33485  10.752   3.141   5.045 -0.0576 -0.0314 -0.1534
17677W        W33486   2.732   8.317  13.864  0.1938 -0.0409 -0.0028
17678W        W33487   5.100   3.647   4.941  0.1773 -0.4727 -0.0984
17679W        W33488   6.570  16.196  12.724 -0.3178 -0.1401  0.5039
17680W        W33489  15.589   6.348  15.936  0.1246 -0.2568 -0.1331
17681W        W33490   0.773  16.657   4.167  0.1488  0.2242  0.1067
17682W        W33491  11.353  11.040  11.650 -0.4169  0.1425  0.0324
17683W        W33492  12.401   2.921  12.215 -0.0027 -0.1426 -0.1351
17684W        W33493  13.421   6.341   6.034 -0.0310 -0.0389 -0.0084
17685W        W33494   0.611  16.892  13.962  0.0208 -0.0438 -0.1873
17686W        W33495   7.512  13.527   5.550  0.2400 -0.1235 -0.0173
17687W        W33496   7.922  13.304  11.986 -0.1001 -0.1086  0.1448
17688W        W33497  14.484  12.935  12.622 -0.2559 -0.0893 -0.0929
17689W        W33498  17.040  10.868  14.673 -0.1974 -0.3452 -0.2176
17690W        W33499  14.853  15.795  12.508  0.0827  0.0077  0.0296
17691W        W33500   9.576  15.266   6.087 -0.1534  0.1598 -0.2017
17692W        W33501   6.359  10.032   3.704 -0.2402 -0.1013 -0.1350
17693W        W33502   9.357   5.875  12.133  0.0939 -0.2299  0.3270
17694W        W33503   2.504   4.791  12.243  0.4133  0.1236 -0.1325
17695W        W33504   6.230  15.445   3.573 -0.0484  0.6585  0.0786
17696W        W33505  10.388  10.987  11.883 -0.1311  0.2444  0.0256
17697W        W33506   5.213   3.103  10.470 -0.1136  0.2560 -0.1082
17698W        W33507  10.214  12.844  11.184  0.1294 -0.1734  0.2448
17699W        W33508   9.743  11.881  13.295 -0.0733  0.0118 -0.2215
17700W        W33509   4.802   2.945   6.161 -0.1403  0.0118  0.0246
17701W        W33510   4.491  12.522  11.882  0.0356  0.4079  0.2027
17702W        W33511   3.446  13.937  11.579  0.1946  0.0565 -0.2015
17703W        W33512  14.702   7.724   2.500 -0.2784 -0.0024 -0.3408
17704W        W33513   2.619  14.046   3.935 -0.1269  0.0462  0.1584
17705W        W33514   5.008   0.689  13.002 -0.5120 -0.1532 -0.3776
17706W        W33515  11.986  11.831  12.761  0.2325 -0.2463 -0.0069
17707W        W33516  12.420   2.445  12.513  0.1857  0.2163  0.1292
17708W        W33517   0.522   1.609  12.919  0.3163 -0.0156  0.0610
17709W        W33518   6.346   8.640   4.851 -0.2995  0.2110  0.1021
17710W        W33519   4.790   1.811  14.040 -0.0377 -0.0012 -0.0301
17711W        W33520  13.988   2.562  16.145  0.0208 -0.1424 -0.0575
17712W        W33521  10.839  10.708   3.055  0.2919  0.0096  0.3203
17713W        W33522   8.814   7.832   6.355  0.2342 -0.0625  0.4478
17714W        W33523  11.798   5.555   1.616 -0.0570  0.1361  0.2280
17715W        W33524  16.584   1.767   2.541  0.0227  0.1629  0.1943
17716W        W33525   0.081   4.642   4.860 -0.1088  0.0198 -0.0038
17717W        W33526   8.591   2.059  15.008 -0.0712 -0.1003 -0.0857
17718W        W33527  16.053   8.241  14.872  0.0503 -0.0913  0.0747
17719W        W33528   8.601  16.683   0.650 -0.1468  0.1348 -0.0420
17720W        W33529   1.696  17.434   2.980  0.0076  0.0466 -0.2196
17721W        W33530   4.682   5.274  16.159  0.2500  0.1193 -0.1018
17722W        W33531  13.432  13.872  10.927 -0.2253  0.1008  0.0441
17723W        W33532   1.407   5.399   4.935 -0.1642 -0.4261  0.0808
17724W        W33533  10.483   7.409   0.070  0.0169  0.1848  0.1799
17725W        W33534  11.806   1.934   4.078  0.2181  0.2819  0.1084
17726W        W33535   2.651  13.102  13.296 -0.0385 -0.1337 -0.1214
17727W        W33536   6.562   1.687   2.686 -0.0912 -0.2531  0.0523
17728W        W33537   4.390  18.168  15.131  0.1983  0.0451 -0.1180
17729W        W33538  15.358   9.523   5.538 -0.1914  0.1805 -0.1551
17730W        W33539   3.936  10.652   1.353 -0.0340  0.0438  0.2090
17731W        W33540   4.022  15.342   4.762  0.3752  0.0816 -0.0669
17732W        W33541  13.691  11.736  13.932  0.0101  0.1843  0.2610
17733W        W33542   1.461   6.187  14.436  0.0804  0.0417  0.3573
17734W        W33543  15.901   2.742  14.040 -0.1107  0.0028 -0.0490
17735W        W33544  15.879  14.859  12.308 -0.3359 -0.1321 -0.0080
17736W        W33545  15.595  15.525   2.250 -0.1605 -0.1343  0.1107
17737W        W33546   9.111  11.273  13.869  0.1947  0.2000 -0.1343
17738W        W33547   7.444   4.835  10.570 -0.1064  0.0572 -0.0366
17739W        W33548   9.439  13.406  14.387  0.1977 -0.1004 -0.0563
17740W        W33549   7.476   5.662  12.171 -0.4105  0.1647 -0.1318
17741W        W33550  16.496   7.991  14.224  0.0165 -0.0069  0.1041
17742W        W33551  16.721   5.748  11.258 -0.2547 -0.2795 -0.2028
17743W        W33552  14.942   6.334   6.212  0.1972  0.1142  0.2216
17744W        W33553   2.440   7.356  14.134  0.0297  0.3527 -0.0599
17745W        W33554   8.653   4.859  15.800 -0.1645  0.0278  0.0872
17746W        W33555   9.314   8.334  10.982  0.0976 -0.1287  0.0643
17747W        W33556   7.012  10.760   0.361 -0.0355  0.0372  0.0786
17748W        W33557  13.762  17.154   4.420 -0.0369 -0.0208 -0.0785
17749W        W33558   3.707   9.651   3.438 -0.2309 -0.0909 -0.0585
17750W        W33559   5.682   7.481  12.307 -0.2753 -0.0434  0.1110
17751W        W33560  10.905   5.927  10.493 -0.1232  0.0430  0.1413
17752W        W33561   6.024  14.265   3.437 -0.1904  0.0494  0.0096
17753W        W33562  11.206   4.797  13.880  0.1382 -0.0512 -0.1285
17754W        W33563  10.940  17.837   2.880 -0.1270 -0.1353 -0.2432
17755W        W33564   4.100  11.556   4.281 -0.1214 -0.0327  0.0621
17756W        W33565  10.878  12.239   1.157  0.3634 -0.1418 -0.0642
17757W        W33566   9.193  11.248   5.244  0.1562  0.2672  0.0316
17758W        W33567  11.455  16.485   4.971 -0.0294  0.0495 -0.2767
17759W        W33568  18.065  17.600  11.728  0.0575 -0.2186  0.0120
17760W        W33569  14.003   6.761  14.596 -0.2148  0.3322 -0.1202
17761W        W33570   3.850  17.675   1.460 -0.3197  0.2428 -0.0114
17762W        W33571  10.502  15.782  12.759 -0.3050 -0.0635  0.2167
17763W        W33572   7.112  15.310  14.145 -0.1784 -0.0956  0.1307
17764W        W33573   2.283   2.167   2.941  0.3814 -0.3574 -0.2745
17765W        W33574  12.863  14.839   1.326  0.1581  0.1382  0.1809
17766W        W33575  14.657   7.240  11.810 -0.3168 -0.0167  0.1504
17767W        W33576   2.875  11.853  14.964  0.1861 -0.0749  0.0452
17768W        W33577  11.687   8.127   9.856 -0.0832 -0.1445 -0.0573
17769W        W33578  14.731  14.311   3.962  0.0288  0.1705  0.0127
17770W        W33579   9.100   9.917  13.469  0.0671 -0.1014  0.1275
17771W        W33580   0.387   2.138  12.896  0.0010 -0.0327 -0.1489
17772W        W33581   6.970  12.705  13.133 -0.2396 -0.0705 -0.0688
17773W        W33582   6.741   3.638   2.707  0.1608  0.0640  0.1476
17774W        W33583   2.679  10.921  14.866  0.1908  0.2788 -0.0822
17775W        W33584   9.526   1.471  13.907 -0.0873  0.1675 -0.1396
17776W        W33585   2.222   0.317   1.747 -0.0070  0.3195 -0.2435
17777W        W33586  11.062   3.011   0.838  0.1042 -0.4565  0.1492
17778W        W33587  11.734   9.462  15.674 -0.1428  0.0141 -0.1814
17779W        W33588   7.684   7.239   4.147  0.0516 -0.2215 -0.0160
17780W        W33589   0.040  17.328   1.107 -0.2120  0.0583 -0.0202
17781W        W33590   4.279   8.264   4.253 -0.1199  0.2979 -0.1425
17782W        W33591   0.857   1.991  12.772  0.1427  0.0869 -0.2215
17783W        W33592   8.439   0.606  13.265  0.2001 -0.0411  0.1320
17784W        W33593   4.411   8.882   1.277 -0.1577 -0.2731  0.1254
17785W        W33594   9.112   6.582   5.066 -0.1669  0.2080 -0.0748
17786W        W33595  17.053  11.501  13.404  0.0318 -0.3013 -0.1260
17787W        W33596  14.394   1.864  13.733  0.0528 -0.0383 -0.0600
17788W        W33597   3.223   3.489  14.065  0.0820 -0.2313  0.2602
17789W        W33598  11.793  12.827  15.482  0.1737  0.1471  0.0003
17790W        W33599   1.644   8.929   4.477 -0.0420  0.0134 -0.3880
17791W        W33600   8.541  11.601  11.474 -0.0622 -0.3241 -0.2444
17792W        W33601   9.312  15.213   3.700  0.3110 -0.1335  0.1587
17793W        W33602  15.908   8.847   5.417  0.0165 -0.0125  0.0035
17794W        W33603   7.021   7.600   6.122 -0.5570 -0.1952 -0.0806
17795W        W33604   3.539   8.325  12.871  0.1625  0.1381 -0.2549
17796W        W33605   7.896  15.286   3.358 -0.0601  0.0962  0.2203
17797W        W33606   4.130  14.108   5.685  0.2142 -0.0400 -0.2001
17798W        W33607  14.883  17.218   1.902  0.0692 -0.0674 -0.1666
17799W        W33608   3.851   2.528  14.570 -0.1538 -0.0266  0.3364
17800W        W33609   8.798  15.343  12.761  0.0254  0.2067  0.0913
17801W        W33610  17.917  17.207  14.275  0.1206 -0.0193 -0.1607
17802W        W33611   9.742  15.357  15.793  0.1725 -0.0190  0.1281
17803W        W33612   0.102   9.875   4.594 -0.0859  0.2082  0.1562
17804W        W33613  11.117  12.799   4.133 -0.2065 -0.1557  0.0752
17805W        W33614   5.497  13.835   3.049 -0.1795 -0.2928 -0.3469
17806W        W33615  16.271   3.608   0.016  0.1439 -0.0058 -0.2312
17807W        W33616  10.373  18.172  14.857 -0.0317  0.0422 -0.0345
17808W        W33617   8.396   9.673  12.422  0.3432  0.1986 -0.0776
17809W        W33618   5.175   8.001   2.011  0.0628 -0.0677 -0.0760
17810W        W33619   6.055   1.901   4.709 -0.2339 -0.0919 -0.3480
17811W        W33620   6.509   7.483  15.166  0.1029  0.0044  0.0626
17812W        W33621  16.213  15.763   3.255  0.0135  0.0369  0.0410
17813W        W33622  15.403  15.661  13.219 -0.1663 -0.0512 -0.1662
17814W        W33623   4.721   9.926   5.201 -0.0855  0.0483 -0.1184
17815W        W33624   9.435   7.891   5.056  0.0854  0.0143  0.1813
17816W        W33625  16.470  12.660   5.580  0.0199 -0.1971 -0.0451
17817W        W33626   7.673  11.002  16.168  0.1595 -0.0218 -0.3800
17818W        W33627   2.631   0.563  11.657  0.2109  0.2374  0.3706
17819W        W33628  11.703  17.745   3.420  0.0552 -0.1661  0.1286
17820W        W33629  10.465  12.241  12.951  0.0824  0.0776 -0.2519
17821W        W33630  14.075   9.123   1.562 -0.0600 -0.0749  0.1288
17822W        W33631  11.082   0.763  16.052 -0.0641  0.0819  0.3290
17823W        W33632   1.005   8.431   6.304  0.0083  0.0279 -0.1946
17824W        W33633  15.318  11.862  14.701 -0.1766  0.1694  0.1847
17825W        W33634   9.238   7.195  16.101 -0.0354  0.1357 -0.3074
17826W        W33635  14.603  10.223  11.194  0.0502  0.0774 -0.0646
17827W        W33636   3.962   6.568   2.091 -0.1952  0.1863 -0.0191
17828W        W33637  15.225   7.393   3.100 -0.0585  0.0129 -0.1697
17829W        W33638  13.853  13.415   3.438  0.0308 -0.2250  0.1646
17830W        W33639   7.557  17.237  15.765 -0.0100  0.2978  0.0090
17831W        W33640  15.370   0.253   2.195  0.0767 -0.0233  0.0670
17832W        W33641   0.272  17.560   3.057  0.0085 -0.1475 -0.0315
17833W        W33642   3.982   8.762  12.698 -0.2190 -0.4342 -0.2426
17834W        W33643   3.029  13.488  13.186 -0.1087  0.1471 -0.0408
17835W        W33644  15.501  11.434   4.437  0.2459 -0.0202  0.0395
17836W        W33645   1.830   4.426  13.534 -0.1366  0.2332  0.0134
17837W        W33646  17.652   1.039   2.770 -0.1450 -0.0095 -0.1124
17838W        W33647  14.828   1.702  15.088 -0.0424 -0.0421  0.4103
17839W        W33648   8.178  12.506  11.231 -0.3770 -0.0264 -0.1198
17840W        W33649  14.647  12.825  15.134 -0.1133  0.0622  0.2146
17841W        W33650   2.244  17.225   1.626  0.2999  0.0727  0.3222
17842W        W33651  13.150  12.958  14.920  0.2092  0.0061  0.1961
17843W        W33652  15.406  15.155   5.355 -0.0286 -0.0023  0.2187
17844W        W33653   4.092  11.310  11.363  0.0957 -0.1015  0.0901
17845W        W33654   1.615  16.044  11.484 -0.0143  0.0964  0.1418
17846W        W33655   6.232  17.859  13.781  0.1899  0.0699 -0.0837
17847W        W33656  17.810   9.930   2.330  0.1024 -0.0327 -0.1423
17848W        W33657   0.492  15.741   0.651  0.1456  0.1895  0.1063
17849W        W33658   4.334  11.725  11.597 -0.0915  0.3398  0.1538
17850W        W33659   2.384  11.321  16.191 -0.0971 -0.1341 -0.2065
17851W        W33660  16.924  17.284  13.136 -0.0421 -0.2748  0.0541
17852W        W33661  16.367  14.054   4.446  0.0329 -0.0364  0.1122
17853W        W33662  17.175  17.643  12.848 -0.0138  0.3861 -0.0975
17854W        W33663  12.007   2.813   1.161 -0.1702  0.2613  0.1391
17855W        W33664   0.356  17.135   3.933  0.1334  0.0720 -0.0518
17856W        W33665  12.770  11.403  11.782 -0.1873  0.2270 -0.2266
17857W        W33666   1.501   1.049  14.235  0.0743  0.0843 -0.4285
17858W        W33667  10.719   6.741   3.950  0.1587  0.2689  0.0957
17859W        W33668   8.221  12.706  15.465  0.1389  0.1665 -0.1713
17860W        W33669  12.552   0.159  15.435 -0.3141 -0.1436 -0.2593
17861W        W33670   1.533  16.016   4.775 -0.1838  0.0508  0.3311
17862W        W33671   2.963   3.082   4.322  0.0464 -0.1235  0.1981
17863W        W33672   4.046  14.226  15.984 -0.2333 -0.2079 -0.1358
17864W        W33673  15.675   9.911  10.670  0.0348  0.1845  0.0610
17865W        W33674   7.375  15.719   4.227 -0.0224  0.0693  0.1266
17866W        W33675   4.675  15.927   1.449  0.1040 -0.2355 -0.0314
17867W        W33676   1.390  17.089  12.988  0.0267  0.0159  0.2144
17868W        W33677   2.469  16.442   3.394 -0.1537 -0.0442 -0.1206
17869W        W33678  10.604  13.675  13.326  0.1490  0.0619  0.3121
17870W        W33679   3.349  12.821  16.337  0.1505 -0.0313 -0.1889
17871W        W33680  17.569   0.410  13.709  0.2382 -0.4836  0.0389
17872W        W33681  15.148   4.684   2.121  0.0713  0.1462 -0.3401
17873W        W33682  16.609   5.249  14.097  0.0250  0.2356  0.1124
17874W        W33683   9.369  11.764   0.238  0.0614 -0.0777 -0.1516
17875W        W33684   3.069   1.344   4.264  0.0140 -0.0069  0.2123
17876W        W33685  13.010   9.051   4.692 -0.0515 -0.2774  0.1821
17877W        W33686   4.543   1.364   1.223  0.1485  0.0594  0.3081
17878W        W33687  13.850  14.736  12.515 -0.1631 -0.0194  0.0361
17879W        W33688  13.876  15.000  11.706  0.0357 -0.0008 -0.0627
17880W        W33689  10.268  18.132   1.958  0.1299 -0.0319  0.0341
17881W        W33690   6.794  17.024   3.736  0.0960 -0.0002  0.0907
17882W        W33691  12.875  17.459   4.221 -0.3683 -0.1769  0.2205
17883W        W33692  18.036  10.016  13.684 -0.0516  0.0019 -0.0737
17884W        W33693   5.148  16.875  15.729  0.3991  0.1581  0.5926
17885W        W33694   0.269   0.153  13.041 -0.0523 -0.0736  0.1046
17886W        W33695  15.759   8.425  14.515 -0.2141 -0.0976 -0.3507
17887W        W33696  15.004  12.402  15.896 -0.4173 -0.1605 -0.1140
17888W        W33697   6.187   5.327  12.456 -0.0879 -0.3352  0.0721
17889W        W33698  13.707   8.639  15.807 -0.0514  0.1161 -0.0331
17890W        W33699   8.422  16.698   1.100  0.0005 -0.3375 -0.1499
17891W        W33700   0.544   4.801  13.711  0.0902 -0.0850  0.1598
17892W        W33701  14.417   0.566   1.241  0.1955  0.0779 -0.2604
17893W        W33702   7.242   8.232   4.416 -0.0837 -0.0694 -0.0527
17894W        W33703   2.952  10.220   0.171  0.0763  0.1514  0.0080
17895W        W33704   3.627   9.714   1.791 -0.0470  0.2904  0.0467
17896W        W33705   3.489  13.476  12.974  0.2808 -0.1639 -0.0523
17897W        W33706  14.511  12.826  14.546 -0.1934  0.0239  0.2186
17898W        W33707   6.824   3.766  15.078 -0.1648 -0.4099 -0.0446
17899W        W33708  10.959  17.767  15.680 -0.0502 -0.0839 -0.2143
17900W        W33709  12.762   3.148   4.666  0.2789  0.1847 -0.0818
17901W        W33710   0.160  13.754  15.287 -0.1163  0.1789  0.0240
17902W        W33711  11.165  12.655  14.727 -0.2355  0.3297  0.1145
17903W        W33712  10.070   8.646  11.273  0.4594  0.2746 -0.1011
17904W        W33713  10.961   8.532  11.135 -0.2709  0.0714  0.1175
17905W        W33714  16.507   4.105   3.018  0.1009 -0.2628 -0.0101
17906W        W33715   9.891  15.421   5.421  0.0119  0.0353 -0.1684
17907W        W33716   7.361   0.804   1.400 -0.1082 -0.1248 -0.2580
17908W        W33717  14.302  13.608   3.658 -0.2108 -0.1845 -0.1890
17909W        W33718  16.323   4.548   3.146  0.1591  0.2589  0.3319
17910W        W33719   0.620   9.925  15.443  0.0264 -0.1257 -0.3823
17911W        W33720   7.933  11.591   6.040  0.0579  0.0985  0.1850
17912W        W33721  13.121  15.456   2.455 -0.0757 -0.0705 -0.2982
17913W        W33722  18.086   1.122   5.676 -0.3591  0.0747  0.1113
17914W        W33723  16.170   4.405   5.437  0.0928  0.1999  0.1820
17915W        W33724   7.046  11.023   0.764 -0.5138  0.0452 -0.1911
17916W        W33725   2.997   9.264   3.758 -0.0129 -0.1343  0.1514
17917W        W33726   4.119   4.191  15.547  0.1141  0.2103  0.3673
17918W        W33727   5.776  10.307   0.377 -0.0272 -0.2239 -0.1641
17919W        W33728   4.931   0.441  12.565 -0.0639  0.1768 -0.0620
17920W        W33729  16.705  11.091  12.464  0.5109 -0.1113  0.1730
17921W        W33730   8.958   8.122   5.097  0.2620  0.2692  0.1471
17922W        W33731   2.645   8.877  13.735  0.0741 -0.0441  0.6543
17923W        W33732  12.207   6.701   3.021 -0.0781  0.1696  0.1619
17924W        W33733  14.308  17.536   0.263  0.1378 -0.0859  0.1638
17925W        W33734   2.165   8.795  15.708  0.0319  0.0109 -0.2659
17926W        W33735   5.760   5.625   0.392 -0.2046 -0.3710  0.0711
17927W        W33736   4.015  11.251   3.241  0.4086  0.2541 -0.0381
17928W        W33737   4.969   4.300  13.832  0.0479 -0.2778 -0.2400
17929W        W33738   8.514  16.802   6.202 -0.2168 -0.1343  0.0221
17930W        W33739   8.209   3.761   4.248 -0.6253 -0.1329 -0.1087
17931W        W33740   4.894   2.567  11.468  0.0061 -0.0227 -0.1529
17932W        W33741   3.039   3.054  13.764 -0.1508  0.2636  0.0074
17933W        W33742   4.574   7.917   3.995  0.4854 -0.2525  0.2566
17934W        W33743   9.977   9.832   3.511 -0.0634  0.2108  0.0461
17935W        W33744   8.144  13.908   2.241  0.1602  0.0812 -0.0009
17936W        W33745  16.999   5.966   3.102  0.0030  0.1161  0.0567
17937W        W33746   8.412  17.083  13.511 -0.2688 -0.0696 -0.0381
17938W        W33747   6.920  15.905   4.385  0.2104  0.2338  0.2452
17939W        W33748  12.770   8.110   0.604 -0.0787 -0.1888 -0.1024
17940W        W33749  15.233  13.065  11.576  0.0045 -0.0988 -0.0763
17941W        W33750   1.013   3.503  10.771 -0.1272 -0.2420 -0.0551
17942W        W33751  15.532  15.494  15.239  0.1466  0.3908 -0.1584
17943W        W33752   4.421  15.928  11.057  0.1064 -0.1562 -0.1791
17944W        W33753  13.014  10.030  10.550  0.0616  0.0809 -0.1332
17945W        W33754  10.439   6.409  13.966  0.0360  0.3548 -0.0134
17946W        W33755  17.055   2.649  12.212 -0.2931  0.0737 -0.2292
17947W        W33756  16.836   5.673   0.256 -0.3990  0.0940  0.0696
17948W        W33757   4.857   1.488  15.062  0.0039 -0.0779  0.0866
17949W        W33758  15.522   9.631  12.233 -0.1769 -0.4009  0.0336
17950W        W33759  10.245   5.805  12.216 -0.4497  0.0459 -0.0852
17951W        W33760  15.622  17.197  15.817  0.0387 -0.0516 -0.2459
17952W        W33761  10.970  13.961   3.681 -0.0327  0.2248 -0.0375
17953W        W33762   7.173  15.526   2.746  0.2858  0.1684  0.1057
17954W        W33763   1.366   4.055   0.470  0.1653  0.1919 -0.0326
17955W        W33764   7.200   3.853  12.199 -0.0547 -0.0693 -0.0894
17956W        W33765  14.872  10.160   2.455  0.1291 -0.1882 -0.2394
17957W        W33766   1.374  13.619   4.637 -0.1348  0.1629 -0.0570
17958W        W33767  14.395  14.962   5.338 -0.1229  0.1375  0.0283
17959W        W33768   5.035   4.552   4.534 -0.0664  0.0366  0.0806
17960W        W33769   3.522   7.939   4.325 -0.0296  0.1044 -0.0563
17961W        W33770  17.027   1.912   0.367 -0.3368 -0.0304 -0.3170
17962W        W33771   8.631   7.427  12.195 -0.1904  0.2168 -0.1353
17963W        W33772  10.537   7.257   3.809 -0.3095 -0.0454 -0.0880
17964W        W33773   1.514  15.862  15.786  0.3431 -0.3397  0.2193
17965W        W33774   4.850  12.062   4.013 -0.2766  0.1947 -0.1243
17966W        W33775   4.079  10.297  15.485  0.2049 -0.3330 -0.1077
17967W        W33776  10.630  13.142  15.396  0.3238  0.1101 -0.0834
17968W        W33777   6.493  15.925   1.508  0.3555  0.0925  0.0729
17969W        W33778   2.054   7.993  11.953 -0.1187 -0.0297 -0.2660
17970W        W33779  14.439  10.810   2.724  0.0731  0.2986  0.1445
17971W        W33780   0.385  13.627  13.206 -0.0795 -0.0243 -0.0046
17972W        W33781   7.002  17.137  14.838  0.1933 -0.2925 -0.3049
17973W        W33782   6.751   1.826  13.228 -0.1513  0.3448  0.1423
17974W        W33783   8.355   2.291   2.981  0.0337  0.2329  0.0310
17975W        W33784  16.521   3.579   1.776 -0.0003  0.4815 -0.1766
17976W        W33785   4.054  11.727   0.867  0.3103 -0.0661 -0.2174
17977W        W33786   6.700   9.750   2.648  0.0368  0.0403  0.0058
17978W        W33787   8.643   1.135  12.078 -0.2085 -0.1086 -0.3491
17979W        W33788   2.471  12.895   0.494 -0.0446 -0.2941  0.0037
17980W        W33789   5.841   1.333  14.223 -0.1724 -0.0911 -0.2241
17981W        W33790  12.891   7.131  11.027 -0.0597  0.0847  0.1423
17982W        W33791   8.125   8.260  11.634  0.2981  0.0890  0.1283
17983W        W33792   4.887   9.047   1.581  0.0586 -0.2588  0.3369
17984W        W33793   9.088   3.502  10.536 -0.0635  0.0819 -0.1329
17985W        W33794   2.105  13.333   3.656  0.1017 -0.4223 -0.0317
17986W        W33795  13.197   3.716  14.918  0.0336  0.1581 -0.1986
17987W        W33796   9.966   4.710   0.553  0.1713 -0.2046 -0.2081
17988W        W33797  13.372  11.678  13.556 -0.3368 -0.0401  0.0105
17989W        W33798   3.744  11.520  11.092  0.0637  0.0670  0.1066
17990W        W33799   2.519  18.102   1.821 -0.0429  0.0258  0.2061
17991W        W33800  10.071   9.298   2.568  0.1019 -0.3772 -0.0870
17992W        W33801   9.976  17.208   1.574 -0.0866  0.2055 -0.1587
17993W        W33802   2.219   9.677   5.997 -0.0009 -0.0129 -0.0496
17994W        W33803   2.339  17.206  15.774 -0.1028  0.2111 -0.0942
17995W        W33804   2.071  10.503  13.986  0.2124 -0.6494 -0.1489
17996W        W33805   6.332   2.619  12.046 -0.1515 -0.1168  0.1478
17997W        W33806  15.100  17.509   1.235  0.1869 -0.0159  0.1788
17998W        W33807  11.558  17.177  15.854  0.1036 -0.2639  0.0354
17999W        W33808   8.391   8.081  14.290  0.1702 -0.3903 -0.1626
18000W        W33809   3.137   1.795   3.963  0.0213  0.0723  0.1733
18001W        W33810  14.195  16.141  15.342 -0.2616  0.2617 -0.1844
18002W        W33811  14.967   3.115   5.847 -0.0495 -0.1266  0.1050
18003W        W33812   6.939   3.528   0.795  0.0158 -0.2290 -0.1413
18004W        W33813  14.554  12.371  14.787  0.0576 -0.4946 -0.1290
18005W        W33814  10.665  10.293   0.725 -0.2540 -0.1628 -0.1061
18006W        W33815   4.388  15.663  15.258 -0.3107  0.2776 -0.2723
18007W        W33816  12.029  15.665   4.380  0.0200  0.0764  0.0986
18008W        W33817   7.262   4.605  15.915 -0.1847  0.2358  0.2115
18009W        W33818   5.393  14.896  13.148  0.0769  0.1046 -0.1169
18010W        W33819   5.298   7.378  12.717  0.1796 -0.0907  0.0778
18011W        W33820  12.013   4.145  11.109  0.0874  0.3396  0.1323
18012W        W33821   5.082  13.414  16.020 -0.1440  0.1136 -0.1629
18013W        W33822   6.862  13.102  13.426  0.2221  0.0638  0.0784
18014W        W33823   7.305   4.041   1.854 -0.0215  0.1355 -0.0526
18015W        W33824  13.002   1.893  16.249  0.0572 -0.0924 -0.1609
18016W        W33825  11.644  12.946   1.481  0.1195 -0.1203 -0.1796
18017W        W33826  16.681  10.171  13.820 -0.3400  0.2643  0.1465
18018W        W33827   0.063  14.983  11.794  0.2016  0.0341 -0.0937
18019W        W33828   7.880   4.352  12.627 -0.4939  0.4171  0.0841
18020W        W33829   5.059   2.485  13.414 -0.3772  0.0497  0.0757
18021W        W33830  14.354  11.085  10.535  0.1428  0.0984  0.0148
18022W        W33831   1.610   6.303   1.254 -0.2405  0.0571  0.4092
18023W        W33832  10.673   7.653  14.986  0.4065 -0.0422 -0.2700
18024W        W33833   1.329  14.112  12.380  0.0905 -0.0325 -0.0784
18025W        W33834   4.126   4.505   4.176  0.4025  0.0590 -0.0969
18026W        W33835  16.352  15.691   3.735  0.2399 -0.0791 -0.1334
18027W        W33836   1.482  12.712   2.554  0.1275 -0.0784  0.1458
18028W        W33837   8.627  15.803   5.289 -0.1614 -0.0719  0.1890
18029W        W33838  14.654   6.798   4.110  0.0074 -0.1379 -0.1827
18030W        W33839   9.003   7.732   3.047  0.2502  0.1275  0.0950
18031W        W33840   1.606  15.219   0.273  0.1567  0.3292  0.2280
18032W        W33841   9.750  15.001  14.018  0.3005 -0.1049 -0.0266
18033W        W33842  11.046  13.977   0.830  0.0962  0.4445 -0.1813
18034W        W33843  12.836   9.455   4.443 -0.0933  0.3893 -0.1649
18035W        W33844   0.058   6.190  12.174 -0.0146  0.2544  0.0102
18036W        W33845  11.254  10.973   4.577 -0.1825  0.2426  0.0800
18037W        W33846   4.602   8.569   5.802  0.0688  0.0757 -0.0086
18038W        W33847  12.655  10.306   1.398  0.1587  0.0586 -0.3322
18039W        W33848  16.813   8.318   3.054  0.0151 -0.0331 -0.0206
18040W        W33849   2.708  15.437  11.526  0.2009 -0.0513  0.0180
18041W        W33850  17.458   1.865   2.887 -0.0551 -0.0411 -0.2509
18042W        W33851   7.278   1.069  15.591  0.2457  0.0335 -0.0758
18043W        W33852  14.950  10.807   4.580  0.3072  0.1168 -0.1039
18044W        W33853  11.493   0.690  14.225  0.0653  0.0253  0.2457
18045W        W33854  15.699   5.233   2.634  0.1062 -0.0128  0.2137
18046W        W33855  12.874   8.237   3.111 -0.2299  0.1593  0.0872
18047W        W33856   5.533   3.648  12.736  0.1388  0.1841 -0.0103
18048W        W33857  14.744  13.306  12.473 -0.0310 -0.2537  0.0707
18049W        W33858   3.267   0.468  12.601 -0.1082 -0.1073 -0.0794
18050W        W33859  12.601   8.610   3.424  0.0370 -0.0534  0.0834
18051W        W33860  14.300   1.291  14.952  0.0661 -0.0999  0.1173
18052W        W33861   3.252   8.463   3.199 -0.0274  0.0559 -0.0013
18053W        W33862  15.636  14.332  13.068 -0.0128 -0.0776 -0.1383
18054W        W33863   2.974  13.187  14.132 -0.0204  0.3561 -0.3355
18055W        W33864   3.150  13.161  12.791  0.2389 -0.3763  0.5294
18056W        W33865  16.863  11.779   3.647  0.0146  0.2365 -0.1904
18057W        W33866   5.048  13.552  15.112 -0.2988  0.0220 -0.0338
18058W        W33867  12.948   3.309   0.739 -0.3048  0.0958 -0.1519
18059W        W33868   9.319   8.170   1.649  0.1578 -0.2594  0.0700
18060W        W33869   1.387   1.145  13.175 -0.2616 -0.1989  0.0399
18061W        W33870  18.120  15.494  15.786 -0.3215 -0.0769  0.2150
18062W        W33871  12.027   1.588   4.992 -0.0061 -0.0492 -0.0422
18063W        W33872  11.555   4.275   1.971  0.0080  0.2458  0.0502
18064W        W33873  16.451  12.137   2.757  0.1386 -0.1205  0.2814
18065W        W33874   6.909   8.804  16.230  0.1998 -0.1241  0.2636
18066W        W33875   4.622  10.650   3.954 -0.1146 -0.1602  0.0174
18067W        W33876  17.353   2.637   3.494 -0.0363 -0.1357 -0.0907
18068W        W33877   7.662   8.377  15.667 -0.0235  0.1466  0.0166
18069W        W33878  17.304   1.752  13.622  0.3249 -0.1592 -0.2855
18070W        W33879  15.552   2.841  16.083  0.2535  0.0515 -0.1702
18071W        W33880   5.222  14.211   3.893 -0.0571 -0.0168 -0.1415
18072W        W33881   8.631  12.159   4.078 -0.0156 -0.0915  0.0178
18073W        W33882  11.740  17.989  16.163  0.1923 -0.1186 -0.0033
18074W        W33883   2.943  13.517   2.636  0.0077 -0.4214 -0.1233
18075W        W33884   0.672  15.705  14.959  0.1556  0.2170 -0.1488
18076W        W33885   1.356   3.465  13.516  0.1025  0.0570 -0.1038
18077W        W33886  15.374  12.403  15.424  0.0242 -0.0291  0.1688
18078W        W33887   3.813   7.325  12.586  0.2459  0.1442 -0.1504
18079W        W33888   0.988   5.443   2.787  0.3013  0.0948 -0.1186
18080W        W33889   4.708   2.065  15.800  0.2174  0.0028  0.1503
18081W        W33890   8.691   7.442  14.531  0.2041  0.2341  0.1099
18082W        W33891  11.557   1.210   2.168 -0.1084  0.2158 -0.0563
18083W        W33892  13.652  10.715   5.847  0.5252  0.1157 -0.0980
18084W        W33893  16.959  16.010  14.373 -0.0369 -0.1322  0.0732
18085W        W33894   3.088   4.462   5.143 -0.0892  0.1643 -0.1292
18086W        W33895   7.419   2.214   0.483  0.0634  0.1168 -0.0874
18087W        W33896   3.571  14.793  11.653 -0.0575  0.0944 -0.2260
18088W        W33897   2.389   5.909   3.569 -0.1355  0.0375  0.1910
18089W        W33898  17.406  16.684   3.394  0.1652 -0.0178  0.0495
18090W        W33899   7.064  14.640  15.427  0.1671 -0.2965 -0.0682
18091W        W33900  11.147   1.073  14.269 -0.2545  0.2284 -0.0348
18092W        W33901  17.573  14.087   0.198  0.0606 -0.1554 -0.2280
18093W        W33902  18.131  13.894   5.185 -0.2019 -0.1970  0.0777
18094W        W33903  13.100  11.240   3.338  0.3081  0.1218  0.1100
18095W        W33904   8.023  10.960   3.115 -0.1783  0.1181  0.1010
18096W        W33905  16.175   8.678  13.790 -0.0575 -0.0242 -0.1183
18097W        W33906   0.637  14.822  14.151  0.3344  0.2151 -0.1284
18098W        W33907   9.454  17.559   1.245  0.1948 -0.3744 -0.0573
18099W        W33908   3.664   5.463  12.296  0.0562 -0.2279 -0.2911
18100W        W33909   5.209   8.409   3.266  0.1091  0.1068  0.1295
18101W        W33910  12.377  14.175   2.157 -0.3387 -0.0848 -0.0720
18102W        W33911   8.072   8.697  16.082 -0.0715  0.1213 -0.2562
18103W        W33912   5.015   7.292   4.295  0.0631  0.1872 -0.0607
18104W        W33913   3.102   5.711   2.074  0.0480  0.1765 -0.1632
18105W        W33914   9.461  10.690   3.221 -0.0019 -0.1880 -0.0735
18106W        W33915   9.602  14.655   2.849 -0.0070 -0.1207  0.1170
18107W        W33916  14.134  14.589  12.033 -0.1219 -0.1853  0.0916
18108W        W33917   9.981  13.668  13.717  0.4272  0.1127  0.1104
18109W        W33918   8.810  12.779   1.695  0.0350 -0.0432  0.2326
18110W        W33919   1.676  15.485   2.409  0.0402  0.0202  0.0498
18111W        W33920   2.756  16.316   1.658 -0.0156  0.4561  0.3451
18112W        W33921  14.271  10.470  12.163 -0.0097  0.0042  0.1534
18113W        W33922  13.667   6.973  10.737  0.1181  0.0551  0.0830
18114W        W33923   8.579  15.072  11.630 -0.4205  0.0348 -0.0503
18115W        W33924  11.752   2.424   4.939 -0.1384 -0.1623 -0.0906
18116W        W33925  12.280   5.743   0.836 -0.2809  0.1906  0.0427
18117W        W33926  16.003  14.163  15.086  0.2961 -0.1811 -0.1067
18118W        W33927   5.988  14.388  14.589 -0.0384  0.1268  0.1025
18119W        W33928  13.464  17.771   0.084  0.1163 -0.0631 -0.0772
18120W        W33929  11.836  14.983   5.409  0.1706  0.2235 -0.3792
18121W        W33930   2.768   3.022  13.039  0.4020  0.1960 -0.1851
18122W        W33931   8.061  10.831  13.619  0.4882 -0.1006  0.3111
18123W        W33932  15.150  14.182   2.443  0.2574 -0.1041 -0.2107
18124W        W33933   0.107   8.740   2.741  0.1856  0.1071  0.0653
18125W        W33934   4.127   6.571   1.544  0.0527  0.1214  0.1118
18126W        W33935   5.677   8.171   2.681  0.0180 -0.0326 -0.3754
18127W        W33936   1.176  16.620   4.990 -0.1842  0.2364 -0.0753
18128W        W33937  17.782  12.253   1.528 -0.4710 -0.1864  0.1285
18129W        W33938   4.190  14.487  13.550  0.1686  0.1515 -0.1205
18130W        W33939   9.754   5.440  13.076 -0.1148  0.1444  0.3016
18131W        W33940   6.251   8.215  15.635 -0.1404  0.1239  0.0629
18132W        W33941  16.423   0.040   3.756 -0.0098 -0.0749  0.0226
18133W        W33942  16.703   2.844   6.542  0.2503 -0.2465  0.1539
18134W        W33943   6.965   4.760   5.734 -0.0344 -0.0961 -0.0309
18135W        W33944   3.405   2.899   2.370  0.2752  0.2603  0.0257
18136W        W33945  11.521  10.609  13.261 -0.0591  0.0344  0.1043
18137W        W33946   4.151   5.487  12.161  0.4374  0.1940  0.0159
18138W        W33947   7.531   7.934  15.085 -0.1963 -0.0363 -0.1752
18139W        W33948  13.298  13.502   1.198  0.2934  0.1289  0.2451
18140W        W33949  14.541   9.216   1.734  0.0788 -0.1384  0.0711
18141W        W33950   5.617   2.470  15.432  0.1225 -0.1288 -0.0076
18142W        W33951   1.111   7.258   2.949  0.4792 -0.1073  0.1270
18143W        W33952   2.025   2.289   0.191  0.0687  0.0865 -0.2975
18144W        W33953  13.020   9.717  11.982  0.0726  0.1692  0.3454
18145W        W33954  15.875  16.498   3.580 -0.3795  0.1891 -0.0064
18146W        W33955  15.444  13.311   0.680 -0.0593  0.1062  0.1683
18147W        W33956   4.278   7.637   0.989 -0.1355  0.0758 -0.2749
18148W        W33957  10.623   7.565   4.552 -0.0936 -0.1648 -0.1869
18149W        W33958   3.496   4.142  11.805  0.2177 -0.1319 -0.0130
18150W        W33959  14.816   1.002  12.030  0.1113  0.0607 -0.1229
18151W        W33960   9.583   1.191   2.010 -0.2122 -0.0454 -0.2238
18152W        W33961  12.692  10.380  13.004 -0.1390  0.0710  0.3858
18153W        W33962   0.502  14.774  15.190  0.2703 -0.1253 -0.1242
18154W        W33963  12.544   0.757   0.586  0.0523 -0.1321 -0.0517
18155W        W33964   9.347  13.725  12.020 -0.0361  0.0156  0.5271
18156W        W33965   6.223   5.423  13.771  0.2909 -0.2823 -0.1842
18157W        W33966   7.363   8.568   0.931 -0.2102 -0.0749  0.0375
18158W        W33967   5.287  10.515   2.560  0.0440  0.1717 -0.0079
18159W        W33968  16.292   0.229   4.598 -0.1426 -0.0753  0.1351
18160W        W33969   6.713   2.828  15.977  0.1972  0.0685  0.0203
18161W        W33970   0.636   9.288  16.335  0.3308 -0.0176  0.2520
18162W        W33971  11.665   5.338  15.035  0.0847 -0.2023 -0.1016
18163W        W33972  14.451   0.331   0.577 -0.0382  0.4660  0.2171
18164W        W33973   7.419   2.356  12.112  0.0210  0.4889 -0.3319
18165W        W33974  11.152  15.869   1.845  0.1061  0.0085 -0.0501
18166W        W33975  13.264   7.453  11.448  0.1148 -0.1104 -0.4885
18167W        W33976  11.479  14.594   0.001 -0.4240  0.0033 -0.0167
18168W        W33977   8.985   0.463   0.588  0.1006 -0.1629  0.0563
18169W        W33978  12.858  11.126   4.607 -0.0345 -0.3454  0.0479
18170W        W33979  12.677  10.976  10.811  0.3689 -0.2606  0.0556
18171W        W33980   8.435   1.459  11.724 -0.3301  0.2037 -0.0416
18172W        W33981   0.999   3.745   4.216  0.5143  0.1034  0.1028
18173W        W33982   7.458   4.085  15.008 -0.1320 -0.1046 -0.2348
18174W        W33983  13.026   0.411   3.285 -0.0527 -0.2381  0.0246
18175W        W33984   3.026  14.784   0.203  0.1980  0.0653  0.0708
18176W        W33985   5.342   4.366   2.841  0.0961 -0.2368 -0.3578
18177W        W33986  13.555   9.240  14.125 -0.1624 -0.1032  0.0953
18178W        W33987   7.632   5.043   4.776 -0.0727 -0.0088 -0.2887
18179W        W33988   1.565   9.481  16.165 -0.0740  0.2583 -0.1508
18180W        W33989  14.935  12.697  13.177 -0.3370  0.1141  0.0676
18181W        W33990   6.964   9.268   2.687 -0.3896  0.2832 -0.1944
18182W        W33991  10.806   1.101  13.843  0.0942  0.1832  0.2150
18183W        W33992  17.344   9.938   3.922 -0.2328 -0.0848  0.1198
18184W        W33993   1.162   0.981   4.393  0.5218 -0.3407 -0.1300
18185W        W33994   7.369   7.932   5.880  0.2986 -0.0296 -0.0857
18186W        W33995   5.817  11.435  13.935 -0.1826  0.0643  0.3841
18187W        W33996  16.264  10.550   0.912  0.1323 -0.0018  0.1179
18188W        W33997   5.097   1.187  15.395  0.0716 -0.0367  0.1152
18189W        W33998  15.663  10.474   3.112  0.0980 -0.0775 -0.0762
18190W        W33999   8.695  17.686  11.479 -0.3101  0.0839 -0.0964
18191W        W34000   5.979   7.824   3.460 -0.2418  0.2535 -0.1978
18192W        W34001   1.304   6.160   4.389 -0.1650  0.0334  0.0189
18193W        W34002   2.858  10.858  10.759 -0.1031 -0.1199 -0.2595
18194W        W34003  10.187   4.544   0.027 -0.1561 -0.0546 -0.2172
18195W        W34004   9.833   9.399   3.847  0.1987 -0.1561  0.4269
18196W        W34005   1.362  13.714  16.007 -0.3480 -0.0135 -0.3393
18197W        W34006   3.208  15.724   3.376 -0.3767  0.0381 -0.1485
18198W        W34007   8.430   1.609  12.933 -0.1474 -0.1160  0.4129
18199W        W34008  10.610  13.636  11.833 -0.0205  0.0074 -0.1460
18200W        W34009   4.260   4.947   1.024 -0.1367 -0.2364  0.2271
18201W        W34010   0.403   4.193  15.267  0.1653  0.0145 -0.2732
18202W        W34011   2.391  12.112  14.582  0.0478  0.1670 -0.2425
18203W        W34012   7.818  15.594  12.953  0.0571  0.2237  0.0839
18204W        W34013  13.269  11.345  11.635 -0.0448 -0.2177  0.0838
18205W        W34014  16.734   4.355   2.114 -0.0208 -0.1313 -0.4024
18206W        W34015   1.398   3.269   0.665  0.3298  0.3116  0.2048
18207W        W34016   7.665   2.681  11.333  0.0779  0.1432 -0.2713
18208W        W34017   4.983  15.597  12.526  0.0219 -0.1448  0.0759
18209W        W34018   3.076   6.094  12.488  0.2863  0.2798 -0.3392
18210W        W34019   9.370  10.278   4.437 -0.4296  0.1895 -0.2206
18211W        W34020  15.562  13.249  15.829 -0.0255 -0.1702  0.0630
18212W        W34021  17.548   1.622   0.370  0.1102 -0.1147 -0.2791
18213W        W34022   8.270  14.032   1.737 -0.1796 -0.0386  0.1481
18214W        W34023  17.452   1.138  13.134  0.0828 -0.2437 -0.0422
18215W        W34024  18.084  15.394   4.712  0.2540  0.2869  0.0283
18216W        W34025   8.879   2.335  16.196 -0.0129 -0.0413  0.1434
18217W        W34026  17.361  14.701  11.271  0.0723 -0.0786 -0.1786
18218W        W34027   8.691  13.790   1.022  0.0011 -0.2449 -0.1040
18219W        W34028   7.705   0.948   2.702  0.1507 -0.0567 -0.1481
18220W        W34029   5.579   0.935  15.533 -0.1434 -0.0547 -0.1794
18221W        W34030   0.547   0.444   3.893  0.2887 -0.1985  0.0571
18222W        W34031  12.043   3.778   4.445 -0.2604  0.0143 -0.2110
18223W        W34032   4.982   5.433   0.500 -0.0747  0.3006 -0.0356
18224W        W34033   1.861   7.840  15.818 -0.2436 -0.3385 -0.0639
18225W        W34034   9.747   3.126   4.430 -0.2266  0.2362  0.0796
18226W        W34035   7.986   9.006   1.741 -0.1911  0.0481 -0.0186
18227W        W34036  15.610   2.339  13.027 -0.3668  0.0339  0.1927
18228W        W34037  15.430   0.056  11.663 -0.0030 -0.1077  0.2281
18229W        W34038   6.274   6.112  11.495  0.2208 -0.0408  0.1769
18230W        W34039   8.866  18.048  11.174 -0.1189 -0.2668 -0.1089
18231W        W34040  15.714   9.119   3.804  0.2212  0.1751 -0.2096
18232W        W34041  14.754   2.626   1.999 -0.1720 -0.0430 -0.1587
18233W        W34042  12.214   1.072   0.957 -0.0467  0.1376  0.2301
18234W        W34043  12.300   4.791   4.382 -0.1196 -0.3271  0.2929
18235W        W34044  10.602   0.682  12.827  0.1643 -0.1913 -0.1057
18236W        W34045  15.829   9.138  13.004 -0.2536 -0.0336 -0.0798
18237W        W34046  17.070  13.897   4.966 -0.0728 -0.1898 -0.0017
18238W        W34047   5.962  17.201  14.384  0.0855  0.1286  0.1111
18239W        W34048  15.708  15.954   1.015 -0.0954 -0.0936 -0.0194
18240W        W34049   0.913   8.324  14.626 -0.0238 -0.1353 -0.1369
18241W        W34050   7.664   9.807   3.046 -0.0638 -0.2310  0.2811
18242W        W34051  10.210  12.588  14.417  0.3490 -0.0880  0.0374
18243W        W34052   5.779   4.085   1.207 -0.1996 -0.1843  0.2001
18244W        W34053  14.733  10.257  14.063  0.2072 -0.1653  0.1659
18245W        W34054   6.881  15.887   1.923  0.1381 -0.1937  0.2369
18246W        W34055   8.716  11.749   0.618  0.1859  0.0535 -0.1492
18247W        W34056   5.594   6.827  16.154 -0.2545  0.2576  0.1878
18248W        W34057   7.335   5.646  14.553  0.0181  0.2210  0.2928
18249W        W34058   4.639  16.372   3.396  0.2377  0.1187  0.1176
18250W        W34059   6.121  16.041   1.199 -0.1045  0.1662 -0.2566
18251W        W34060  17.503  11.654   5.162  0.1439 -0.2864  0.3197
18252W        W34061  10.523   8.049   0.857  0.0208  0.1763 -0.0306
18253W        W34062  16.092   6.924  14.946 -0.1852 -0.0828  0.0527
18254W        W34063  16.122   8.569   1.626 -0.0048 -0.0574  0.2313
18255W        W34064   8.439   0.586  14.508  0.0875 -0.1007  0.0752
18256W        W34065   0.755  17.933   0.064  0.0312  0.2328  0.0561
18257W        W34066   7.096  15.028   1.761  0.1629  0.2601 -0.1122
18258W        W34067   9.926   7.036  15.351  0.0501 -0.2756  0.1846
18259W        W34068   0.740  14.925   5.576 -0.2736 -0.0455 -0.0573
18260W        W34069  11.541  17.444  13.334  0.1231  0.0310  0.0472
18261W        W34070   4.577   2.345  15.208 -0.1525  0.0405  0.0462
18262W        W34071   2.447  13.990  13.516  0.2690 -0.0477 -0.1133
18263W        W34072   5.399  17.777   3.245 -0.0322  0.2360  0.2465
18264W        W34073  12.426   0.213  15.994 -0.2089 -0.0967 -0.3252
18265W        W34074  14.817   6.047   2.528  0.0254 -0.0685 -0.4812
18266W        W34075   0.895   1.193   2.569  0.2028  0.3333  0.0390
18267W        W34076   8.299  14.785  15.656  0.0734 -0.3848  0.1265
18268W        W34077  16.381   2.886  15.676 -0.1176 -0.0147 -0.1263
18269W        W34078  16.334   7.345   1.945  0.1944 -0.1208  0.2319
18270W        W34079   2.072  15.931  12.512 -0.4617 -0.2008 -0.1645
18271W        W34080  10.492   6.930  14.214 -0.1053  0.1811  0.0300
18272W        W34081   9.122   5.715  12.564 -0.1235  0.1908 -0.2948
18273W        W34082  18.178   7.640  15.424 -0.0489 -0.0972 -0.1165
18274W        W34083   3.938  14.643  12.541  0.1950 -0.0989 -0.0908
18275W        W34084   4.257   1.749  11.528  0.0523 -0.0636 -0.2158
18276W        W34085  11.097  12.182   2.424 -0.2151 -0.4052 -0.1254
18277W        W34086   2.609   9.801   4.485  0.1568 -0.0898 -0.1256
18278W        W34087  10.793   7.514  12.800 -0.2476  0.0205  0.1593
18279W        W34088   5.522  13.011  15.125 -0.1476  0.0934  0.0422
18280W        W34089  15.279  15.579   4.783  0.0896 -0.0781 -0.0427
18281W        W34090  12.281  11.649   3.699 -0.0405 -0.1872  0.0704
18282W        W34091   5.778  11.796  14.638  0.0765 -0.2143 -0.0241
18283W        W34092  13.495   2.422   4.448 -0.2892  0.5267 -0.2411
18284W        W34093   4.645   6.180  11.201  0.2252  0.0315  0.0556
18285W        W34094  10.260  11.301   3.579 -0.0247  0.0622 -0.3334
18286W        W34095  13.642   6.256  12.296 -0.2170  0.3141  0.0255
18287W        W34096   3.577   1.221  15.178  0.2349  0.3114 -0.2471
18288W        W34097   2.090   2.859   1.855  0.2198 -0.1015 -0.2976
18289W        W34098  11.356  13.065   5.493 -0.2501  0.2803  0.0486
18290W        W34099  16.526   3.237  16.102  0.0813  0.2198 -0.0468
18291W        W34100  16.251   6.360   0.958  0.0181 -0.2886 -0.2411
18292W        W34101  12.395  12.671  13.823 -0.1369 -0.2158 -0.0518
18293W        W34102   4.445   5.934   3.374 -0.1836 -0.0523 -0.6518
18294W        W34103   7.986   5.509  15.453  0.0418 -0.1791  0.0689
18295W        W34104  17.572  16.381  12.264 -0.0041  0.2501 -0.0776
18296W        W34105   1.344   1.818   6.537 -0.3440 -0.2784 -0.1714
18297W        W34106  14.424   6.508   4.896  0.3248  0.4055  0.3405
18298W        W34107  11.042   1.768   0.622 -0.1092  0.0104  0.0260
18299W        W34108  16.628   8.301   3.523 -0.1975 -0.1260 -0.0765
18300W        W34109   5.914   5.311  12.947  0.1339 -0.0201 -0.2022
18301W        W34110   2.489  12.329  12.698  0.2367 -0.1456 -0.0359
18302W        W34111  10.886  12.323  15.713  0.1046  0.0002  0.1389
18303W        W34112   6.974   6.986  12.659 -0.2740  0.3497  0.0722
18304W        W34113  11.382  17.238   2.285 -0.3411  0.0993 -0.1952
18305W        W34114   8.473   5.520  15.181  0.1177 -0.2840  0.1008
18306W        W34115   3.453   4.267  14.385 -0.0921  0.1666 -0.0798
18307W        W34116   3.418   5.747   0.318 -0.1360  0.2189 -0.1481
18308W        W34117  12.712   6.574   2.912 -0.0764 -0.1529 -0.1434
18309W        W34118  16.924  13.613  12.430 -0.1269 -0.0310  0.0607
18310W        W34119  12.275   3.522   2.468  0.0917 -0.0529  0.2951
18311W        W34120   9.199  10.589  15.967 -0.0430  0.1905 -0.0504
18312W        W34121   5.436  17.819   0.954  0.1769  0.1554 -0.3480
18313W        W34122   9.617   4.827  11.340 -0.2293  0.2047  0.0518
18314W        W34123   8.886  14.640   6.022 -0.1197 -0.1216 -0.1842
18315W        W34124  16.902  17.122  14.421  0.0536  0.2752  0.1624
18316W        W34125  11.873   0.733  16.199  0.0995 -0.1187  0.2807
18317W        W34126   6.992  16.352  13.774  0.1657  0.3335 -0.2719
18318W        W34127  10.626   6.368  11.904 -0.2104 -0.1277 -0.0184
18319W        W34128   4.342  10.467   5.287 -0.3485  0.2874  0.1375
18320W        W34129  14.219   1.062   3.960  0.1319  0.3985 -0.0864
18321W        W34130   2.846   1.663   3.423  0.0941  0.1615  0.1532
18322W        W34131  17.240   6.114  16.258 -0.0007 -0.2668 -0.0922
18323W        W34132   6.673   6.003  14.474 -0.0600 -0.1628  0.0373
18324W        W34133   7.978   2.245  15.819 -0.2251  0.1418  0.1169
18325W        W34134  15.395  10.628   4.714 -0.2650 -0.4140  0.1403
18326W        W34135  14.768   4.479   0.330  0.0758  0.2364  0.1970
18327W        W34136   8.327   5.004  13.188 -0.2935 -0.1650 -0.0740
18328W        W34137  12.226   6.878   1.277 -0.1062 -0.1141 -0.1009
18329W        W34138   5.801  17.580   4.644 -0.0014  0.1398 -0.0510
18330W        W34139  12.211   4.279   4.357  0.0855  0.3803  0.0471
18331W        W34140   8.630   7.309   0.521 -0.0828  0.0611  0.0863
18332W        W34141  12.348  13.750   0.370  0.0581 -0.0603  0.0623
18333W        W34142   2.565   6.359  14.023 -0.1766  0.0613 -0.0807
18334W        W34143   7.256  12.415  13.657 -0.2641 -0.0969 -0.1233
18335W        W34144   9.980   1.961   0.526 -0.1118 -0.0356  0.1905
18336W        W34145  15.945   6.302  14.122  0.0831  0.1697 -0.4042
18337W        W34146   4.860   6.241  16.264 -0.1033 -0.1005 -0.1562
18338W        W34147   2.178  12.409  13.672  0.1190  0.2139 -0.2497
18339W        W34148   4.627  11.341  15.923  0.2408 -0.0412 -0.1007
18340W        W34149  13.878   5.857  12.045 -0.2433  0.3082  0.2181
18341W        W34150  10.273  12.032  15.571 -0.1460  0.1603 -0.2251
18342W        W34151  15.667  12.347  11.361 -0.0085  0.0813 -0.2560
18343W        W34152   5.318  10.307  13.014  0.2446  0.0305  0.0224
18344W        W34153   7.720   9.450  13.373 -0.0622  0.0633 -0.1134
18345W        W34154  10.295  13.519   0.803  0.0572 -0.1456  0.0808
18346W        W34155  15.915  10.180   3.532 -0.0274  0.0862 -0.4399
18347W        W34156  15.822   8.861  15.765 -0.1589 -0.0989  0.0638
18348W        W34157  13.991  10.179   0.003 -0.0335  0.1635 -0.1184
18349W        W34158  14.910   4.384  15.796 -0.1936 -0.0979  0.0925
18350W        W34159  11.019   9.748   4.944  0.1604  0.0734  0.1263
18351W        W34160  12.588   3.955   4.196 -0.0236  0.0787  0.1169
18352W        W34161   3.772   2.376  14.044 -0.0758  0.3723 -0.0673
18353W        W34162   5.439   0.184  12.519  0.2251 -0.2235  0.0149
18354W        W34163  14.433   2.012   4.129  0.5571  0.1501 -0.0494
18355W        W34164   9.245   4.030   4.064 -0.2561 -0.1642 -0.1585
18356W        W34165  11.247   8.791  13.108 -0.1083  0.0276 -0.1284
18357W        W34166  15.430  15.614   0.685  0.1059 -0.5762 -0.0405
18358W        W34167  10.743   9.432   1.936  0.1748  0.4680 -0.2008
18359W        W34168   8.711  11.347  11.025 -0.3846  0.1111 -0.2439
18360W        W34169  13.917  14.240  14.912  0.1127 -0.4285 -0.2114
18361W        W34170   1.686  10.820  13.767  0.1007  0.0068  0.1844
18362W        W34171   0.079   4.088  14.331  0.0930 -0.2137 -0.1350
18363W        W34172  18.120   5.427  15.942  0.0463 -0.0587 -0.0215
18364W        W34173   8.289   3.191  16.285  0.0960 -0.2301 -0.1411
18365W        W34174   7.281   5.987  12.513  0.0304  0.2047 -0.0577
18366W        W34175  11.203  15.146   4.283 -0.1985  0.4455  0.1614
18367W        W34176  11.563  12.288   2.042  0.2388 -0.0657  0.0534
18368W        W34177  14.655   9.256  12.028  0.2136  0.1180  0.1210
18369W        W34178   2.406   3.353   0.889 -0.2509  0.1038  0.0362
18370W        W34179   1.943   9.254   5.074 -0.1185  0.2059 -0.2526
18371W        W34180  13.598   8.164  16.142 -0.0432 -0.0687  0.0214
18372W        W34181   0.711  16.220   2.715 -0.0826 -0.2144  0.4278
18373W        W34182   6.526   6.225  10.311  0.4297  0.3419  0.0258
18374W        W34183   5.594  14.401   4.158 -0.1313 -0.2408  0.1662
18375W        W34184   6.999   7.257  12.153  0.0793 -0.1142  0.3284
18376W        W34185   8.122  15.056  12.543  0.0936 -0.2116  0.0518
18377W        W34186   6.719  16.700  13.384 -0.0960  0.1184  0.0606
18378W        W34187  14.342   0.799  12.068  0.0367  0.1156 -0.0534
18379W        W34188   5.327  16.907  16.345  0.1090  0.3339  0.0987
18380W        W34189   2.874   3.091  12.465  0.0665 -0.3677 -0.0102
18381W        W34190   0.363  17.498   4.249  0.1168  0.0794  0.2465
18382W        W34191   5.464  15.598  12.906 -0.0231 -0.3568  0.1297
18383W        W34192  13.763   5.667   5.716 -0.0192 -0.2405  0.0565
18384W        W34193  10.962   8.248   0.953 -0.0621 -0.2154 -0.3340
18385W        W34194  10.821  13.511   5.077  0.0761 -0.2725 -0.1086
18386W        W34195  10.656   4.505   3.595  0.2310  0.1925 -0.1390
18387W        W34196   5.490   4.096   2.410  0.3174 -0.0168  0.1633
18388W        W34197  10.170  15.541  16.058  0.0887 -0.1435  0.0643
18389W        W34198   9.482  14.146   3.562  0.2405 -0.0286 -0.0737
18390W        W34199  10.584  10.967  16.073  0.1279 -0.3814  0.2273
18391W        W34200   2.700   6.644   2.885 -0.1147 -0.0267  0.4558
18392W        W34201   0.310   1.356  13.852  0.0123  0.0306  0.0421
18393W        W34202  14.343   9.893  11.557 -0.1099  0.1836  0.1265
18394W        W34203  10.334   3.167   1.499  0.0001 -0.3186  0.0514
18395W        W34204   2.481  15.795  15.579  0.0191  0.0692  0.2339
18396W        W34205  15.325   1.084   1.613  0.1031 -0.1644  0.0880
18397W        W34206   7.396   9.168   5.413 -0.1048  0.4111  0.1198
18398W        W34207  13.893  13.715   2.711  0.0556 -0.1454 -0.2855
18399W        W34208   3.438   5.632   4.927 -0.0941  0.1133  0.0022
18400W        W34209   9.242   7.783  10.921  0.0052 -0.1198 -0.1241
18401W        W34210   4.833  18.157  12.701 -0.1054 -0.3388  0.0222
18402W        W34211  17.131   2.773   3.921  0.0087  0.2366 -0.0997
18403W        W34212  13.858  18.139   4.977 -0.1104  0.0752  0.0044
18404W        W34213   5.952  13.166   1.992  0.2338 -0.0289  0.3224
18405W        W34214  14.822  15.452  15.147 -0.1312 -0.2118  0.2642
18406W        W34215  15.888  11.696  12.301  0.2797 -0.2478 -0.4189
18407W        W34216  10.790  13.544   0.905 -0.4792 -0.0597 -0.4396
18408W        W34217   7.058   2.538   0.625 -0.2353 -0.0300  0.0391
18409W        W34218  12.721  15.728  14.774  0.0013 -0.2676  0.0695
18410W        W34219   8.003   2.002  16.264  0.2317 -0.2938 -0.2440
18411W        W34220  16.866   3.114   2.640 -0.0487 -0.0409 -0.2239
18412W        W34221   7.015  17.946  14.367 -0.0730  0.1644  0.3610
18413W        W34222  16.573   7.827   5.766  0.0201  0.3941  0.1838
18414W        W34223   5.653   4.925   3.760 -0.0756  0.0807  0.1176
18415W        W34224   7.267  17.519  14.371 -0.2379  0.0998  0.2352
18416W        W34225  15.566  15.033   3.111 -0.1609  0.0906  0.1344
18417W        W34226   2.170  11.516  13.432 -0.3203 -0.1146 -0.1037
18418W        W34227  16.791   1.467   5.240  0.0794  0.0361 -0.1021
18419W        W34228  16.146  12.013  15.147  0.0064  0.0383 -0.1143
18420W        W34229  14.510  17.917   2.867 -0.2006 -0.3031 -0.3521
18421W        W34230   6.733  16.556  10.367  0.0866  0.0961  0.2753
18422W        W34231   7.302   6.681  15.840  0.0178  0.2700 -0.0089
18423W        W34232  11.278   7.762   4.025 -0.1335 -0.0619 -0.0607
18424W        W34233  11.314  14.766  14.854 -0.0623 -0.3710  0.0247
18425W        W34234   6.480   3.404   1.725 -0.2134  0.3928  0.3038
18426W        W34235   8.821   2.312   1.610 -0.4155  0.0321 -0.0498
18427W        W34236   4.464   2.522  13.294 -0.0058  0.1286 -0.0434
18428W        W34237   0.999   4.984   4.813 -0.0006 -0.4479  0.1142
18429W        W34238   3.375   2.316   2.993  0.1176 -0.2297 -0.0333
18430W        W34239  17.240  10.477  13.219 -0.2609 -0.1139  0.0161
18431W        W34240  13.930   5.615  11.572  0.2838  0.2228  0.0742
18432W        W34241   7.463  17.898  11.124  0.1763  0.0311 -0.1334
18433W        W34242  15.531  13.983   0.213  0.1942 -0.0489  0.0676
18434W        W34243   1.052  13.268   4.809  0.0856  0.0854  0.0322
18435W        W34244  15.882   8.879   0.739  0.0730 -0.0378 -0.0569
18436W        W34245   6.424   8.760  13.306 -0.2818 -0.0901  0.0553
18437W        W34246  10.056  14.773  15.812 -0.0364  0.0228  0.1234
18438W        W34247   3.259   8.828   5.432 -0.0941  0.1860 -0.0650
18439W        W34248  16.605  11.189   1.593  0.2210 -0.1872 -0.2608
18440W        W34249  15.459   3.361   4.416 -0.5886  0.0626  0.0216
18441W        W34250   8.833  17.600   3.262  0.1069 -0.0576 -0.0979
18442W        W34251   7.667   6.059  14.450 -0.1948  0.0115 -0.1176
18443W        W34252   6.426   0.840   4.676 -0.3829  0.1609 -0.0275
18444W        W34253  13.725   3.676   0.192  0.4001 -0.0684  0.0134
18445W        W34254  10.609   5.310  13.629 -0.1720  0.0213  0.0446
18446W        W34255   7.195   8.450  11.832 -0.1542 -0.1367 -0.0482
18447W        W34256  18.214   0.331  11.639 -0.2211 -0.1155 -0.2006
18448W        W34257   2.540   1.996   1.925 -0.0141  0.3308  0.0692
18449W        W34258   9.986   8.042  15.170  0.0641 -0.3422 -0.1157
18450W        W34259  14.118  17.487  11.410 -0.0935 -0.1854  0.1983
18451W        W34260   1.147  17.111   2.309  0.1592 -0.2717  0.0028
18452W        W34261   8.335  18.000   5.298  0.3372 -0.1768 -0.0054
18453W        W34262   8.244  11.643   1.030 -0.2691  0.1073  0.0069
18454W        W34263  14.890  13.898  14.547  0.0285  0.0971 -0.1930
18455W        W34264   6.229   6.018  13.710 -0.0279  0.0158  0.1678
18456W        W34265  12.407  12.984  11.149 -0.0518  0.2024 -0.0010
18457W        W34266  11.186   8.888  12.072 -0.0190  0.0000 -0.1234
18458W        W34267   1.926   6.703   1.490 -0.2908  0.3928 -0.2098
18459W        W34268   9.684   2.005   1.791  0.1297 -0.0490  0.0478
18460W        W34269   5.531   0.435   0.683 -0.2938  0.0412  0.0928
18461W        W34270   3.972  17.096   4.188 -0.0897 -0.0872  0.1076
18462W        W34271  12.985  14.564   2.652 -0.1066  0.1022  0.0333
18463W        W34272  12.678  11.526  11.097  0.0022 -0.3502  0.2029
18464W        W34273   4.456  14.719  12.687 -0.2062 -0.1587  0.1118
18465W        W34274  16.210   1.077   5.266  0.1366  0.0888 -0.1016
18466W        W34275   9.959   7.740   5.070  0.2649  0.0549  0.0697
18467W        W34276   6.471  13.895   0.492  0.1122 -0.1242 -0.2762
18468W        W34277   0.925   1.377   2.000  0.1710  0.1044  0.0840
18469W        W34278   8.203   1.644  11.348  0.0338 -0.0890 -0.3858
18470W        W34279   9.683   9.899   0.146 -0.3035 -0.0485 -0.1840
18471W        W34280   3.132  13.922   1.198 -0.1282  0.1764 -0.0549
18472W        W34281   0.568  13.867   1.175  0.0433  0.4715 -0.0279
18473W        W34282   7.335   0.112  10.255  0.2784 -0.1038  0.0500
18474W        W34283   6.801   8.315   5.094 -0.0903 -0.3650  0.0727
18475W        W34284  15.090   4.851   1.230  0.5746  0.2153 -0.5011
18476W        W34285   2.444   9.214   0.321 -0.0781 -0.2339 -0.1417
18477W        W34286  14.596  15.471  13.894  0.0642 -0.0632  0.0310
18478W        W34287  14.264   2.759   5.281  0.2178 -0.1518  0.1812
18479W        W34288  10.905  17.220   2.594 -0.2957 -0.3730  0.0578
18480W        W34289  17.874   8.056  15.355 -0.0825  0.0260 -0.0158
18481W        W34290   0.380  13.428  16.292 -0.0135 -0.1412 -0.0349
18482W        W34291  13.000   0.210  15.835  0.0067  0.0367 -0.0978
18483W        W34292   3.851   5.345   3.568  0.3801  0.3933  0.1144
18484W        W34293   1.087   4.416   1.461  0.0694  0.0475  0.2472
18485W        W34294  16.734   0.263   1.163  0.0186 -0.0602  0.2007
18486W        W34295  12.624   6.695  11.410 -0.2306  0.0146  0.2724
18487W        W34296  14.063   9.013  11.222  0.2859 -0.0620  0.1496
18488W        W34297  11.347   1.175   1.185  0.1396 -0.1240  0.3491
18489W        W34298  12.611   6.556   1.532 -0.1398 -0.1965  0.1204
18490W        W34299  15.874   9.625  13.604  0.0810  0.1033 -0.0357
18491W        W34300   3.639   3.989  13.903  0.0112 -0.0734 -0.1237
18492W        W34301   2.854  10.000  15.971 -0.0643  0.1614  0.1754
18493W        W34302   7.156   0.369  16.297 -0.0218 -0.0350  0.1724
18494W        W34303   2.511   4.540   2.515 -0.0179 -0.3039 -0.1944
18495W        W34304  15.079  11.696  11.502  0.1112  0.0324 -0.0701
18496W        W34305   4.569   4.215  11.623  0.2565  0.0820 -0.2464
18497W        W34306   1.649   9.925  13.422 -0.0877 -0.0665 -0.1424
18498W        W34307   8.310   7.237   2.807  0.2147  0.1773 -0.0247
18499W        W34308  15.160   2.481  14.110  0.1872  0.2516  0.1795
18500W        W34309   1.210   0.110   2.615  0.0317  0.1654  0.0703
18501W        W34310  14.918   8.762  13.814  0.5841 -0.1949  0.1288
18502W        W34311  16.418  14.962   1.514 -0.0426 -0.0636 -0.0884
18503W        W34312  16.528   8.834  11.749 -0.0932 -0.1908 -0.1171
18504W        W34313  16.736   1.106   1.971 -0.0157 -0.1010 -0.4995
18505W        W34314  11.208  12.870  16.184 -0.0800  0.2859 -0.3966
18506W        W34315  14.807   3.137   0.670  0.0142 -0.0998  0.2547
18507W        W34316   8.862   1.095   4.677  0.0760  0.2206 -0.0798
18508W        W34317   3.042  11.313   2.499 -0.0520 -0.3316 -0.0277
18509W        W34318   6.900  16.018   0.403 -0.1595 -0.0764 -0.2243
18510W        W34319  15.078   7.853   3.401 -0.1327  0.0513  0.0367
18511W        W34320  17.024  10.399   4.083 -0.2001 -0.2563  0.4162
18512W        W34321   8.286   5.955   3.441 -0.3277  0.2451 -0.0001
18513W        W34322  11.479  15.293  11.087 -0.1876  0.0761  0.4941
18514W        W34323  12.826   8.753  15.954 -0.0066  0.0373 -0.1868
18515W        W34324   5.940   5.550  11.333  0.0345  0.0556 -0.4305
18516W        W34325   2.158   9.561  15.940 -0.0207 -0.1774  0.0671
18517W        W34326   9.438   8.466   0.442 -0.3705  0.1014 -0.0187
18518W        W34327   5.567   3.715   0.193 -0.1805  0.2426  0.0635
18519W        W34328   5.830   6.489  12.900  0.2528  0.0473  0.0581
18520W        W34329  17.972  15.388  16.272 -0.0543  0.3797 -0.0557
18521W        W34330  16.554   5.651   2.921 -0.0739 -0.0793 -0.1489
18522W        W34331  14.407   0.372  13.531 -0.2669  0.0277 -0.0574
18523W        W34332  14.832   1.519   0.968 -0.0483  0.2391 -0.0321
18524W        W34333   0.673   2.940  14.762  0.0663 -0.1743 -0.1149
18525W        W34334  15.347   4.616  12.276  0.0707 -0.3307 -0.0101
18526W        W34335   6.892  11.145  11.474  0.2824 -0.0804 -0.0302
18527W        W34336  11.812   4.735   4.567 -0.0925  0.0767 -0.2732
18528W        W34337   0.480  17.456  13.867  0.0638 -0.0807 -0.3853
18529W        W34338   2.967   9.194  11.200 -0.1640 -0.1358  0.0218
18530W        W34339   7.137   3.003  16.204  0.0339 -0.0945  0.1150
18531W        W34340   8.564   5.436   5.321 -0.0835  0.1961  0.1326
18532W        W34341  14.001  10.640  13.226 -0.1296  0.0544 -0.0297
18533W        W34342   8.279   3.774  14.523 -0.0346 -0.1939  0.1017
18534W        W34343  11.134  16.014   3.239  0.0886 -0.0048  0.0577
18535W        W34344  11.505  12.393   4.268 -0.0629 -0.0046  0.0482
18536W        W34345  12.597   1.416  13.587 -0.1278 -0.0499 -0.0962
18537W        W34346   8.909  14.860  16.169  0.2343 -0.1698 -0.0230
18538W        W34347   9.080  14.474   0.437 -0.1205 -0.1339 -0.0763
18539W        W34348  15.066   6.129  16.241  0.0341 -0.0346 -0.3785
18540W        W34349   1.036  15.667  13.061 -0.2194  0.2676  0.0638
18541W        W34350   7.725  13.722  12.262 -0.2373  0.2015  0.0103
18542W        W34351   1.094  15.038   1.150  0.0733 -0.1211 -0.0431
18543W        W34352   7.241   2.486   0.095 -0.2668 -0.1100 -0.0598
18544W        W34353  14.289  11.927  14.796  0.1221 -0.1803 -0.0260
18545W        W34354  13.615  16.448   5.677  0.0975  0.1418  0.2317
18546W        W34355   4.962   7.573   2.168  0.0530 -0.3814  0.0074
18547W        W34356   1.516  12.219  12.451 -0.0386 -0.0514  0.1091
18548W        W34357   8.446  12.306   0.339  0.2079  0.1502 -0.0337
18549W        W34358   0.321  11.034  12.860  0.2296 -0.1219 -0.2083
18550W        W34359   0.590  15.279   4.645  0.3234 -0.1192  0.0213
18551W        W34360   5.382   7.792  13.271 -0.1225  0.2063 -0.1284
18552W        W34361  17.521  15.077  13.177  0.1854  0.0476  0.0706
18553W        W34362   2.669   4.085  15.965  0.0411 -0.1698  0.1141
18554W        W34363  16.109   0.679   3.716  0.0969  0.2434 -0.1877
18555W        W34364  17.333  15.876  15.695 -0.3774  0.0141  0.0822
18556W        W34365   6.100   3.262  14.108 -0.1316  0.0556 -0.1291
18557W        W34366   0.689   4.961  11.447  0.2763  0.0671  0.1771
18558W        W34367  11.105  11.184   2.413  0.0232  0.2671 -0.1459
18559W        W34368  14.192  13.283  12.350  0.1855 -0.0131  0.2917
18560W        W34369   8.572   1.444   3.765  0.2579 -0.2086  0.1288
18561W        W34370   0.493   3.878   4.053  0.0351 -0.3145  0.1414
18562W        W34371  12.559   0.004  12.461  0.0099 -0.0557 -0.3551
18563W        W34372  15.097  10.271  14.434  0.0970 -0.0853 -0.0047
18564W        W34373  12.962   4.649  12.935 -0.1331  0.1971 -0.1722
18565W        W34374   8.601  10.643  14.928 -0.0585 -0.1300  0.1127
18566W        W34375   0.704   3.079  11.887 -0.4291 -0.2147  0.1080
18567W        W34376   0.732  16.545   4.658 -0.0319  0.0256  0.1957
18568W        W34377   6.332   4.332   3.104 -0.0585 -0.2655  0.2496
18569W        W34378   3.549   1.697  16.105 -0.1250 -0.0772 -0.1169
18570W        W34379   1.600   1.607   2.795 -0.0134 -0.1521 -0.1379
18571W        W34380   5.099   1.855  16.062  0.2499 -0.3431  0.1866
18572W        W34381  13.924  15.816  12.236  0.1154  0.2155 -0.0890
18573W        W34382   6.442   9.751  12.304  0.2060  0.2537 -0.0061
18574W        W34383   3.981  18.099   1.619 -0.1889  0.0529 -0.2308
18575W        W34384   6.587   9.868  14.476  0.1164 -0.1845 -0.1289
18576W        W34385  13.803  15.293   2.994  0.0619  0.1824 -0.1861
18577W        W34386  14.762  15.144   1.085 -0.1592  0.3378  0.0201
18578W        W34387   2.383   9.770  12.867  0.2709  0.2337 -0.0646
18579W        W34388   2.343   7.936  12.896  0.0240 -0.1700 -0.0102
18580W        W34389   4.211  14.028  14.983 -0.1296  0.0418 -0.2187
18581W        W34390   2.266  15.658  15.048 -0.1048  0.1165  0.3027
18582W        W34391   2.198  14.353  14.786  0.0302 -0.2638  0.3989
18583W        W34392   5.683   0.479   3.074 -0.1139 -0.1379  0.1798
18584W        W34393   6.904  13.947   3.574 -0.1171  0.2152  0.0122
18585W        W34394  11.974   5.638  13.393 -0.0944  0.3487  0.2095
18586W        W34395   8.711   5.030  13.512  0.1493 -0.0250 -0.1278
18587W        W34396  11.543   3.136  13.035 -0.0434 -0.3409  0.1607
18588W        W34397   0.628   8.282   1.941  0.2706  0.0697  0.0542
18589W        W34398   3.612   5.954   4.175 -0.2081  0.0309  0.1030
18590W        W34399   0.395   0.927   3.827  0.0583  0.1621 -0.0210
18591W        W34400   4.141   1.867  13.472 -0.2066 -0.1351  0.3486
18592W        W34401  13.318  13.808  11.386  0.2665 -0.0436 -0.2043
18593W        W34402   8.285  11.173  11.630  0.1298 -0.0126  0.1321
18594W        W34403   4.921  16.978   5.031  0.0708  0.1099  0.0841
18595W        W34404  15.610  14.749  14.195  0.0188  0.1973  0.1028
18596W        W34405  16.059  13.175  15.669 -0.0667 -0.3150 -0.0539
18597W        W34406  11.933  16.068   5.503  0.0895 -0.1067  0.0832
18598W        W34407  10.413   5.747   3.206 -0.0257 -0.2598 -0.2173
18599W        W34408   6.392  16.871  10.618  0.0675 -0.2536  0.2310
18600W        W34409  15.107   7.369  15.668  0.1833  0.0867  0.2021
18601W        W34410  15.310   5.956  14.684  0.1577  0.1552  0.2780
18602W        W34411   1.187   2.207  14.567 -0.0563 -0.3451  0.0662
18603W        W34412   4.241  16.548   4.849  0.4729 -0.1686  0.3900
18604W        W34413   5.754   8.896  12.530  0.0905 -0.1212 -0.2115
18605W        W34414  14.850  10.063   0.657  0.0245 -0.0413  0.2001
18606W        W34415   0.380   4.472  14.070 -0.0192 -0.0358  0.1426
18607W        W34416   1.527   6.654  14.540  0.0466 -0.3650  0.3434
18608W        W34417   7.260   4.083  16.032  0.0695  0.1136 -0.0702
18609W        W34418  12.888   2.781   1.944 -0.0627  0.2066 -0.0578
18610W        W34419  16.952  15.696   4.456 -0.0648  0.0177  0.1443
18611W        W34420   1.606   0.728  13.430  0.2633  0.1678 -0.1273
18612W        W34421  12.983   1.562   2.386 -0.3515  0.0215  0.2232
18613W        W34422   3.230  12.544  11.747  0.1521  0.2313  0.1847
18614W        W34423   3.602   8.902  15.072  0.0286 -0.0750 -0.1368
18615W        W34424   8.247  11.736  12.968  0.0112 -0.0486 -0.0472
18616W        W34425   1.166   4.181   2.029  0.2313  0.1930 -0.1077
18617W        W34426   9.670   8.342  11.338  0.0323  0.0588  0.0180
18618W        W34427   0.540  16.438  13.960 -0.1094  0.2539 -0.0877
18619W        W34428   5.124   3.237   4.250  0.0967  0.0957  0.0340
18620W        W34429   4.105   7.496  14.279  0.0195  0.0002 -0.0649
18621W        W34430  11.339  16.982   5.242 -0.4199 -0.1247 -0.0314
18622W        W34431  10.430  16.834   4.886  0.0002  0.0309  0.2576
18623W        W34432  11.060  13.125  12.549  0.2777 -0.1048  0.0428
18624W        W34433   8.736   2.724  15.386 -0.0302 -0.4249 -0.3829
18625W        W34434   2.582  10.186   1.701 -0.1991 -0.1460 -0.1780
18626W        W34435   5.696   4.026  16.079 -0.2923  0.0495 -0.1305
18627W        W34436  16.461   9.799  12.988  0.1507 -0.0641 -0.2438
18628W        W34437  13.848   2.460   3.479  0.0241 -0.1530  0.1673
18629W        W34438   6.062  14.989   2.222  0.2197 -0.0449  0.1622
18630W        W34439   0.164   7.478   5.079 -0.2928 -0.1267  0.0880
18631W        W34440   4.028  13.876   3.933 -0.1206 -0.0846  0.2258
18632W        W34441   9.023  10.420   4.057 -0.3193 -0.0716 -0.0241
18633W        W34442  13.268   8.620  10.803 -0.0813 -0.0167 -0.0102
18634W        W34443  11.627   4.481  15.749  0.0677 -0.0776  0.0647
18635W        W34444  10.879  17.342   4.322  0.2145  0.0856  0.0814
18636W        W34445   3.491  18.151  14.773 -0.2293  0.0536  0.0933
18637W        W34446  18.193   8.622  12.534 -0.0137 -0.1650 -0.0531
18638W        W34447  13.830   9.503   0.661  0.0075  0.0380 -0.0336
18639W        W34448   4.329   2.939   0.828 -0.0254 -0.1153 -0.2116
18640W        W34449   8.086  10.120   2.127 -0.0547  0.2462 -0.0670
18641W        W34450  15.577   1.228  15.364  0.0691  0.0956  0.3132
18642W        W34451   6.672   9.285  15.359 -0.0178  0.4112 -0.0440
18643W        W34452  16.207   9.179   3.620  0.6369 -0.0722 -0.1603
18644W        W34453   9.242   3.847  11.872 -0.0836  0.2632 -0.0853
18645W        W34454   0.566   5.158  14.766 -0.0215 -0.0243  0.1349
18646W        W34455   5.214  14.203   4.722 -0.1188 -0.0723 -0.2609
18647W        W34456   5.143   0.015   0.076 -0.0961  0.3035  0.2035
18648W        W34457  15.778   5.998  13.237 -0.0662  0.0442  0.1577
18649W        W34458  12.081   0.870   1.394  0.4076 -0.2266  0.0874
18650W        W34459  10.129  14.337   1.312 -0.0156 -0.2342  0.0595
18651W        W34460   0.531   3.255  13.816  0.0620  0.1161 -0.2376
18652W        W34461  14.517  17.563   4.187 -0.2452 -0.2578  0.0306
18653W        W34462   1.004   9.444  13.930 -0.1968  0.1213 -0.1616
18654W        W34463  17.275   3.171   1.424  0.0104  0.2815  0.1502
18655W        W34464  11.629  11.306  15.827  0.1608  0.0398 -0.3849
18656W        W34465   2.430   1.690   5.480 -0.2000 -0.1413  0.2874
18657W        W34466   3.123   1.025  12.885  0.1477  0.1128 -0.0824
18658W        W34467  14.915  14.505  12.423 -0.0707  0.1304  0.2712
18659W        W34468  12.296  17.827   2.617 -0.0804  0.1186 -0.1865
18660W        W34469   8.871  17.304  14.514  0.4350  0.4353  0.2210
18661W        W34470  11.648   9.992  15.918  0.3226  0.0996  0.1875
18662W        W34471   3.442   6.414   0.087 -0.0724 -0.0887 -0.0870
18663W        W34472   1.150  13.610  12.449  0.1291 -0.0388  0.0495
18664W        W34473   6.799  16.669  12.659 -0.0388  0.1929  0.1996
18665W        W34474  17.394  15.492  12.669 -0.0078  0.2969  0.1269
18666W        W34475  15.970  15.893   2.512 -0.0708 -0.0151 -0.0958
18667W        W34476   8.967   4.941  11.884 -0.4031  0.1692  0.0808
18668W        W34477  17.244   3.424  13.079  0.0569 -0.0798 -0.0770
18669W        W34478  10.439  18.206   3.752  0.2753 -0.3050  0.1510
18670W        W34479  10.557  16.671   3.696  0.0900 -0.0924 -0.5806
18671W        W34480   0.681  10.311   0.351  0.0075 -0.3166  0.1159
18672W        W34481  17.822   1.978   5.373  0.0131 -0.2495 -0.0421
18673W        W34482  12.399   5.765  13.805  0.0174  0.1182  0.1202
18674W        W34483   1.541   9.632  11.688  0.1644  0.0972  0.1814
18675W        W34484  14.663   0.979  15.132 -0.1967  0.1868  0.1492
18676W        W34485   4.805   5.649  11.916  0.2201  0.0380 -0.1447
18677W        W34486  10.545   2.163  16.104 -0.1583 -0.1220 -0.1526
18678W        W34487  17.669  15.850   1.500 -0.4228 -0.2330  0.0107
18679W        W34488   0.422   2.826  15.147 -0.4117 -0.0757 -0.0939
18680W        W34489   5.394   7.621  11.361  0.2073  0.3946  0.0659
18681W        W34490  14.402  17.886  12.362  0.3953  0.3655  0.1531
18682W        W34491  12.393  11.359   4.047  0.2481  0.4351 -0.1753
18683W        W34492  16.779  10.411   3.563 -0.1917 -0.0839  0.0678
18684W        W34493   4.467   8.789   4.991  0.0475 -0.1816 -0.0189
18685W        W34494   1.532  11.449   4.062 -0.1025 -0.0570  0.1504
18686W        W34495  17.546  10.108  11.112  0.2982  0.0671 -0.1506
18687W        W34496  10.852  15.446  13.315  0.0786  0.0256 -0.0930
18688W        W34497   6.539  13.976  11.521  0.0712 -0.0726 -0.0140
18689W        W34498  16.218  14.395  13.429  0.0063 -0.0644 -0.0130
18690W        W34499   9.457  17.757  13.868  0.3123  0.3398  0.4926
18691W        W34500  14.051   7.235  12.460  0.3391 -0.1915 -0.0198
18692W        W34501   9.355  15.191  16.128 -0.0680 -0.0611 -0.0905
18693W        W34502  10.860  10.182   3.072  0.0268 -0.0857  0.0249
18694W        W34503   5.854   2.263  15.029  0.0322  0.0090  0.2465
18695W        W34504   4.014   9.432  15.864  0.1792 -0.3910 -0.0750
18696W        W34505   6.259  10.834  12.872  0.1307  0.0790 -0.1037
18697W        W34506   5.364   7.860  12.751 -0.3706 -0.1027 -0.0361
18698W        W34507   4.343   6.133   4.642 -0.0654  0.1979  0.0211
18699W        W34508  11.934   5.250   4.313  0.0401 -0.0780  0.1311
18700W        W34509  14.668   2.043   3.728 -0.0048 -0.1818  0.4011
18701W        W34510   6.077  15.667  13.210 -0.2336 -0.0865  0.2465
18702W        W34511   2.873   6.695  14.664  0.3901 -0.0230 -0.1536
18703W        W34512   1.842  16.884   3.080  0.1402  0.1131 -0.0435
18704W        W34513   4.940   7.192  11.877  0.2184 -0.1236 -0.0491
18705W        W34514  15.611  10.186  15.589  0.3498 -0.3690  0.1424
18706W        W34515   4.790   4.805  11.727  0.1981  0.0356  0.2427
18707W        W34516  11.855  11.957   1.373  0.0874 -0.1524 -0.0348
18708W        W34517   2.778   0.574  12.756  0.0567 -0.0255  0.1811
18709W        W34518   3.421  12.702   4.493  0.1746 -0.1878  0.2549
18710W        W34519  12.725  15.826   3.638  0.0322  0.1991  0.2594
18711W        W34520   8.810  12.518   5.473  0.0013 -0.0623  0.0060
18712W        W34521   2.595   7.297   2.149 -0.6338  0.0184  0.0448
18713W        W34522   0.897   9.885  14.990 -0.0155 -0.5152 -0.0269
18714W        W34523   5.163   1.552   2.297  0.0846  0.1194 -0.0729
18715W        W34524   5.553   0.510  12.109 -0.0084 -0.1242  0.1958
18716W        W34525  12.635  10.858  13.055 -0.0641 -0.2021  0.0371
18717W        W34526   3.515  17.709  13.839 -0.1002 -0.0509 -0.2937
18718W        W34527  16.843   2.716   2.249 -0.1266 -0.2048 -0.3196
18719W        W34528   5.489  17.734  11.183  0.2241  0.0092  0.1150
18720W        W34529   5.334  11.871   4.989  0.1531  0.0808  0.0271
18721W        W34530  16.984  12.552   4.095  0.0258 -0.0152  0.0398
18722W        W34531  12.610  14.702   3.053  0.0124 -0.1341  0.0371
18723W        W34532  16.113   7.013  12.094  0.0889  0.3189 -0.1379
18724W        W34533  10.279   3.325  15.042 -0.2012  0.0384 -0.1184
18725W        W34534   4.794   2.109   3.362 -0.1449  0.1140  0.1515
18726W        W34535   6.078   1.895  11.585 -0.0477  0.0973 -0.0117
18727W        W34536  17.453   7.094  12.930 -0.0647 -0.0308  0.1555
18728W        W34537  17.381  15.846  15.054 -0.1075 -0.1040 -0.0576
18729W        W34538  11.192  11.486   1.439  0.1894 -0.1410  0.0735
18730W        W34539   8.126   4.215   2.451 -0.2516  0.0092 -0.1236
18731W        W34540  15.413   8.082   1.937 -0.2093  0.1039  0.1217
18732W        W34541   0.523  14.579   1.794  0.3810  0.0934  0.0715
18733W        W34542   6.857  13.057   2.492  0.1202  0.1491 -0.0512
18734W        W34543   3.156   4.883   4.355  0.3044 -0.3628 -0.2514
18735W        W34544  14.772   1.528   2.824 -0.1330  0.0945 -0.0038
18736W        W34545  10.041   1.921  12.662 -0.0335  0.1151  0.0660
18737W        W34546  11.854   3.044   4.759  0.0062 -0.1039 -0.0765
18738W        W34547  12.094  10.328   0.561  0.1140  0.0157 -0.0654
18739W        W34548  10.192   0.296  13.854 -0.0766  0.1476 -0.4253
18740W        W34549  11.607   4.543  11.343 -0.0184 -0.0082  0.1393
18741W        W34550   3.404   6.254  12.957 -0.0806  0.0025 -0.1261
18742W        W34551  11.456   3.441  14.626 -0.2970  0.1075  0.1435
18743W        W34552  10.375   3.750   0.483 -0.0285  0.1230  0.0992
18744W        W34553   0.960   8.074   0.645  0.0176 -0.0491 -0.0635
18745W        W34554  14.274   2.851   3.552  0.1518 -0.3145 -0.1304
18746W        W34555   7.716   2.666  15.773 -0.1137  0.0569  0.0759
18747W        W34556   4.954  14.091   1.089  0.2035  0.2259 -0.1102
18748W        W34557  12.696   5.478   3.274  0.1631  0.0473  0.2306
18749W        W34558   2.318  13.537  12.375 -0.2072  0.0160  0.0303
18750W        W34559   0.595  13.168   5.580  0.0388 -0.1042 -0.0402
18751W        W34560  14.745   2.475   2.552  0.1136 -0.0622  0.0002
18752W        W34561  13.917   5.535   3.820 -0.0454  0.1731  0.2311
18753W        W34562   5.855   1.250   0.163 -0.1408  0.1590 -0.0160
18754W        W34563  15.805   2.844  15.410  0.3605 -0.0119 -0.2288
18755W        W34564   3.262   0.959  12.375 -0.0701 -0.0001 -0.1899
18756W        W34565   6.964  12.642  12.236  0.2732 -0.1552  0.0535
18757W        W34566  16.815   4.592   4.189 -0.4378  0.0479  0.0689
18758W        W34567   1.224  11.803  12.206  0.0258 -0.1517  0.0170
18759W        W34568   9.287  14.580  16.065 -0.0541 -0.0868  0.1072
18760W        W34569   7.635  14.209  12.229 -0.0379  0.1738 -0.2259
18761W        W34570   1.715  15.420   2.997  0.0489 -0.1675 -0.1384
18762W        W34571  15.330  13.792   5.461 -0.0569  0.0270  0.0980
18763W        W34572   5.612  17.139  14.795 -0.0134  0.1780 -0.0346
18764W        W34573  11.641  10.831  15.694  0.0569 -0.2217  0.0591
18765W        W34574  17.491   5.187   0.455 -0.0213 -0.0448  0.0261
18766W        W34575   9.664  17.609  12.960  0.2156 -0.0095 -0.1818
18767W        W34576  12.146  10.889  13.950  0.0184 -0.1482  0.2935
18768W        W34577  17.820   5.006  12.637  0.0752 -0.3495  0.3638
18769W        W34578  15.460   3.806  13.863  0.3843 -0.1922 -0.2277
18770W        W34579   8.975   1.723   3.437 -0.2395  0.0053 -0.1243
18771W        W34580   1.508   2.061   0.541  0.1296 -0.1104  0.1616
18772W        W34581   6.863  14.770  10.903 -0.1558 -0.2412 -0.0282
18773W        W34582   1.281   6.799  11.822 -0.0257 -0.1196  0.4228
18774W        W34583   5.179   2.638   2.485  0.2977  0.1594 -0.3363
18775W        W34584  11.895  11.458   2.524 -0.1172 -0.1732  0.0901
18776W        W34585   4.324  15.287   0.509  0.2167  0.2279  0.0514
18777W        W34586  13.958   2.403  15.386  0.1644 -0.0729  0.0726
18778W        W34587  15.272   1.947   0.412 -0.0850 -0.0495 -0.1906
18779W        W34588   9.627   9.518  13.930  0.1726  0.0580 -0.0089
18780W        W34589   1.126  13.665  11.317 -0.2409 -0.2533  0.0995
18781W        W34590  16.651  14.497  15.735  0.0835  0.0656  0.0480
18782W        W34591   8.145   4.785  12.313  0.0171 -0.0977 -0.0117
18783W        W34592   5.992  13.065  11.618  0.2042  0.1215 -0.1723
18784W        W34593   4.165  17.706  11.486  0.1335  0.0991 -0.0154
18785W        W34594  10.594   5.494  12.091 -0.1942  0.3095  0.3581
18786W        W34595   6.821   7.905  12.943 -0.4433  0.2510  0.1542
18787W        W34596   9.827   9.454   5.334 -0.2556  0.1865 -0.1741
18788W        W34597  14.242  11.782  13.714  0.0730  0.1082 -0.2920
18789W        W34598  14.604   3.009   3.975  0.0308 -0.2624 -0.0312
18790W        W34599   1.622  10.872  15.192  0.3308 -0.0230  0.0358
18791W        W34600  16.245   0.136   3.085  0.1312  0.2534 -0.2188
18792W        W34601  15.206   6.159   5.234  0.1074 -0.2538 -0.3001
18793W        W34602   3.833   8.174  15.951  0.3883  0.1291  0.1440
18794W        W34603  10.821  10.304  14.570 -0.1529 -0.0506  0.3088
18795W        W34604   7.143  15.351  15.016 -0.2330 -0.3032 -0.0847
18796W        W34605   3.715  18.007  15.655  0.0481  0.0075 -0.1948
18797W        W34606  14.806  11.493   6.076 -0.0934 -0.1400 -0.1245
18798W        W34607  15.224  17.803  16.186 -0.0657 -0.4340  0.1226
18799W        W34608   6.802   4.331  11.007  0.3496 -0.0700  0.0329
18800W        W34609   0.706   3.220  14.317  0.2498 -0.3041 -0.1960
18801W        W34610  12.328   9.598   5.033 -0.1780 -0.2878  0.0245
18802W        W34611   9.216   2.764   3.540 -0.5297  0.0292 -0.2430
18803W        W34612   5.163   9.819   2.066 -0.4015 -0.0291 -0.0365
18804W        W34613  14.610  16.723   2.269  0.1509 -0.0364 -0.3530
18805W        W34614  12.627   6.040   2.882 -0.0515  0.2070  0.0401
18806W        W34615  14.716   2.680  14.147  0.0332 -0.2268  0.0283
18807W        W34616  14.471   6.797  11.543 -0.1817  0.0483 -0.0553
18808W        W34617   7.562   6.921   4.927 -0.0403 -0.0353 -0.0755
18809W        W34618   5.148   8.859   2.023 -0.0182  0.0975 -0.3004
18810W        W34619   1.475  13.246  16.089 -0.1491 -0.3030 -0.1721
18811W        W34620   8.882  16.045  15.237  0.0610 -0.3740 -0.3052
18812W        W34621   5.343   5.534   2.609 -0.0941 -0.1099 -0.2138
18813W        W34622  16.000  14.565  11.089  0.1309 -0.0475 -0.0390
18814W        W34623   0.097   4.613   1.721 -0.1990  0.3364 -0.1774
18815W        W34624   2.657   6.948  11.984 -0.2733 -0.1752  0.1623
18816W        W34625   9.970   1.436  12.563 -0.1966 -0.1365 -0.2073
18817W        W34626   6.020   0.321  10.971  0.1396  0.1104 -0.0432
18818W        W34627  10.906   2.930  12.795  0.1265  0.2290 -0.2501
18819W        W34628  15.194  12.270   5.669 -0.2425  0.1251  0.3084
18820W        W34629  11.510   8.969  11.707  0.0953 -0.2074  0.1010
18821W        W34630   7.610   1.876   4.083  0.1811  0.3006  0.2677
18822W        W34631   9.344  16.194   5.098 -0.2232  0.0793  0.4923
18823W        W34632   3.089   9.104  15.001  0.0926  0.0701 -0.1279
18824W        W34633   1.505   7.106   0.021  0.1576  0.0712 -0.3418
18825W        W34634   6.731  17.482  13.131 -0.0890 -0.2850 -0.3537
18826W        W34635  15.399  13.333   6.133  0.0568  0.0723  0.0303
18827W        W34636   7.694   4.885   1.251  0.4259 -0.0444 -0.0399
18828W        W34637   2.137   5.206  13.250  0.1319  0.1698 -0.1158
18829W        W34638   0.138   2.825   1.351  0.1601 -0.1730  0.2092
18830W        W34639  16.000  11.930  12.778  0.2456 -0.1193  0.2707
18831W        W34640   6.462  14.951   2.862 -0.0619 -0.0587  0.2134
18832W        W34641  17.357  12.915   4.383  0.1406 -0.0796  0.1548
18833W        W34642   7.129   9.495   0.499 -0.1341  0.1313 -0.2347
18834W        W34643   8.506  12.909   5.581  0.0203  0.2174  0.2697
18835W        W34644   8.431   9.396   1.957 -0.2870 -0.0292  0.0141
18836W        W34645   7.582  14.663   1.144 -0.1984 -0.0126 -0.0848
18837W        W34646   7.501  13.847   2.503  0.2574 -0.1212  0.2980
18838W        W34647  16.829   7.650   2.696  0.2263  0.2373  0.0332
18839W        W34648  10.538   8.886  10.910 -0.2001  0.1329 -0.1531
18840W        W34649   5.940  13.969  14.171 -0.2528  0.3613  0.0873
18841W        W34650  13.764  16.361  13.484  0.0273  0.1504  0.2065
18842W        W34651  16.389   1.483  11.831  0.0469 -0.2134 -0.0481
18843W        W34652  12.438   6.020  13.359  0.0015 -0.0362  0.1610
18844W        W34653  16.761   1.083  13.888 -0.0163 -0.1910  0.0705
18845W        W34654  16.229  10.355   2.597  0.1630 -0.0843 -0.0684
18846W        W34655  16.101  15.433   4.663 -0.1416 -0.0291 -0.0353
18847W        W34656  11.413  15.878   0.993  0.0991  0.2266  0.2396
18848W        W34657  13.064   8.921   4.154 -0.1060  0.1129  0.1776
18849W        W34658   0.358   3.398   5.411  0.0308 -0.2165  0.2391
18850W        W34659   0.990   0.081   5.943 -0.2579  0.0667  0.0858
18851W        W34660  18.152  15.240  11.339  0.3529  0.0127 -0.1071
18852W        W34661   3.467  14.703  15.686  0.1591  0.2088 -0.1786
18853W        W34662  16.564   6.506  12.580  0.0308 -0.0338 -0.0943
18854W        W34663   8.353  18.127   1.173  0.1026 -0.0202  0.0188
18855W        W34664  17.918   8.980   2.609  0.1768 -0.1622  0.3963
18856W        W34665  17.394   4.050  15.948 -0.1055  0.0509  0.0927
18857W        W34666  12.458  10.816   1.340 -0.3862  0.0520 -0.1144
18858W        W34667  16.503  12.575  14.532 -0.0395 -0.1179 -0.1416
18859W        W34668  15.733  17.232   6.085  0.1268  0.0678  0.2606
18860W        W34669  15.128   8.415  13.418  0.2106  0.0121  0.0026
18861W        W34670   7.418  16.915  15.040  0.1599  0.0721  0.1329
18862W        W34671   6.883   7.592   0.890 -0.3034  0.1988  0.4006
18863W        W34672  14.455  12.605  11.528  0.2507  0.0859 -0.1985
18864W        W34673   1.001  14.602  15.709  0.1618  0.0737 -0.1813
18865W        W34674   1.835  11.960  13.505 -0.1012  0.3226 -0.2809
18866W        W34675   3.688   0.947  11.460 -0.3913  0.0726 -0.1309
18867W        W34676   6.543  14.717   3.717  0.1182 -0.2217 -0.4817
18868W        W34677   0.552  16.850   0.262 -0.0976 -0.2266  0.3211
18869W        W34678  17.634  13.284   0.603  0.2822  0.1402  0.2492
18870W        W34679   9.182  13.423   2.724  0.0922 -0.4020  0.1569
18871W        W34680   6.010   4.603  16.294  0.0023 -0.2796 -0.2425
18872W        W34681   3.980   8.006  14.817 -0.1710  0.0471 -0.3048
18873W        W34682   4.814   9.778   5.843  0.1452  0.2839  0.3337
18874W        W34683   6.981  16.331  16.238 -0.2422  0.1262  0.0379
18875W        W34684  12.018   4.565   3.865  0.2060 -0.0028  0.1874
18876W        W34685   6.225  10.515  13.885  0.0364 -0.2362  0.0135
18877W        W34686   1.875  12.568   3.005  0.3541  0.0212 -0.0299
18878W        W34687   4.275   0.390   5.762 -0.0610  0.1318 -0.1469
18879W        W34688  16.292   6.001   2.741 -0.6543 -0.1347  0.1451
18880W        W34689  13.456  13.644   1.675  0.0402  0.2839 -0.0192
18881W        W34690   9.222  14.183  15.522 -0.1621  0.1193 -0.1828
18882W        W34691  15.792   3.164   3.805  0.0130 -0.0589  0.0063
18883W        W34692   7.591   8.806  14.519 -0.3377 -0.1144  0.1412
18884W        W34693   0.127   9.436  15.585  0.0649 -0.0392 -0.0790
18885W        W34694  11.938  12.226   0.305  0.1021  0.1030  0.1629
18886W        W34695   5.207   0.832   0.672 -0.2390 -0.1318  0.0178
18887W        W34696   4.724   3.276  12.918 -0.2752 -0.2231  0.1170
18888W        W34697  17.353   6.219  12.132 -0.0045  0.0481 -0.0101
18889W        W34698  16.660   1.725   1.578  0.2437 -0.1954  0.1386
18890W        W34699  13.503   9.771  16.339 -0.2833  0.1409  0.1546
18891W        W34700   3.589   2.612   3.522 -0.1135  0.0029  0.1226
18892W        W34701   2.953   2.063   3.184  0.2710  0.4199 -0.1197
18893W        W34702   0.982  12.920  13.221  0.1261  0.0714 -0.1145
18894W        W34703   8.610  10.925   2.306 -0.1672  0.0943 -0.3954
18895W        W34704  16.149   4.067  12.262 -0.1533  0.0595 -0.3163
18896W        W34705   5.915  12.765  16.255 -0.0704  0.2544  0.3337
18897W        W34706   0.723   4.388  13.342  0.0260  0.0063  0.3349
18898W        W34707  16.487   8.385   0.578 -0.1339  0.1035 -0.0886
18899W        W34708   4.168  11.848   3.491  0.0171 -0.1752 -0.1558
18900W        W34709   0.963  10.198   4.629  0.1158 -0.1433 -0.0978
18901W        W34710   4.044  12.696  11.874 -0.1486 -0.3275 -0.1358
18902W        W34711  10.876   7.972   3.030  0.1683  0.0266  0.1188
18903W        W34712  16.341  11.556   1.848  0.0197 -0.1010 -0.3415
18904W        W34713   4.286  12.383   4.413 -0.1727  0.0998  0.1504
18905W        W34714   8.810   4.694   5.790 -0.3932  0.3443 -0.0581
18906W        W34715  17.241   3.094   2.270  0.1468  0.0601 -0.0848
18907W        W34716   4.724   9.078  14.280  0.0847  0.0348  0.1988
18908W        W34717  11.444   3.468  12.457  0.1652 -0.2487 -0.2295
18909W        W34718  18.186  10.781   0.443  0.3546 -0.1737 -0.1144
18910W        W34719   9.425   6.214  10.915  0.1789 -0.0100  0.0156
18911W        W34720   7.913   0.462  10.936 -0.3284 -0.1665 -0.1443
18912W        W34721   4.303   3.215  12.583  0.1153 -0.0914  0.1316
18913W        W34722   1.393   8.796  11.814 -0.0298  0.1363  0.3273
18914W        W34723  15.506   0.493  14.952 -0.0692 -0.0696  0.2417
18915W        W34724  11.024   2.194  13.435  0.1691  0.3059  0.3367
18916W        W34725   8.237  10.935  14.614  0.1537 -0.1875 -0.0094
18917W        W34726  13.194  12.616   1.619 -0.1565  0.4802  0.1754
18918W        W34727   4.038   8.787   1.552 -0.3455  0.0258  0.0936
18919W        W34728   2.493   2.917  11.217  0.1502  0.2156 -0.0322
18920W        W34729   6.391  14.694   1.762  0.0050  0.3382 -0.0644
18921W        W34730   8.136   1.676  12.152 -0.2284  0.2896  0.2880
18922W        W34731   2.012  14.379   2.610  0.1483  0.0120 -0.0783
18923W        W34732  10.645  14.138  13.386  0.0436 -0.2611 -0.0905
18924W        W34733   3.458  14.163   2.463  0.1661  0.0385  0.5167
18925W        W34734   2.443   4.450  15.248  0.0006 -0.1778 -0.2063
18926W        W34735   5.507  13.060   0.032  0.3246 -0.0971 -0.0659
18927W        W34736   1.971  13.070  15.802  0.1755  0.2597 -0.0787
18928W        W34737   8.978  14.803   2.515  0.2264 -0.1702 -0.1083
18929W        W34738  10.947  14.669  15.831 -0.1522 -0.4729  0.0554
18930W        W34739  17.110  10.994   0.792  0.4151 -0.1005  0.1395
18931W        W34740   1.495   9.332   3.590  0.0586  0.0218 -0.0406
18932W        W34741   3.934  11.061   4.747  0.1644 -0.1891  0.0885
18933W        W34742   1.426   8.973   1.210 -0.0228  0.0407 -0.0532
18934W        W34743   6.685  11.119  10.457 -0.1726  0.2339 -0.0353
18935W        W34744   5.533   9.385  13.387 -0.0064  0.0083 -0.0321
18936W        W34745  16.095   6.106  12.015 -0.1663 -0.0752  0.1598
18937W        W34746   0.359  11.746  15.938  0.0891  0.0145 -0.0960
18938W        W34747   8.664   7.966  12.167 -0.0110 -0.2893 -0.0241
18939W        W34748  12.646  10.430   4.589  0.0807 -0.1413 -0.3291
18940W        W34749   1.465  13.389   0.709 -0.1588  0.0290  0.0291
18941W        W34750   4.883   6.797  15.674 -0.0336  0.1400  0.2737
18942W        W34751   2.220   5.742  14.873 -0.3420  0.1235 -0.3037
18943W        W34752  11.204   2.913   2.575 -0.3972  0.0714 -0.0678
18944W        W34753  10.279  17.187   3.694  0.1569  0.0323  0.1683
18945W        W34754   9.551   2.620   2.621 -0.0866  0.2061 -0.1353
18946W        W34755   1.374  14.636   1.082 -0.0712 -0.0967 -0.0178
18947W        W34756   1.533  11.551  11.065 -0.0441  0.0029  0.1297
18948W        W34757   5.305   4.813   4.163 -0.0109 -0.1443 -0.1438
18949W        W34758  14.904   2.217   4.128  0.0200 -0.1628  0.1098
18950W        W34759  15.137  16.678   2.365  0.1029  0.0510 -0.1279
18951W        W34760  10.838  14.529  14.651 -0.0009  0.0953 -0.1790
18952W        W34761  15.749   5.886   5.621  0.0788  0.2804 -0.3748
18953W        W34762  14.110   7.927   4.954 -0.0493  0.3802 -0.1166
18954W        W34763   6.681  13.858   6.123 -0.4660  0.1981  0.0553
18955W        W34764  10.808   0.248  12.430 -0.3213  0.0196  0.0520
18956W        W34765  10.904  13.394  14.315 -0.0478 -0.0050  0.3276
18957W        W34766   3.179  10.986   3.697 -0.1279 -0.0289  0.1303
18958W        W34767   1.329  15.767   5.146 -0.1159 -0.0168 -0.1650
18959W        W34768  15.318  13.396   1.382  0.2595  0.0628 -0.3408
18960W        W34769  13.372   0.835   5.654 -0.0925  0.0577  0.1258
18961W        W34770  15.729   3.954  13.414  0.2022 -0.1231  0.3559
18962W        W34771  17.288   3.108   0.319  0.1960 -0.3998 -0.2415
18963W        W34772   2.043  12.172   0.116 -0.3234 -0.4696 -0.3661
18964W        W34773   3.808  13.282   5.779 -0.0549  0.0703  0.2046
18965W        W34774  17.596   8.021   1.235 -0.1572  0.0517 -0.1583
18966W        W34775  17.722   6.757   2.859  0.1014  0.1458 -0.1478
18967W        W34776  15.674   1.069   3.208 -0.0996  0.0607 -0.2134
18968W        W34777  15.228   6.407   2.329 -0.1709  0.0815 -0.0865
18969W        W34778   1.156  18.133   4.655  0.3360  0.0210  0.2617
18970W        W34779  16.837   0.492  14.349 -0.1855  0.0585 -0.0775
18971W        W34780  16.731  10.672  13.800 -0.0196 -0.1272 -0.0390
18972W        W34781   1.301   2.540  13.118 -0.1770 -0.4047  0.3044
18973W        W34782   0.050  15.490  12.173 -0.0590  0.0200 -0.3293
18974W        W34783  12.538  18.118   0.513  0.1297 -0.4615 -0.1516
18975W        W34784  14.812   2.465   4.602 -0.1820 -0.0008 -0.0871
18976W        W34785  14.033  12.183  13.446  0.2022  0.0352  0.1477
18977W        W34786  16.158  17.132   6.245 -0.0989 -0.0715 -0.0760
18978W        W34787  17.192  15.373  15.275 -0.0346 -0.2475  0.0646
18979W        W34788   9.911   7.924  14.405 -0.3523  0.0261  0.2208
18980W        W34789  12.425   5.382  11.153  0.2738  0.1040  0.1831
18981W        W34790   3.676  13.425   3.884  0.2243  0.0801 -0.2851
18982W        W34791   2.394   4.953   0.032  0.0867  0.1298  0.1869
18983W        W34792   3.657   1.332   0.780  0.0972  0.2117  0.1029
18984W        W34793   6.034   6.655  11.826  0.0226  0.1334  0.1367
18985W        W34794   7.770   2.292   1.394 -0.0589  0.1349 -0.2197
18986W        W34795  11.831   6.753  14.240 -0.3354  0.0295  0.0199
18987W        W34796   3.929  11.447  15.376 -0.0962 -0.1965  0.0040
18988W        W34797   5.743  10.258  15.162 -0.0336  0.2585  0.0463
18989W        W34798   1.215  11.514  13.056  0.0576 -0.1907  0.0851
18990W        W34799   3.890  16.342  13.192 -0.0769 -0.1620 -0.3395
18991W        W34800   6.982   0.264  12.876 -0.1450  0.1849 -0.2172
18992W        W34801  11.537   6.341   3.591  0.0208  0.2168 -0.2182
18993W        W34802   0.778  15.685   1.553  0.1866 -0.1982 -0.2242
18994W        W34803  17.350  13.314   1.094 -0.1603 -0.0175 -0.0210
18995W        W34804  11.448  10.621   1.096  0.1410 -0.0980  0.2909
18996W        W34805   2.729   0.746   3.053 -0.0736 -0.0545 -0.0129
18997W        W34806  17.361   7.706  15.132  0.0675 -0.0694  0.0072
18998W        W34807   7.247  12.340  10.896  0.1617  0.0219  0.0502
18999W        W34808   1.037   1.852   1.774 -0.1873  0.1442 -0.3111
19000W        W34809  16.806   1.738  12.740 -0.2309 -0.1125  0.0643
19001W        W34810  16.478  16.011   1.352  0.2706 -0.2133 -0.1432
19002W        W34811   0.559   5.473   5.116  0.1129  0.0831  0.0437
19003W        W34812  13.376   2.373  11.300  0.0572  0.1329  0.2065
19004W        W34813   7.626  12.249   5.984 -0.2781  0.1991  0.0596
19005W        W34814  10.247  15.689  12.157  0.1282  0.2895 -0.1633
19006W        W34815  17.634   0.509   5.782 -0.0277  0.1176 -0.0081
19007W        W34816   8.359  16.866  13.940 -0.0250  0.1388 -0.1356
19008W        W34817   4.298   9.349   2.226 -0.0771 -0.1333  0.2195
19009W        W34818  12.200   2.604  16.274  0.0844 -0.2434  0.1141
19010W        W34819   4.416   1.299   5.019  0.1144 -0.0969  0.0147
19011W        W34820   1.970  16.815   5.815 -0.1279  0.0028  0.0309
19012W        W34821  14.072  10.003  15.860  0.0267  0.1541 -0.1892
19013W        W34822   6.204  10.720   2.485 -0.0662  0.3953 -0.0664
19014W        W34823   3.427  16.181   3.271  0.5615  0.1314  0.1829
19015W        W34824   2.026  14.799  11.603  0.0667 -0.0047  0.0699
19016W        W34825   2.099  17.884   3.508  0.0378 -0.1019 -0.2511
19017W        W34826   6.402   7.701  14.279  0.1941  0.0736  0.1185
19018W        W34827   9.378   6.121  13.773  0.0193 -0.0277  0.1566
19019W        W34828   0.991  12.901  14.164 -0.1650  0.4482  0.0871
19020W        W34829   3.037  10.098  12.298  0.2333 -0.0154  0.0277
19021W        W34830  15.669  14.642  15.679  0.2255  0.4373  0.1925
19022W        W34831  17.067   3.083  11.028  0.1077 -0.2056  0.0203
19023W        W34832   1.842  12.063   3.243 -0.2864  0.0963  0.0209
19024W        W34833   9.030  17.622   5.453 -0.1485  0.0847  0.0668
19025W        W34834   0.303   1.959   2.398  0.2186  0.1391 -0.0318
19026W        W34835   6.227  10.961  16.147 -0.0570  0.0386 -0.0381
19027W        W34836  16.126   1.516   4.317 -0.3726  0.1039  0.0813
19028W        W34837   2.514   9.146  14.121 -0.1782  0.1107 -0.1182
19029W        W34838   2.120  17.929  16.363 -0.0549 -0.0003  0.0259
19030W        W34839  11.288  12.800   2.872 -0.2336 -0.1838  0.1260
19031W        W34840   5.474   6.293   0.362  0.2013  0.0333 -0.0045
19032W        W34841   2.574   2.038  13.851  0.1086  0.1268  0.2266
19033W        W34842   7.798  16.240   1.569 -0.0100 -0.2776 -0.3054
19034W        W34843  11.452   9.433   0.724  0.2225  0.0821  0.5601
19035W        W34844   9.432  12.498   0.586  0.2253 -0.0021 -0.1878
19036W        W34845   2.574   8.061  14.980 -0.2682  0.0646  0.0416
19037W        W34846   7.125   0.062   4.794  0.4509  0.3324 -0.0896
19038W        W34847   4.389   9.186  13.970  0.0785 -0.4180  0.3732
19039W        W34848   1.325   4.118  13.513  0.0960  0.2829  0.2007
19040W        W34849  16.183   9.904  13.797 -0.2487  0.1902  0.0974
19041W        W34850  13.687   4.760   5.961 -0.3195  0.0678 -0.3062
19042W        W34851  14.242   9.572  15.193 -0.0387  0.0196 -0.3114
19043W        W34852   3.335  11.718  14.868 -0.1258  0.2483 -0.1867
19044W        W34853  10.236   2.399  14.412 -0.0280  0.0787 -0.1515
19045W        W34854   8.822  11.342  11.814 -0.1008 -0.0227 -0.4151
19046W        W34855   5.625  14.387  13.122  0.0522  0.1611  0.1900
19047W        W34856   7.611  10.630   0.722  0.1067  0.1044  0.0688
19048W        W34857   6.816  16.913  16.175 -0.1870 -0.4078 -0.3159
19049W        W34858  17.015  10.582   2.744 -0.1785 -0.1307  0.0650
19050W        W34859   8.539  10.438   1.806 -0.0850 -0.1157 -0.0878
19051W        W34860   0.955  12.384  10.823  0.1236  0.0252  0.3385
19052W        W34861   6.809  13.038  15.926 -0.0779  0.1932 -0.0132
19053W        W34862   3.515  15.428  12.664 -0.0201 -0.1062 -0.0375
19054W        W34863   5.947   3.124   3.182 -0.1347 -0.1171 -0.2632
19055W        W34864  14.825   3.566  13.232 -0.0653  0.0191  0.1406
19056W        W34865   5.029   4.810  16.242  0.2016  0.0382 -0.1133
19057W        W34866   2.528   9.358  16.229  0.2558  0.2257  0.1832
19058W        W34867   4.453  12.755  11.401 -0.3122 -0.4220 -0.0724
19059W        W34868   7.113  16.131  12.572  0.1254 -0.0840 -0.1832
19060W        W34869   6.224  12.311  11.048 -0.0140 -0.0819 -0.1931
19061W        W34870   6.854   4.703  15.586 -0.2551  0.0359 -0.1863
19062W        W34871  11.171  12.576   5.809  0.0865  0.0526  0.0845
19063W        W34872  14.150   7.063   5.553 -0.1629 -0.0450  0.4277
19064W        W34873  13.743   0.883   1.513 -0.0190 -0.2719 -0.3661
19065W        W34874  11.623   6.048  15.724  0.2619  0.1047 -0.0828
19066W        W34875   9.714  17.943   3.321 -0.0541  0.0375  0.0330
19067W        W34876  13.695  12.289  12.558  0.0876  0.1174  0.0630
19068W        W34877  17.761   9.943   3.614 -0.0743 -0.1934 -0.0942
19069W        W34878  13.110   7.033  15.996  0.0629  0.0162  0.5591
19070W        W34879  15.730   0.091  10.686  0.1513  0.2309  0.2604
19071W        W34880   6.392   0.080  15.931  0.1056  0.0847 -0.0549
19072W        W34881  10.231   9.174   0.026  0.1143  0.1159  0.0934
19073W        W34882  14.989  17.806  12.745  0.1968 -0.2712  0.0845
19074W        W34883  15.697   7.621   2.088  0.1313  0.1510 -0.3751
19075W        W34884   5.455   1.036   1.658  0.0863  0.0775 -0.1810
19076W        W34885  15.758  12.243   1.020 -0.0146  0.3886 -0.3326
19077W        W34886  15.928   4.621   3.743  0.2412  0.1248  0.1885
19078W        W34887   2.165  11.918  11.257  0.0710 -0.1616  0.3937
19079W        W34888   4.902   4.485   5.992 -0.0824  0.2732  0.0246
19080W        W34889   0.830   1.817   3.356  0.2644  0.0337 -0.2026
19081W        W34890  10.058  12.397   5.103 -0.2135  0.1251  0.1277
19082W        W34891   8.967   9.928  12.842  0.2939  0.1090  0.1278
19083W        W34892  11.780  16.053  12.033 -0.1330 -0.0656  0.0178
19084W        W34893  14.052   8.922   3.166 -0.2176  0.3690 -0.0475
19085W        W34894   3.915  13.016   0.572 -0.1771  0.1028 -0.0689
19086W        W34895   2.013   4.443  12.704  0.1001  0.0710 -0.2099
19087W        W34896  16.012  10.551  12.536  0.0499  0.2381 -0.0033
19088W        W34897   8.475   3.741  11.527 -0.1830 -0.1922 -0.2584
19089W        W34898   7.207   3.229   5.123 -0.2664 -0.0625  0.1128
19090W        W34899   8.052  17.629   2.674 -0.0344  0.3220  0.2394
19091W        W34900   0.662  17.835  14.176  0.2235 -0.1663  0.1936
19092W        W34901   1.574   6.326  11.813 -0.1853 -0.4588  0.1021
19093W        W34902   2.114  17.283  16.214  0.1496  0.0373  0.2207
19094W        W34903   3.140  11.123  13.702 -0.1746 -0.1828  0.0438
19095W        W34904  10.134  10.847  14.802  0.0946  0.1712  0.1871
19096W        W34905   0.611  10.870   4.767 -0.0325  0.0892  0.0863
19097W        W34906   3.480  14.727  12.605 -0.0121  0.0875 -0.1186
19098W        W34907   8.718  17.166  12.920 -0.0472 -0.2050 -0.4992
19099W        W34908   2.859   8.128   5.396 -0.0891 -0.2155 -0.0805
19100W        W34909   8.201   4.721   5.431  0.1217  0.2034 -0.1041
19101W        W34910  11.521   8.003  12.703  0.0164  0.1852  0.2214
19102W        W34911  17.315  16.957  16.290 -0.0987  0.1098  0.3188
19103W        W34912   7.628   2.704  14.883 -0.0791 -0.0782 -0.0375
19104W        W34913  10.342   1.711   2.348  0.0921 -0.4089 -0.0157
19105W        W34914  11.658  10.332   1.781 -0.0379  0.4154 -0.1258
19106W        W34915   8.463   3.304   4.870  0.1144  0.0045 -0.0260
19107W        W34916   0.357   2.681  12.986 -0.2856  0.0841  0.1111
19108W        W34917   5.755   4.777   1.275 -0.0746  0.1351 -0.1300
19109W        W34918  16.135   9.711   3.424  0.0506 -0.1486 -0.0740
19110W        W34919   9.069   1.656  13.750 -0.5572  0.0850  0.2522
19111W        W34920   0.155  16.118   0.878 -0.0551  0.1455 -0.1218
19112W        W34921  14.608  10.640   4.877  0.0626 -0.1085  0.1077
19113W        W34922  16.848   8.707   4.671 -0.0492 -0.0174 -0.0208
19114W        W34923   1.819   3.767   5.787 -0.2564 -0.4155 -0.1472
19115W        W34924   3.838   1.591  14.971  0.2160 -0.1923 -0.1967
19116W        W34925  15.772   8.832  15.244  0.1113 -0.2677 -0.1231
19117W        W34926  11.505  16.881  10.177  0.0587  0.1885 -0.0423
19118W        W34927   1.728  14.875   1.318  0.0440 -0.1514 -0.0484
19119W        W34928  18.045   2.043   2.345  0.0615 -0.0873  0.1908
19120W        W34929  14.762   6.807   5.054  0.1010  0.0653  0.0688
19121W        W34930  10.950  12.948  11.676 -0.1630 -0.0923 -0.3070
19122W        W34931   2.354  11.454  15.725 -0.0404  0.1294  0.0233
19123W        W34932  12.468  11.078   3.622  0.2149  0.0006 -0.2298
19124W        W34933  12.568  13.470  13.692  0.3496  0.1418 -0.1532
19125W        W34934  14.873   2.880   3.490 -0.1296 -0.0032  0.1495
19126W        W34935   1.812  16.408   2.206 -0.0837 -0.1887  0.3396
19127W        W34936   7.665  12.113  15.374  0.4342  0.0319  0.1269
19128W        W34937   6.962  15.234   1.134  0.0845 -0.0595  0.1441
19129W        W34938  12.866  13.083   2.893  0.0900 -0.0753 -0.1067
19130W        W34939  11.368   0.263   1.313 -0.3939 -0.1116  0.0100
19131W        W34940  11.794   2.550  15.203  0.5701 -0.0488 -0.1036
19132W        W34941   9.104   3.401  12.805  0.3146 -0.0759  0.0188
19133W        W34942  14.896  16.992   1.436 -0.1556  0.0796 -0.1411
19134W        W34943  17.313   8.558   3.056  0.2328  0.1631  0.2872
19135W        W34944   5.331   8.815  16.277 -0.2450  0.1395  0.0385
19136W        W34945  10.747   2.598  13.717 -0.0579 -0.2814  0.1400
19137W        W34946  18.206   0.066   3.972 -0.0870 -0.0061 -0.1253
19138W        W34947   7.557   9.690  15.467 -0.0813  0.2886  0.0985
19139W        W34948  10.530  17.740  15.974  0.0935  0.1271  0.1339
19140W        W34949  11.124   5.736  13.767 -0.0172 -0.2220  0.2142
19141W        W34950  11.411   7.421   1.758 -0.3712 -0.0039  0.1413
19142W        W34951  14.784   4.955  15.823 -0.0397 -0.3109 -0.1564
19143W        W34952   5.332  11.527  15.973 -0.3371 -0.1512  0.1122
19144W        W34953  12.937  10.316   3.720  0.1626  0.1125  0.1767
19145W        W34954   7.838  11.911  14.034  0.0693 -0.0300  0.1738
19146W        W34955   8.237   8.209  16.337 -0.2333 -0.1284  0.0141
19147W        W34956  14.353  15.964  11.065 -0.2954 -0.1263  0.1750
19148W        W34957  16.200   9.872  16.088  0.0571  0.2251 -0.1499
19149W        W34958  10.489  15.916   1.068 -0.0343  0.0252  0.0942
19150W        W34959  12.598   8.087   3.485  0.1972  0.1206  0.1709
19151W        W34960  14.945  13.710   1.608  0.0504 -0.2027 -0.2302
19152W        W34961   8.079  10.181  12.408 -0.1002  0.2299 -0.1012
19153W        W34962   0.937   4.005   4.667 -0.0925 -0.3053 -0.0200
19154W        W34963  16.103   8.442  12.508  0.0714 -0.1185 -0.0281
19155W        W34964   8.806   4.898  11.194  0.0776  0.2359  0.1507
19156W        W34965   2.505   4.733  14.743  0.0390  0.1579 -0.0024
19157W        W34966  15.962  14.774   1.616  0.2627 -0.0140 -0.2105
19158W        W34967  12.945   1.844  12.751  0.0150 -0.1738 -0.1415
19159W        W34968   3.099  11.407  15.588 -0.1236 -0.0283 -0.3758
19160W        W34969  17.220  13.001   0.523  0.0908  0.0510 -0.0659
19161W        W34970   6.214   6.746  12.789  0.3825 -0.3182  0.1086
19162W        W34971  10.868  17.374   3.604  0.0163 -0.1717  0.3669
19163W        W34972   1.653  16.928  15.228 -0.2975  0.0011  0.4292
19164W        W34973  10.915  10.144   4.325  0.1274 -0.0560 -0.3040
19165W        W34974   2.562  10.556   5.070 -0.1242 -0.0769  0.2218
19166W        W34975  16.470   6.202   3.694  0.1945  0.0578 -0.0180
19167W        W34976   6.385   1.110   1.465 -0.1656  0.4211 -0.2545
19168W        W34977   3.852   4.213   2.027 -0.0497  0.4381  0.0649
19169W        W34978  12.744   0.079  14.328  0.0789 -0.1225 -0.0633
19170W        W34979  12.164  12.283  12.613  0.0210 -0.0539  0.0892
19171W        W34980   8.505   3.137  12.280 -0.1089 -0.2201  0.1796
19172W        W34981   1.096   2.287   3.247  0.1755 -0.0954  0.2695
19173W        W34982   6.231   4.584  13.728  0.0227  0.2918  0.1564
19174W        W34983  12.700  17.174   4.639  0.4139 -0.2110 -0.2013
19175W        W34984   0.476   0.142  14.928 -0.1247  0.3423 -0.1979
19176W        W34985  15.320  16.958   1.115  0.0026 -0.1321  0.0995
19177W        W34986  11.439   9.492  15.146  0.0645  0.2482  0.1718
19178W        W34987   3.218   3.655  14.945  0.3039 -0.1627  0.3256
19179W        W34988   0.921   6.570  13.533  0.1959 -0.2450 -0.2240
19180W        W34989   4.397   7.798  12.943 -0.0518 -0.0810  0.0565
19181W        W34990   9.338   6.924   3.575  0.1048  0.1538  0.1911
19182W        W34991   5.049   3.728   4.444  0.0049  0.1615 -0.1899
19183W        W34992   7.549   2.982  12.458 -0.0499 -0.1296 -0.0096
19184W        W34993   5.382   7.786   2.488 -0.3717 -0.3552  0.0207
19185W        W34994  17.041   1.741   3.823 -0.1693 -0.1138  0.0071
19186W        W34995   2.356  10.365   4.621  0.3328  0.0981 -0.0066
19187W        W34996   9.095  12.265  11.084 -0.0076  0.5009 -0.4743
19188W        W34997  18.195   4.789  13.475 -0.1200 -0.1429 -0.1012
19189W        W34998  10.283   8.335  11.770 -0.4152 -0.2353 -0.2536
19190W        W34999  15.381   5.671  13.873 -0.0121 -0.0598  0.2536
19191W        W35000   7.997   6.021   4.770  0.1173 -0.0371 -0.4283
19192W        W35001  13.717  15.109  15.862 -0.0635 -0.0873 -0.0206
19193W        W35002   6.496   4.195   2.194 -0.2543 -0.0134  0.3048
19194W        W35003   7.860   3.727  14.272 -0.0666 -0.0557  0.4331
19195W        W35004   3.469  16.971   2.832 -0.0811 -0.0747 -0.0614
19196W        W35005   1.760   8.157   0.765  0.1512 -0.1312 -0.2291
19197W        W35006   7.197   7.483  14.374  0.0163 -0.5101  0.2870
19198W        W35007   0.727  14.855   0.527  0.4072  0.1286 -0.0055
19199W        W35008   3.330   8.881   3.943  0.0614 -0.0163  0.3462
19200W        W35009   0.108   5.984  14.267  0.0385  0.2576  0.0519
19201W        W35010   5.341  12.027  16.008 -0.1530 -0.2210  0.0495
19202W        W35011   7.348   8.604  16.269 -0.0253  0.1414 -0.2464
19203W        W35012   4.622   7.541   1.784  0.0407 -0.1782 -0.0601
19204W        W35013  13.581   7.120  12.505 -0.0104  0.0579  0.1714
19205W        W35014   2.377  15.153  10.883 -0.1126 -0.5137  0.1319
19206W        W35015  14.807   0.482   3.083  0.1700  0.1623  0.2271
19207W        W35016   3.979  12.975  13.545  0.1879  0.2340 -0.1155
19208W        W35017   0.292  14.735  12.156  0.2560 -0.2891  0.1937
19209W        W35018  18.188   2.902  11.801 -0.1140  0.0455 -0.2905
19210W        W35019   7.379  14.320   0.374 -0.0036  0.0872 -0.0383
19211W        W35020  13.463   6.188   3.338 -0.0169  0.1916  0.0467
19212W        W35021   0.012  10.665   3.494  0.0433  0.1200 -0.0990
19213W        W35022  15.583   7.092  12.210  0.0350  0.2958  0.0786
19214W        W35023  13.695   5.327  12.683  0.1287 -0.2935  0.0704
19215W        W35024   4.258   1.788   4.792 -0.1138  0.0674 -0.3314
19216W        W35025  13.877   2.716   2.550  0.4105  0.3262 -0.1924
19217W        W35026  11.912   3.361  12.807  0.0548  0.2488 -0.1615
19218W        W35027  17.309  13.549  13.209 -0.2424  0.0207  0.0386
19219W        W35028  10.651  12.037  16.032  0.0551 -0.2647  0.0028
19220W        W35029   1.509  13.232  14.842 -0.2363  0.0537 -0.0909
19221W        W35030  11.166   1.572  13.193  0.2289 -0.2217  0.1388
19222W        W35031   0.517   6.591   3.127 -0.0309  0.0489 -0.1413
19223W        W35032  11.165   3.968  12.617 -0.0611 -0.0025 -0.4985
19224W        W35033   9.624  16.099  11.657  0.1236  0.0674 -0.0970
19225W        W35034   9.150   2.918  15.095 -0.0232  0.0564  0.1568
19226W        W35035   5.230   9.733   5.543  0.2408  0.1213 -0.0456
19227W        W35036   0.445   8.612   0.450  0.2835  0.0393  0.0140
19228W        W35037   6.072   9.283  12.706  0.1137  0.3639  0.0891
19229W        W35038  10.611  15.994  12.262 -0.0212  0.2819 -0.1479
19230W        W35039   5.309   7.014  15.802  0.2107  0.0290  0.0477
19231W        W35040  12.377   6.839  13.392  0.1491  0.0878 -0.2211
19232W        W35041  12.129   4.447  14.060  0.0629 -0.0634 -0.1626
19233W        W35042   5.086  14.936  16.249 -0.0787  0.2413  0.0582
19234W        W35043   3.165   0.178   2.620  0.1546 -0.1298 -0.0366
19235W        W35044  13.933   6.188   2.408 -0.3179 -0.2022  0.2985
19236W        W35045  13.039  17.114   5.839  0.0351 -0.1204 -0.0534
19237W        W35046  12.117  10.157   1.646 -0.0488  0.0283  0.0147
19238W        W35047  15.406   9.706   1.850  0.4729  0.0402  0.2597
19239W        W35048   8.551   9.502  15.732 -0.4315 -0.0019  0.0382
19240W        W35049  18.182   1.796   4.991 -0.2048  0.1578  0.2263
19241W        W35050  13.113  11.115  16.026 -0.1746 -0.0337 -0.1287
19242W        W35051  10.578   9.005   1.876 -0.2408 -0.0496 -0.3225
19243W        W35052   2.791   1.429  11.215  0.2095  0.0050 -0.1020
19244W        W35053  13.198  12.906  15.898  0.0636 -0.1585  0.0083
19245W        W35054   6.280   5.209   2.200  0.2037 -0.1384  0.0338
19246W        W35055  16.443  17.131  11.386 -0.1190  0.0362 -0.0630
19247W        W35056  15.380  12.083  11.759 -0.0215 -0.1179 -0.1352
19248W        W35057  14.308  14.336  14.679 -0.0704  0.0871  0.1804
19249W        W35058  10.317   1.136   3.596  0.1002 -0.0837 -0.2417
19250W        W35059   4.639  10.463   3.134 -0.0019 -0.1516 -0.0225
19251W        W35060   6.147   7.130   0.135 -0.0690 -0.1690  0.1905
19252W        W35061   7.495  18.130   3.582 -0.1600 -0.0187  0.4226
19253W        W35062   3.001   7.955   1.123 -0.4026 -0.1140  0.0687
19254W        W35063   9.631  17.485  10.481  0.2143 -0.0059 -0.0192
19255W        W35064  10.243  11.812   4.327  0.1731  0.0450 -0.1686
19256W        W35065  11.351   6.668  15.163  0.1052 -0.2913  0.1030
19257W        W35066   7.284   6.954   3.913  0.0211 -0.4443 -0.0251
19258W        W35067   4.490  11.441  12.424 -0.1303  0.0417 -0.1494
19259W        W35068   2.963   5.003  11.223 -0.0074  0.0696 -0.1128
19260W        W35069   2.613   5.072   0.479 -0.4653  0.1837 -0.2100
19261W        W35070   4.348  16.690   2.458 -0.0188 -0.0214 -0.1943
19262W        W35071   2.224   2.719   4.290 -0.2311 -0.1343 -0.2470
19263W        W35072  17.170   9.296  10.563  0.1539  0.1992  0.0860
19264W        W35073   7.961   8.330  13.084  0.2964  0.2748 -0.1942
19265W        W35074   2.206  12.258   1.053 -0.3751  0.2540 -0.0392
19266W        W35075   4.496   2.766   2.275  0.0930 -0.0836 -0.2065
19267W        W35076  11.192   0.757   5.281 -0.2303 -0.1011 -0.2682
19268W        W35077   6.387   8.896  14.199 -0.0732  0.2656  0.3558
19269W        W35078   2.300   1.503  12.629  0.2007 -0.1843  0.0649
19270W        W35079  11.176   9.417  15.673 -0.1791 -0.2285  0.0672
19271W        W35080   6.927  14.512  13.102 -0.0044  0.0932 -0.1488
19272W        W35081  14.460   6.886  16.306  0.4330 -0.2116  0.4918
19273W        W35082  13.248  17.088  15.634  0.1342  0.2689 -0.0147
19274W        W35083  16.586  14.499  10.813 -0.1555  0.1968 -0.2078
19275W        W35084   4.789   3.302   4.636  0.1944  0.0236 -0.2472
19276W        W35085  13.197  12.011   2.945 -0.0190 -0.0288  0.2935
19277W        W35086   0.898   9.839   3.965 -0.0471 -0.0283  0.3605
19278W        W35087   7.397   7.113  16.062 -0.3211  0.0671  0.0008
19279W        W35088  12.200  12.850  12.845 -0.3590 -0.3267 -0.0246
19280W        W35089  11.602   7.892   1.444 -0.0761  0.2498  0.1345
19281W        W35090  16.092  10.182  14.232 -0.0731  0.0190  0.2882
19282W        W35091  10.649  13.051   4.219 -0.0706 -0.0996  0.1215
19283W        W35092  11.573  12.543  12.449 -0.2833  0.1073  0.3609
19284W        W35093   7.945   6.025  13.915 -0.1892  0.2939  0.0967
19285W        W35094   7.879  10.309   1.213 -0.1041  0.2758  0.1240
19286W        W35095   7.037   4.314   1.527 -0.0329  0.0111 -0.0199
19287W        W35096   8.117   6.541  13.888  0.2159 -0.1024  0.0630
19288W        W35097  10.447  14.407   1.825  0.1195 -0.0383  0.1078
19289W        W35098   1.629  10.387   1.995 -0.0543 -0.2522  0.0111
19290W        W35099   6.979   4.045   4.654 -0.0250  0.3674  0.2278
19291W        W35100   2.310  11.372   3.262  0.2852  0.0524  0.1500
19292W        W35101   4.920   6.174  14.438 -0.0064 -0.1116 -0.3673
19293W        W35102   0.152  13.375  12.847 -0.0100  0.1192 -0.0734
19294W        W35103  14.962  16.684  13.991 -0.0175  0.5338  0.1720
19295W        W35104   3.464  10.923  12.455  0.0361  0.2274 -0.4525
19296W        W35105   4.929   9.406  14.599  0.1180 -0.1039 -0.1257
19297W        W35106   6.007   2.646   2.259  0.1238 -0.1926 -0.3564
19298W        W35107  12.681   9.272   1.892 -0.1207 -0.1325 -0.0842
19299W        W35108  13.706  16.011  16.109  0.2012  0.2748  0.2761
19300W        W35109  18.103   2.503  13.782 -0.0482 -0.1341 -0.1168
19301W        W35110   7.762   4.607   5.830  0.0282  0.0769 -0.3913
19302W        W35111   8.956   6.710   3.302 -0.0565 -0.0787 -0.0735
19303W        W35112  16.383   0.282  12.791  0.3963 -0.0336 -0.1254
19304W        W35113  17.410  11.350  15.367  0.2790 -0.1541  0.2822
19305W        W35114   1.409   9.003   5.048  0.5626 -0.1710  0.1525
19306W        W35115   2.698   4.985  15.147 -0.3915  0.1092  0.0053
19307W        W35116   6.783   3.174  12.719 -0.0865 -0.0125  0.0133
19308W        W35117  16.780  11.619  12.545  0.1386 -0.1074 -0.0950
19309W        W35118  16.662  15.248   1.903 -0.0053 -0.4088 -0.0604
19310W        W35119   4.337   8.151  13.247  0.3134  0.1362  0.0662
19311W        W35120  18.118   1.043   0.862 -0.1715 -0.2994 -0.1393
19312W        W35121  15.122   3.716  15.219  0.0012 -0.2827 -0.2925
19313W        W35122   1.904  16.990  12.919 -0.1885 -0.2651 -0.1098
19314W        W35123  10.233   1.687  15.885  0.1698  0.0354 -0.0879
19315W        W35124   9.838  12.856  16.326 -0.0769 -0.0716  0.3366
19316W        W35125   4.906   0.596   1.034 -0.3029  0.1331  0.3007
19317W        W35126  16.423  12.225  16.002 -0.1914 -0.0503  0.3751
19318W        W35127   5.135   9.382   0.340 -0.1865 -0.0146 -0.1275
19319W        W35128  16.337  16.587   3.970 -0.0716  0.1738  0.0407
19320W        W35129   7.982   2.400  14.774  0.1585  0.0688  0.1975
19321W        W35130  17.551   2.665   4.849 -0.1179 -0.3486  0.1475
19322W        W35131   6.158   7.303   4.028  0.2176 -0.4367  0.1578
19323W        W35132   9.060  18.019   3.424 -0.1016 -0.3421 -0.0143
19324W        W35133   5.595   3.376  11.260  0.0063 -0.1852  0.1876
19325W        W35134  11.517   7.137  12.424  0.1586  0.2307  0.1527
19326W        W35135   0.408  11.935  14.939  0.2595 -0.0992  0.0922
19327W        W35136  16.874   8.507   1.220 -0.0338  0.2269 -0.1321
19328W        W35137   4.964   5.511  14.957  0.0489 -0.0815  0.0342
19329W        W35138  16.784  15.310   4.692 -0.2125 -0.0972  0.0121
19330W        W35139   2.747   0.122  11.971  0.0697 -0.4260 -0.4069
19331W        W35140   0.424  13.263   3.360 -0.0502  0.0155  0.1817
19332W        W35141  15.516   8.290  15.796 -0.2119  0.2351  0.1452
19333W        W35142   6.893  17.560   4.385  0.1073  0.3525 -0.0722
19334W        W35143   3.674   9.335   3.059 -0.3783 -0.3730  0.0836
19335W        W35144   9.923   2.724  16.218  0.0191 -0.1062  0.2511
19336W        W35145   5.070   9.631   5.002  0.1272 -0.4592  0.0004
19337W        W35146  15.707  14.717   5.495  0.0872 -0.3318 -0.0770
19338W        W35147   1.467  15.841  12.625  0.1804 -0.1093  0.0045
19339W        W35148   7.296   8.033  16.248 -0.3147  0.3070  0.1834
19340W        W35149  13.508  12.327   2.806 -0.1536  0.0581  0.3883
19341W        W35150   1.937   7.002   6.371 -0.0338 -0.1337  0.0583
19342W        W35151   4.677  15.950  12.017  0.0695 -0.0128 -0.3391
19343W        W35152  17.821  13.881  15.940 -0.2566 -0.0471 -0.2247
19344W        W35153  15.438  16.259  15.450 -0.1145  0.1339 -0.2080
19345W        W35154   0.001   3.019   6.689 -0.0766  0.0274 -0.2130
19346W        W35155   8.323   8.644   2.867  0.0637 -0.1224 -0.2891
19347W        W35156  13.014   7.256   2.258  0.1231  0.1204  0.1685
19348W        W35157  17.696   6.917  14.093 -0.1996 -0.0325  0.1354
19349W        W35158  11.537   8.311  13.071 -0.3460  0.1769  0.2920
19350W        W35159   4.319  13.072   0.291 -0.1737  0.1981  0.4315
19351W        W35160   6.518  13.069   3.533 -0.1209  0.0933  0.3100
19352W        W35161  11.074   9.511  14.332 -0.2682  0.0009  0.1805
19353W        W35162   4.110  17.934  11.976 -0.1087  0.1891  0.2694
19354W        W35163  16.251   7.021  12.611 -0.0593  0.0980 -0.0185
19355W        W35164   3.349   8.900  12.288 -0.0510 -0.2497  0.0359
19356W        W35165  17.663   4.685  13.543 -0.1455  0.1295 -0.0404
19357W        W35166   8.520  11.646   0.137  0.2273  0.1765  0.2889
19358W        W35167   2.006  18.080  11.157 -0.3532 -0.2920  0.2286
19359W        W35168   5.029   0.092   4.060 -0.0551 -0.0321 -0.1385
19360W        W35169  15.716  12.739   0.930  0.2662  0.0078 -0.0640
19361W        W35170  17.703   2.366   3.785 -0.1064  0.0855  0.2924
19362W        W35171  14.321   1.946   0.749  0.1131 -0.0137 -0.0271
19363W        W35172   9.681   7.254   3.381  0.3175 -0.2765 -0.1089
19364W        W35173  17.342   2.134   5.226  0.1769 -0.1996  0.0465
19365W        W35174  13.019   7.754   0.394 -0.0252 -0.1658  0.1440
19366W        W35175   8.123   9.382  11.633 -0.1161 -0.0172  0.0760
19367W        W35176   1.722  16.955  12.036  0.3017 -0.0758 -0.1587
19368W        W35177   8.198   4.120  13.589  0.1746  0.0863 -0.0976
19369W        W35178   2.604   5.986  16.211  0.0960 -0.2961 -0.2378
19370W        W35179   3.415  17.438  14.236 -0.2381  0.0022  0.2933
19371W        W35180   6.549   6.516  13.151  0.4489  0.0474 -0.3044
19372W        W35181   8.264  12.553  13.009 -0.0869 -0.1052  0.2179
19373W        W35182  11.218  11.894  10.066  0.1154 -0.3011  0.1665
19374W        W35183   8.399  16.097   2.866 -0.1682 -0.1557 -0.0197
19375W        W35184  11.558  11.816   1.687  0.0930 -0.0057 -0.3657
19376W        W35185  11.851  10.514   4.977 -0.1466  0.2095  0.3664
19377W        W35186   0.255   7.834  11.943  0.1314 -0.0659 -0.2694
19378W        W35187  14.447   1.915   3.320 -0.1316  0.2554  0.2643
19379W        W35188   6.742  10.866  13.176  0.2128 -0.1657 -0.1920
19380W        W35189   2.268   6.859   4.489 -0.3521 -0.2647  0.0265
19381W        W35190   2.510  17.834   4.413 -0.1909  0.3626 -0.2531
19382W        W35191  11.878   2.288   2.259  0.4318 -0.1124  0.2689
19383W        W35192  12.859  15.868   5.748  0.0598 -0.2855  0.1840
19384W        W35193   3.598   2.881   3.031 -0.1779 -0.1673 -0.2251
19385W        W35194  12.321  16.644   3.489 -0.0431 -0.4363 -0.2808
19386W        W35195   4.435   5.801   1.324 -0.0613  0.3149 -0.1340
19387W        W35196  13.254   8.503  14.959  0.5519 -0.0058  0.2342
19388W        W35197   4.991  16.502   0.232 -0.0144  0.0243  0.1190
19389W        W35198   9.699   3.948   0.688 -0.1826  0.3129 -0.1238
19390W        W35199   7.095   5.602  15.865 -0.2442 -0.1688 -0.0455
19391W        W35200   6.415   5.559  11.437 -0.1239 -0.3303 -0.0137
19392W        W35201   9.791  12.525   2.767 -0.0652  0.0705  0.0943
19393W        W35202  12.277  13.563   3.672 -0.0254  0.0786  0.2805
19394W        W35203  15.909   8.692  12.114  0.0363  0.3554  0.2951
19395W        W35204   9.374  11.551   2.754 -0.1232  0.3477 -0.1716
19396W        W35205  17.745  12.919  11.422 -0.1817 -0.3139  0.1391
19397W        W35206   3.509   2.317   0.897 -0.3921  0.0441 -0.1241
19398W        W35207   6.920   0.652   3.782  0.0288 -0.0729  0.3569
19399W        W35208  17.527  16.700  14.048  0.1125  0.0645  0.3382
19400W        W35209  10.551   0.598  13.296  0.1113  0.1064 -0.1141
19401W        W35210   3.466  13.074  14.440  0.0355 -0.3170 -0.1469
19402W        W35211  12.138  15.987  13.779 -0.0247  0.0824  0.0635
19403W        W35212  15.519   4.893  11.775  0.2347  0.0216 -0.1717
19404W        W35213  11.356  16.902  13.263 -0.0338 -0.0020 -0.2439
19405W        W35214   7.791   1.555   1.792 -0.0137 -0.0955 -0.1827
19406W        W35215   0.600  13.212  13.066 -0.1914 -0.1406 -0.0319
19407W        W35216   6.280  17.596   2.070  0.2062  0.2081 -0.2962
19408W        W35217   7.246   0.991   5.741  0.2072 -0.1016 -0.0431
19409W        W35218  13.805   6.803   4.803 -0.1196  0.0792 -0.1776
19410W        W35219  13.311   5.452   5.683 -0.1803  0.0567 -0.1897
19411W        W35220   6.631   4.684   1.228  0.2974  0.1822  0.1281
19412W        W35221  16.362  13.049  14.794  0.1531 -0.3024  0.1088
19413W        W35222  11.680  16.815  13.971 -0.3243  0.2308 -0.2268
19414W        W35223  16.156  11.748   2.713 -0.2481 -0.4157  0.1564
19415W        W35224   9.186   7.816   3.529 -0.1069  0.4130 -0.2644
19416W        W35225   0.730  17.022   2.778  0.1211 -0.0216  0.3124
19417W        W35226   1.990  10.291  13.510 -0.0663  0.1018  0.0382
19418W        W35227  15.700  18.004  11.201 -0.1561  0.0355 -0.0472
19419W        W35228  11.845  16.559  13.001  0.1247 -0.1278  0.0697
19420W        W35229   1.710   0.734  11.567  0.1060  0.2178 -0.2516
19421W        W35230   8.002   5.450  13.901 -0.0125 -0.0822  0.3652
19422W        W35231   9.233  11.333  14.796 -0.0669  0.0778  0.2232
19423W        W35232  15.353   0.067   0.577  0.0275  0.0591 -0.0139
19424W        W35233   2.768   2.421   5.682 -0.0761  0.1432 -0.0111
19425W        W35234  14.069   9.616   1.727 -0.2123 -0.1574 -0.0107
19426W        W35235   5.151   1.816  10.933 -0.3588  0.0559 -0.3572
19427W        W35236  15.878  17.099   3.586  0.0870  0.1562 -0.1751
19428W        W35237   2.027  17.270   4.419 -0.2882  0.0895  0.0918
19429W        W35238   8.281  13.908   0.108 -0.4590 -0.0006  0.0523
19430W        W35239  14.993   3.055  12.243 -0.0021 -0.3578 -0.1329
19431W        W35240   4.879   7.253  15.342 -0.1924 -0.1388 -0.0658
19432W        W35241  13.812   7.293  12.899 -0.0314  0.2638  0.1524
19433W        W35242   5.935  15.912   4.286 -0.1014 -0.2717  0.1283
19434W        W35243   6.468   1.079   2.927  0.1564  0.0733 -0.2236
19435W        W35244   0.215   7.090  14.526 -0.1391 -0.1460 -0.2038
19436W        W35245   4.647  11.102  11.462 -0.1293  0.0850 -0.1757
19437W        W35246   4.586  11.062   0.199  0.0883 -0.0417 -0.3004
19438W        W35247   7.004   4.716  11.257  0.2562  0.2049 -0.0516
19439W        W35248   3.250   9.469   6.185 -0.1916 -0.1703  0.0577
19440W        W35249  10.707   6.247   0.150  0.1473 -0.3514 -0.0786
19441W        W35250   5.271   3.888   3.906  0.1360 -0.0077  0.0662
19442W        W35251  10.344  11.539  15.459  0.0780 -0.1866  0.0890
19443W        W35252   1.638  13.587  15.129 -0.2314 -0.2419  0.1805
19444W        W35253  17.872   4.740  14.846 -0.0104 -0.1844 -0.0496
19445W        W35254  17.221  12.803   1.876  0.0355 -0.1515  0.1377
19446W        W35255   6.366   0.375   4.566 -0.3223 -0.2272 -0.1338
19447W        W35256   7.107  10.773   4.531 -0.0714 -0.1152 -0.0140
19448W        W35257  15.422  17.272   3.640  0.0004 -0.2686 -0.2154
19449W        W35258   2.318   7.683   3.917 -0.1998 -0.2304  0.2428
19450W        W35259   5.304   6.495   2.321 -0.1420 -0.1076 -0.2032
19451W        W35260   8.736   3.898  11.138  0.1884  0.0199  0.0447
19452W        W35261  10.894  16.846   1.601  0.3309  0.3518  0.0608
19453W        W35262   4.699   3.285   3.902 -0.0492 -0.0089 -0.0686
19454W        W35263   6.097   5.664  14.191  0.0332  0.1955 -0.2797
19455W        W35264  14.302   4.952   1.544 -0.0116 -0.0825 -0.1111
19456W        W35265   0.714  11.089  14.265  0.2661  0.1261  0.0297
19457W        W35266  17.034   2.616   0.273  0.3095  0.1981 -0.1457
19458W        W35267  17.497   8.110  11.235 -0.0724  0.1690  0.0394
19459W        W35268   2.196   1.075   4.575 -0.2342  0.3766 -0.1167
19460W        W35269  17.715  15.760   2.281  0.0621 -0.1255 -0.2105
19461W        W35270   3.857  11.470   0.105 -0.2535  0.2387 -0.2006
19462W        W35271   2.310  12.275   3.532  0.0143  0.1582  0.1925
19463W        W35272   3.555  14.377  14.492 -0.2023 -0.3487 -0.0261
19464W        W35273  13.432  17.929   1.074  0.2050 -0.0975 -0.1365
19465W        W35274  15.361  15.138  13.489 -0.2657 -0.0009 -0.1356
19466W        W35275   7.316   3.926  13.955 -0.1552 -0.1765 -0.1371
19467W        W35276   0.578   1.788   4.394  0.1859 -0.2722 -0.0697
19468W        W35277  14.836   1.617  11.940 -0.0839  0.3278  0.2023
19469W        W35278   6.446   2.233   0.890 -0.1523  0.0763 -0.0386
19470W        W35279   1.146   3.104  14.511 -0.0492  0.1973 -0.0795
19471W        W35280  12.004  14.134  15.114  0.2543  0.1366 -0.1359
19472W        W35281  12.860   9.064  12.610  0.0949  0.0847 -0.3147
19473W        W35282  13.518   1.885  11.984 -0.0461  0.1975  0.0650
19474W        W35283  17.479   4.544   6.120  0.1135 -0.1609 -0.5580
19475W        W35284   8.115  16.832  13.186  0.0185  0.0129 -0.2865
19476W        W35285   8.439   8.293  10.138 -0.0313 -0.0039 -0.1079
19477W        W35286  13.658  12.786   0.734  0.0379  0.0303  0.0502
19478W        W35287  10.054  10.622   4.989  0.0424 -0.0190 -0.0158
19479W        W35288  15.706  13.711   3.158 -0.2033 -0.1776  0.0539
19480W        W35289   7.288  13.508  11.530 -0.0078 -0.1423  0.1778
19481W        W35290  11.701  10.825  14.934 -0.0333  0.0599 -0.2252
19482W        W35291   8.543   8.631   1.536  0.0903 -0.2489 -0.0095
19483W        W35292   7.708   1.782  11.079 -0.1240 -0.3549  0.2997
19484W        W35293  16.011   8.136  15.826 -0.0332 -0.1189 -0.2262
19485W        W35294  11.930  14.666  15.012  0.0708  0.1038 -0.2174
19486W        W35295  11.288  16.349   2.538 -0.0387 -0.1411 -0.2300
19487W        W35296   4.153  13.336  11.949  0.0863  0.0279  0.0250
19488W        W35297  17.003   4.495  16.328 -0.1682  0.0720 -0.1752
19489W        W35298   4.288   2.231  15.590 -0.1706  0.1901 -0.1965
19490W        W35299   8.120   3.219   2.563 -0.1649 -0.1921 -0.0880
19491W        W35300   1.260   6.282  12.168  0.0228 -0.3944 -0.2191
19492W        W35301   7.562   8.663   5.586 -0.0983  0.0683  0.0168
19493W        W35302  10.545  11.066   4.217 -0.2929 -0.0697  0.0170
19494W        W35303   5.366   7.925   1.123 -0.2921 -0.1584  0.0627
19495W        W35304   0.628   1.565   1.532  0.0034 -0.1098 -0.0412
19496W        W35305  11.851   4.751   1.140  0.0044 -0.1332  0.1967
19497W        W35306   6.650  15.222  15.771  0.1300 -0.0173  0.0733
19498W        W35307  17.005  15.590   2.176  0.0494 -0.0019 -0.3662
19499W        W35308  15.254   2.933   6.473 -0.0266 -0.1684 -0.1464
19500W        W35309   4.878  11.176   1.180 -0.0275 -0.1153 -0.1812
19501W        W35310  15.822   0.848   4.954 -0.0149  0.1925  0.2615
19502W        W35311  10.519   2.223  13.383  0.1132  0.0284  0.2694
19503W        W35312   9.774   9.543   1.812 -0.0451 -0.1908  0.2440
19504W        W35313   3.955   5.387   2.634 -0.2123 -0.0695  0.1557
19505W        W35314  13.990  18.027   1.997 -0.0038 -0.4482 -0.1108
19506W        W35315   3.860   5.436  11.779  0.1671 -0.1803  0.0826
19507W        W35316  16.528  11.213  15.918 -0.1197 -0.0168 -0.0435
19508W        W35317   4.691   6.303   0.983  0.0856 -0.0805 -0.3493
19509W        W35318  15.195  16.261  13.907  0.1349  0.0378 -0.2779
19510W        W35319   3.855   8.114   4.671 -0.0633 -0.3291  0.0674
19511W        W35320   4.741  17.447   4.912 -0.1222 -0.0304 -0.2822
19512W        W35321   2.871  12.613  13.121  0.4267 -0.0344 -0.0192
19513W        W35322   3.912   0.798   3.797 -0.3018  0.1849 -0.0628
19514W        W35323   6.076   3.582   1.961  0.0361  0.0682  0.1029
19515W        W35324   5.670  11.358   3.274 -0.0732  0.2505 -0.1092
19516W        W35325   3.086   0.607   0.500  0.1150 -0.1531  0.2922
19517W        W35326  10.666  10.678   0.357  0.0451 -0.0203 -0.2387
19518W        W35327   0.509   4.383   1.611  0.1371  0.1170  0.0315
19519W        W35328  15.922  17.919  11.637 -0.1083  0.1527 -0.1220
19520W        W35329   1.825   7.591   4.967  0.1395 -0.0842  0.0718
19521W        W35330   4.317  11.978  12.428 -0.1052  0.3457 -0.2265
19522W        W35331  10.993  10.281   0.312 -0.1728 -0.1034 -0.1498
19523W        W35332  13.080   1.463  14.081  0.2754  0.0175 -0.0288
19524W        W35333  10.662   4.391   1.018  0.1612  0.1427 -0.0990
19525W        W35334   2.320  11.267  13.899  0.0799 -0.0605  0.1239
19526W        W35335   1.760  14.097  12.122  0.0679  0.1135 -0.2280
19527W        W35336  16.402  17.973  11.511 -0.0957 -0.0904  0.1263
19528W        W35337   8.887   4.005  12.277  0.0181 -0.1128 -0.2245
19529W        W35338  15.867  10.204  11.107 -0.0842 -0.0119 -0.1092
19530W        W35339   2.939  13.619  12.702 -0.0864 -0.3120 -0.0842
19531W        W35340   7.319   5.300  12.524 -0.0789 -0.0583  0.0029
19532W        W35341   2.321  13.704   0.749  0.1821  0.3626 -0.1256
19533W        W35342  11.469  14.070  15.206 -0.0979  0.0747  0.2498
19534W        W35343   8.730   3.502  14.337  0.0048 -0.3651 -0.2500
19535W        W35344  14.417  15.651   3.715  0.0058  0.0901  0.2164
19536W        W35345  10.702   3.873  12.150 -0.0026 -0.0044 -0.0100
19537W        W35346   5.207   7.663  14.506  0.1207 -0.2343 -0.2053
19538W        W35347  15.096   0.317  16.198 -0.0687  0.0170 -0.3584
19539W        W35348  13.818   0.334   1.977  0.1515 -0.0181  0.2458
19540W        W35349   3.491   1.145  16.073  0.3237  0.1760  0.0169
19541W        W35350   1.415  15.627   0.892  0.0500  0.0346 -0.3917
19542W        W35351   0.082   5.854   2.789 -0.0550  0.0233  0.1016
19543W        W35352  16.467   5.824   6.382  0.0516 -0.0132  0.1633
19544W        W35353   0.222  11.851  14.315  0.1021  0.1536  0.0349
19545W        W35354  13.849   4.312   2.625  0.4083 -0.0020 -0.0102
19546W        W35355  13.995  17.617   4.181 -0.2342  0.0682 -0.3449
19547W        W35356   2.401   5.203  15.533  0.0133 -0.2505 -0.2636
19548W        W35357   2.393   3.846  12.604 -0.0525  0.0604  0.0348
19549W        W35358  16.866   3.344   0.515 -0.0327 -0.0085  0.1147
19550W        W35359   1.010   4.840  13.990  0.2458 -0.4602  0.1339
19551W        W35360   0.577  15.961  14.235 -0.0551  0.1326  0.1561
19552W        W35361   0.119   9.265   2.519 -0.0067 -0.0749 -0.0170
19553W        W35362   8.081   2.037  15.126  0.0963 -0.2599  0.2003
19554W        W35363   3.652   8.002   0.528 -0.0399 -0.1223 -0.0682
19555W        W35364   2.507  17.217   1.198  0.0844 -0.0091  0.1108
19556W        W35365   3.904  10.622  12.476  0.1074 -0.3644 -0.0397
19557W        W35366  18.218  14.860  12.939  0.0805 -0.1059 -0.1111
19558W        W35367   2.223  13.843   3.690 -0.0249  0.1626  0.1881
19559W        W35368  16.840  10.100  12.614  0.2124  0.0873 -0.0153
19560W        W35369   8.103   7.835  13.925  0.0057  0.1502  0.2432
19561W        W35370  11.253  11.007  13.332 -0.1231 -0.1613  0.3209
19562W        W35371  17.680   2.653   2.568 -0.1826  0.2025 -0.0103
19563W        W35372  10.038   4.089  14.950  0.0681  0.2723 -0.4305
19564W        W35373   1.929   4.938  12.462  0.1546  0.0416  0.0023
19565W        W35374   7.458   9.414  15.969  0.1054  0.1439 -0.2342
19566W        W35375  15.785   3.781   4.559  0.1294 -0.2608 -0.4378
19567W        W35376   6.834   7.475  12.689  0.1282  0.3369 -0.2645
19568W        W35377  15.547  11.239  14.589  0.0385 -0.1199 -0.2155
19569W        W35378   6.003  16.744   4.331  0.0674 -0.3656 -0.0994
19570W        W35379   1.167  15.160  14.334  0.1788  0.2611 -0.0700
19571W        W35380   0.402   8.928   4.778 -0.2253  0.0041 -0.0794
19572W        W35381  13.635  10.834   3.217  0.0156 -0.3006  0.0779
19573W        W35382   9.406   8.753  16.055  0.0403 -0.1195 -0.1115
19574W        W35383   2.432  13.578   4.063  0.1166  0.1831  0.1644
19575W        W35384  16.322  15.209   1.072  0.0369  0.0688 -0.0776
19576W        W35385   5.772   3.916  13.357 -0.0575 -0.1360 -0.3483
19577W        W35386  15.675  12.797  15.142  0.0539 -0.1547 -0.3646
19578W        W35387   0.834  17.553   2.100 -0.0662  0.0152  0.0554
19579W        W35388  16.244   1.050  14.127 -0.1565 -0.3134 -0.2743
19580W        W35389   2.402  12.415   0.530  0.3807 -0.2127 -0.0997
19581W        W35390  12.342   3.181  13.603 -0.0640 -0.0491  0.0635
19582W        W35391  13.603  14.933   3.894 -0.1159 -0.0292  0.0332
19583W        W35392  16.754  12.348   3.071 -0.2798  0.1526 -0.0003
19584W        W35393   0.789   4.520   3.387  0.3062  0.0280  0.0336
19585W        W35394   9.063   2.779   0.001 -0.0167  0.1898  0.0714
19586W        W35395   9.793   2.724   9.712 -0.1075 -0.2453  0.1672
19587W        W35396  15.912   2.667  13.221  0.0423 -0.1392 -0.2216
19588W        W35397   9.254   9.331   1.551  0.0711 -0.1237 -0.4094
19589W        W35398   1.367   9.212  15.699  0.0467  0.0475 -0.1956
19590W        W35399  10.757   7.419  15.977  0.1753  0.0766  0.1808
19591W        W35400  14.641   8.236   0.494 -0.1389 -0.1597  0.1154
19592W        W35401  12.901  17.586   5.531 -0.2940  0.1811 -0.2722
19593W        W35402   3.942   2.550  13.260  0.1350  0.2458 -0.1825
19594W        W35403   7.101  10.126  16.280  0.1204  0.1226  0.2947
19595W        W35404  10.270  11.905   5.726  0.1580  0.0760  0.0458
19596W        W35405  16.914   8.951   2.272 -0.1178  0.0496 -0.1055
19597W        W35406  13.963   1.992  14.041  0.1942 -0.1021  0.0107
19598W        W35407   8.404  15.908   1.092 -0.0941  0.2527 -0.1825
19599W        W35408   9.202   8.399   1.065 -0.0703 -0.2346  0.2950
19600W        W35409   1.159   2.623  14.949  0.1213 -0.0928 -0.1088
19601W        W35410  13.476  10.766   1.330  0.0676  0.3800  0.0146
19602W        W35411   4.471  11.538  14.265 -0.0472 -0.3004  0.2365
19603W        W35412   1.744  11.898  12.937 -0.2317  0.4544  0.0053
19604W        W35413   7.490  16.491   1.351 -0.0005 -0.1243 -0.1104
19605W        W35414  12.005   9.847   1.180  0.0691 -0.0074 -0.1730
19606W        W35415  10.278   4.352  10.923 -0.0380 -0.1229 -0.0979
19607W        W35416   0.033   1.883  12.562  0.0715  0.4502 -0.2857
19608W        W35417   2.813   9.008   0.597 -0.0757  0.0434 -0.1655
19609W        W35418   8.997  10.252  15.309  0.3114  0.1083 -0.1353
19610W        W35419  14.443  17.904  14.991 -0.2014  0.0155  0.1807
19611W        W35420  11.585   2.424  15.671 -0.1566  0.1849 -0.2663
19612W        W35421   3.708   7.690  14.552  0.0118 -0.1369  0.5313
19613W        W35422  11.770  10.477   4.147 -0.1690  0.0314 -0.2153
19614W        W35423  16.725   9.559   4.074 -0.2598  0.0228 -0.0528
19615W        W35424  11.294  11.608  15.343  0.1437  0.0442 -0.2629
19616W        W35425   3.768   0.622   4.816 -0.0062 -0.5278  0.1111
19617W        W35426   9.222  11.650   1.846 -0.3237 -0.0174  0.1029
19618W        W35427  17.067   9.576  12.698  0.3558 -0.0316 -0.0049
19619W        W35428  15.941   9.689  13.017 -0.0754 -0.2457 -0.0975
19620W        W35429   2.974  17.934   1.114 -0.0324  0.0670 -0.1079
19621W        W35430   2.708   9.882  14.354 -0.2602  0.0877 -0.0635
19622W        W35431   5.864   6.317   3.336 -0.2532 -0.0269  0.1134
19623W        W35432  18.083   4.211   5.130  0.3131 -0.3862 -0.0663
19624W        W35433   5.994   3.627   3.952  0.0022 -0.1139 -0.2604
19625W        W35434  17.865  17.786   4.182  0.0483  0.0115  0.1160
19626W        W35435   3.422   4.011  12.698  0.0012 -0.2013  0.0502
19627W        W35436   9.363   5.052  12.847  0.1082  0.3419  0.5276
19628W        W35437   7.012   7.515   1.391  0.1358  0.1393  0.3114
19629W        W35438   0.030  15.647   0.854 -0.2452 -0.3366 -0.1194
19630W        W35439   4.134  16.246   3.638  0.2075 -0.0546 -0.2040
19631W        W35440   8.661   5.133  14.873 -0.0709 -0.1278  0.0373
19632W        W35441   3.927  17.655  12.814  0.2653 -0.0616  0.2106
19633W        W35442   5.756  15.149  11.132 -0.4409  0.1795  0.1500
19634W        W35443   7.064  14.929  11.398  0.4624  0.1783 -0.4762
19635W        W35444   2.833   9.324   2.571  0.0969  0.2750  0.0781
19636W        W35445   7.769   3.166  12.021  0.1454 -0.1037  0.0006
19637W        W35446   7.238   3.734   3.231 -0.1723  0.1484 -0.0045
19638W        W35447   5.741   0.147   3.914 -0.1309 -0.1019 -0.0125
19639W        W35448  16.817  16.517  16.094  0.2457  0.1069 -0.1953
19640W        W35449  12.905  13.480  15.796  0.2929  0.2139 -0.0944
19641W        W35450  16.649  17.906   1.875 -0.2720  0.1221 -0.2248
19642W        W35451   2.668   8.544   1.607 -0.1885 -0.0336 -0.3232
19643W        W35452   9.910   3.585   1.401 -0.2291 -0.0186 -0.3819
19644W        W35453  14.279   3.542  13.385 -0.1884  0.0794  0.1012
19645W        W35454  14.217   7.598   2.694  0.0217  0.4476  0.0683
19646W        W35455   2.340   0.891  12.807 -0.1567  0.0143  0.0987
19647W        W35456  10.083  10.862  16.124  0.0791  0.1281  0.4071
19648W        W35457   7.278   1.494  16.036  0.0790 -0.0268  0.1407
19649W        W35458  15.586   1.365  13.699 -0.0694 -0.2975 -0.1651
19650W        W35459  10.967   9.537  16.172  0.0219 -0.1267 -0.4148
19651W        W35460   3.013   2.944  14.398  0.1887  0.1073 -0.0665
19652W        W35461   8.186   4.215  14.169 -0.2570 -0.2190  0.1583
19653W        W35462   1.349   6.572   2.175  0.1337 -0.0699 -0.0238
19654W        W35463   2.288  14.752  13.202 -0.0741  0.0874  0.2459
19655W        W35464  10.605   6.248  11.343  0.1549 -0.1186  0.3647
19656W        W35465   1.244   0.407   2.183 -0.2761 -0.0987  0.1375
19657W        W35466   5.427   1.114  14.274 -0.0316  0.0313  0.3247
19658W        W35467   6.458   8.653  11.941  0.0352 -0.0740  0.1514
19659W        W35468  12.701  18.192  16.364 -0.2722 -0.2660  0.0455
19660W        W35469  14.704   9.463   3.408  0.0884 -0.2135 -0.1598
19661W        W35470  10.998  10.391  14.027 -0.0256  0.3950 -0.3425
19662W        W35471   6.162   0.138   2.081 -0.0067  0.3825 -0.1335
19663W        W35472   5.814  16.282   3.691 -0.0149 -0.1423 -0.0032
19664W        W35473   1.503   5.348   2.243  0.2371  0.2083  0.2454
19665W        W35474  16.917  10.768   5.711 -0.3666 -0.0463  0.0233
19666W        W35475  17.533   2.146   4.728 -0.0179  0.1651  0.0010
19667W        W35476  12.848  15.441   2.838 -0.2365 -0.1892 -0.1042
19668W        W35477   5.330  10.099   5.120  0.0710  0.2135  0.2499
19669W        W35478   1.638   9.642  15.662  0.3984  0.2162 -0.2053
19670W        W35479   0.074   5.345   1.174 -0.2686 -0.4174  0.0447
19671W        W35480  17.841   1.051  15.787  0.0212 -0.1193  0.0257
19672W        W35481   6.071  11.084   0.272  0.0571  0.0554 -0.2394
19673W        W35482   3.271   1.085   0.556  0.2118  0.1879  0.3634
19674W        W35483  12.070  17.397  13.225 -0.1009  0.0540  0.0890
19675W        W35484   6.145   5.705  12.152 -0.0082 -0.2656  0.1738
19676W        W35485   2.293   7.544   3.189 -0.0639  0.1143 -0.2143
19677W        W35486  12.727  15.414  12.618 -0.0242 -0.1438 -0.2291
19678W        W35487  14.168  13.052  13.650 -0.2204 -0.2352  0.0930
19679W        W35488  12.462   6.582  15.386  0.1232  0.2802  0.0577
19680W        W35489  11.183  11.276  14.847  0.5941  0.1153 -0.3986
19681W        W35490   6.337   1.065  15.749 -0.1026 -0.1622 -0.1885
19682W        W35491  10.314   8.349   1.266 -0.1561  0.0079 -0.0518
19683W        W35492  11.391   6.494  14.392  0.0659 -0.1122 -0.0236
19684W        W35493  12.997  15.464  13.923  0.1676  0.0877  0.1018
19685W        W35494   0.513   4.935   4.930 -0.0180  0.2427 -0.0101
19686W        W35495   7.800  14.329  13.393  0.1006  0.1178  0.0964
19687W        W35496   1.781   7.918   3.791  0.0962  0.1635  0.0415
19688W        W35497  10.220   7.133  16.115 -0.0932  0.3028  0.2304
19689W        W35498  16.468  13.419   6.167 -0.0465 -0.0425  0.0662
19690W        W35499   0.029   1.685  14.243 -0.0128  0.3145 -0.0358
19691W        W35500   4.060  17.991   4.568  0.0678 -0.3343  0.3886
19692W        W35501   1.232  16.189   2.398  0.2167 -0.0365 -0.2060
19693W        W35502   3.887  15.845  11.004  0.1529 -0.1965 -0.0891
19694W        W35503   6.140  12.166  14.412 -0.1089 -0.1326 -0.0032
19695W        W35504  13.292   8.718   2.928  0.1362 -0.0835 -0.2657
19696W        W35505  11.345   6.100  15.281 -0.0238 -0.0703  0.1352
19697W        W35506   7.807   9.892  15.901 -0.1822 -0.3048 -0.0991
19698W        W35507   2.173  10.923   3.505 -0.1244 -0.0914 -0.1846
19699W        W35508   6.489   1.570  11.686 -0.0197  0.1396  0.1424
19700W        W35509   4.686   0.488   3.882  0.1463 -0.0180 -0.1456
19701W        W35510   0.041   6.316   0.083  0.0813  0.0873 -0.1694
19702W        W35511  12.614   9.813  16.279  0.2644 -0.1314 -0.2368
19703W        W35512  12.812   5.704  15.508  0.0019 -0.0257 -0.2887
19704W        W35513   3.462   9.250   1.952 -0.3572  0.0593  0.2050
19705W        W35514   0.050   0.948  11.897 -0.2787 -0.1538  0.1064
19706W        W35515  13.936  14.761   1.278 -0.1209  0.3251 -0.0160
19707W        W35516   9.390   2.309  11.636 -0.0642 -0.0820 -0.1570
19708W        W35517   8.686   0.678   5.524  0.5085  0.3618  0.0087
19709W        W35518  11.114  10.783  10.713  0.3882  0.1409  0.0937
19710W        W35519   5.526  13.382   2.074  0.3537 -0.1077  0.2907
19711W        W35520   2.230   0.317  11.426 -0.0292  0.1295 -0.2418
19712W        W35521   9.936  10.482   0.126  0.0656 -0.2327 -0.3592
19713W        W35522   5.570  12.819   1.831 -0.0950  0.1678  0.3480
19714W        W35523  13.230   0.161  12.681 -0.1194  0.1461 -0.2266
19715W        W35524  14.287   1.639   3.796 -0.0667 -0.3259  0.1404
19716W        W35525   8.133  10.962   2.536 -0.2821  0.1934 -0.3434
19717W        W35526  15.233   5.498  14.887 -0.1261 -0.0219  0.0293
19718W        W35527  14.700  16.316   3.193 -0.2047 -0.0362  0.2015
19719W        W35528  16.584  10.880  16.314  0.1547 -0.0185 -0.0528
19720W        W35529   3.826  14.495   4.734 -0.3477 -0.1866 -0.0175
19721W        W35530   0.635  12.564   0.217 -0.0037 -0.2108  0.1846
19722W        W35531   0.181  17.631   5.569 -0.1128 -0.0246 -0.2891
19723W        W35532   8.215   1.893  12.574  0.0922 -0.1722  0.0752
19724W        W35533   3.040  14.500  14.055 -0.2230  0.0311  0.1453
19725W        W35534  11.619   7.775   4.401 -0.4945 -0.0553 -0.0469
19726W        W35535  15.649  18.051  13.417  0.1052  0.1173  0.1671
19727W        W35536   9.067   6.013   0.888  0.2513 -0.1560 -0.2395
19728W        W35537   7.176   0.775  13.912 -0.1101  0.3951  0.1068
19729W        W35538  17.317  10.181  15.904 -0.0503  0.0908 -0.1844
19730W        W35539  11.121   7.857  14.981 -0.0581  0.0946  0.0763
19731W        W35540   4.667   0.378  15.170 -0.3442  0.1104  0.2411
19732W        W35541  14.048  13.776  12.390 -0.0391  0.0751  0.1717
19733W        W35542   2.516   0.398  12.363  0.0271  0.1175 -0.0788
19734W        W35543   6.454  16.315  11.146 -0.4318 -0.0072  0.0097
19735W        W35544  11.155   8.881   3.144  0.0373  0.1107  0.1557
19736W        W35545  14.368   3.582  14.606 -0.0829 -0.0184 -0.3797
19737W        W35546  10.024   2.273   2.677 -0.2235  0.1591 -0.3456
19738W        W35547   2.960  10.384  14.701 -0.1187 -0.0679 -0.0135
19739W        W35548  15.405  15.596  11.511 -0.0665  0.2102 -0.0386
19740W        W35549   0.211  11.416   1.271  0.1582 -0.1512  0.0434
19741W        W35550   8.076   6.775  16.155  0.2883 -0.0829  0.2444
19742W        W35551  16.104  10.965  11.628  0.2063 -0.0416  0.0596
19743W        W35552   3.277   4.813   3.460 -0.0867  0.0374 -0.0123
19744W        W35553   6.500   5.806   3.614 -0.0535  0.2103  0.1934
19745W        W35554  14.610  11.778   2.313  0.0440 -0.3940 -0.0488
19746W        W35555   6.324   7.998   2.189 -0.2459  0.2476  0.2062
19747W        W35556   9.679   8.499   1.719 -0.0138 -0.1358  0.1568
19748W        W35557  10.214   8.399  13.630  0.1161 -0.2758  0.0917
19749W        W35558   1.218   7.226   5.325  0.0272  0.0051 -0.0599
19750W        W35559   4.973  16.997   2.180 -0.0644  0.0065  0.0580
19751W        W35560  17.465   6.205   0.735 -0.2394 -0.0633 -0.1250
19752W        W35561   9.195  17.571   4.223  0.1675 -0.0904 -0.0669
19753W        W35562  11.508  12.740   1.942 -0.1338  0.2792 -0.1985
19754W        W35563  14.479  16.250   2.460  0.2101  0.0863  0.1913
19755W        W35564   1.763   8.600   1.109 -0.3048  0.1427  0.1021
19756W        W35565   1.580   9.604  13.989  0.2680  0.1669  0.0501
19757W        W35566  12.010  14.917   4.132  0.0412 -0.1742  0.0007
19758W        W35567   2.568   9.893  11.961  0.0125 -0.0822 -0.3491
19759W        W35568  11.401  16.546   1.604 -0.2981 -0.1361 -0.2932
19760W        W35569   1.042  13.988   0.307  0.1292 -0.3591  0.0495
19761W        W35570  11.101  12.630  11.206  0.0333 -0.1019  0.4160
19762W        W35571   3.866   2.085  13.047  0.2539  0.2061 -0.1523
19763W        W35572  18.056  11.163  12.280  0.1652  0.2111  0.2342
19764W        W35573  16.330  16.311  10.833  0.0952 -0.0641 -0.3360
19765W        W35574   5.236  15.179  12.655 -0.1521 -0.1900 -0.0972
19766W        W35575   3.270  17.649   0.793  0.1922 -0.2307  0.1599
19767W        W35576  13.165  16.643  15.853 -0.1295 -0.1512  0.0691
19768W        W35577   2.822  10.496   2.850  0.3065 -0.0466  0.1369
19769W        W35578  13.656   1.922   1.532 -0.1759 -0.0634 -0.3433
19770W        W35579  17.964   3.249   3.984 -0.0320  0.0878  0.3732
19771W        W35580   6.870   3.402  12.300  0.0166  0.0118 -0.1584
19772W        W35581  17.006   3.914   0.476 -0.2768 -0.0418  0.0323
19773W        W35582   6.176   6.103   2.422 -0.1026 -0.0453  0.3965
19774W        W35583   1.014   3.311  12.643  0.0858 -0.0236  0.0234
19775W        W35584   5.497   0.494   3.518 -0.0172 -0.2306  0.2062
19776W        W35585   1.908   8.447   1.591  0.2252  0.0157  0.1970
19777W        W35586  16.666  15.077  13.425 -0.1174  0.0893 -0.0938
19778W        W35587   8.248  17.413   0.412  0.2962 -0.2485 -0.2224
19779W        W35588   9.570   1.127  10.794  0.0786 -0.0542  0.1815
19780W        W35589  13.399   3.297   1.075 -0.0505 -0.1041 -0.2522
19781W        W35590   1.920  13.664   4.553 -0.0623 -0.0846 -0.0828
19782W        W35591   2.803  12.069   4.998  0.1206 -0.0453  0.0147
19783W        W35592  15.537  16.511  14.984  0.1474 -0.2396 -0.0895
19784W        W35593   8.289   5.230  12.523  0.0152 -0.0388 -0.0609
19785W        W35594  12.902   0.482  15.194 -0.3450 -0.1288  0.0731
19786W        W35595  17.726  13.332   4.161  0.0347 -0.1268  0.2404
19787W        W35596  12.356  14.718   2.113  0.1125  0.0913 -0.1287
19788W        W35597  17.162   1.073   5.323  0.1755  0.4224  0.2942
19789W        W35598  16.860   6.101   5.386  0.1024 -0.1292 -0.1320
19790W        W35599   7.458   3.155  11.562  0.1017  0.0789  0.0891
19791W        W35600   6.105  11.761   1.898 -0.1095  0.1390 -0.0308
19792W        W35601  15.094  16.403   4.670 -0.0288  0.0514  0.0050
19793W        W35602  13.606  13.295  12.378 -0.0365 -0.0518  0.1024
19794W        W35603  11.083   3.294  11.040  0.1247  0.0264  0.0492
19795W        W35604   8.720   2.030   3.853  0.1955  0.1168  0.1115
19796W        W35605   6.280  13.619  14.104 -0.1072 -0.1043 -0.0013
19797W        W35606  17.652  10.586  12.955 -0.2410 -0.1038  0.1582
19798W        W35607   2.291  12.066   1.472  0.0670 -0.2984  0.0818
19799W        W35608   5.195  13.600   1.605  0.0285 -0.0490  0.1330
19800W        W35609   9.927  17.258  14.484  0.2763 -0.1070  0.1353
19801W        W35610   6.663  17.303   4.882  0.0010  0.2652  0.2494
19802W        W35611   8.347   7.781   3.675  0.3288 -0.0484  0.1367
19803W        W35612  16.246   9.416   4.055 -0.4403  0.0039 -0.2086
19804W        W35613   0.748   6.766   2.711  0.1360  0.4812  0.0019
19805W        W35614   2.435   1.158  13.269  0.1382 -0.0336  0.2566
19806W        W35615  17.162  14.791  16.117  0.2105 -0.0928 -0.2716
19807W        W35616   2.161   4.043   5.501  0.0857 -0.1050  0.0484
19808W        W35617  15.207  13.844   3.158 -0.0692 -0.2639 -0.2857
19809W        W35618   6.236  13.070   1.377 -0.2076 -0.4149  0.3154
19810W        W35619   9.450   7.399   4.344 -0.4454 -0.1072 -0.0671
19811W        W35620   0.978   0.940   3.463  0.3390 -0.3942 -0.1960
19812W        W35621   4.418  16.464  12.203  0.0698  0.3256 -0.1325
19813W        W35622  11.683   0.833   1.037 -0.3131 -0.0954 -0.2094
19814W        W35623  17.552  11.967  11.595 -0.0392  0.0322 -0.1152
19815W        W35624   1.570  16.149   3.009 -0.0961 -0.2971  0.0024
19816W        W35625   2.716  10.691   4.428 -0.0667  0.0894  0.0780
19817W        W35626   0.397  12.725  15.718  0.4087 -0.0482  0.1865
19818W        W35627   1.347  17.423   3.796 -0.1159  0.0829  0.1121
19819W        W35628  14.616   0.307   1.685 -0.0544 -0.1899  0.2334
19820W        W35629  12.254  13.675   2.368  0.2982  0.2186  0.0440
19821W        W35630   1.678  18.109   5.314 -0.1369 -0.0636  0.0612
19822W        W35631  16.529   1.314   5.832  0.1624 -0.0167 -0.1623
19823W        W35632   1.026  10.333   6.193 -0.2275  0.1162 -0.0076
19824W        W35633  10.947   1.241  15.896 -0.4819  0.3047 -0.3652
19825W        W35634  15.250   0.994   3.430 -0.2056 -0.1083  0.0401
19826W        W35635   8.084   4.039  16.244  0.1688 -0.0119 -0.2534
19827W        W35636  16.812  15.010  13.940  0.0348 -0.0443 -0.0996
19828W        W35637  18.137   3.033   0.408 -0.3060 -0.4772 -0.4419
19829W        W35638  12.201  18.063  16.306  0.0827  0.2534 -0.1080
19830W        W35639  12.765   7.559  11.691  0.0471 -0.2421  0.0003
19831W        W35640   1.001   7.347  16.284 -0.1437  0.0106  0.1362
19832W        W35641   0.730   9.615  12.739 -0.3358 -0.2006 -0.1391
19833W        W35642  15.894   8.327  13.972  0.0186 -0.1686 -0.0621
19834W        W35643  13.078  17.051   2.352 -0.1750 -0.1431  0.0725
19835W        W35644   7.188   9.193  13.297  0.2898  0.0647  0.1747
19836W        W35645  16.593   3.412  11.844  0.0446  0.1408  0.1007
19837W        W35646  10.174  11.166  13.883 -0.2340 -0.1611  0.0326
19838W        W35647  13.151   1.099  11.708 -0.0135 -0.2824  0.2889
19839W        W35648   9.782  13.204   4.944  0.2108  0.0150  0.3146
19840W        W35649   6.577  15.707  13.696 -0.1308  0.0587 -0.0907
19841W        W35650  13.609  12.665  14.784 -0.0124 -0.3397 -0.2042
19842W        W35651   4.827   7.937  13.096 -0.0587 -0.0476 -0.0553
19843W        W35652  17.324  10.331   0.054 -0.1868  0.0655  0.1822
19844W        W35653   7.282   6.738  13.817 -0.0931 -0.2634  0.3733
19845W        W35654   9.150   6.265  11.879  0.1201 -0.0893  0.0041
19846W        W35655   0.463  15.881   0.151 -0.2099 -0.2725 -0.3179
19847W        W35656  16.754   8.066   0.856  0.0273 -0.0962 -0.0360
19848W        W35657   0.524   8.041   3.195 -0.1509  0.1401 -0.1729
19849W        W35658   0.181  14.042  13.480  0.0145  0.1043  0.0402
19850W        W35659   7.371   5.462   4.623  0.2648 -0.1046  0.0658
19851W        W35660   9.019   7.686   0.401 -0.3590  0.2546 -0.2167
19852W        W35661  17.312  14.288   5.835 -0.1038 -0.2659 -0.0052
19853W        W35662  10.756   7.990   1.347  0.0979 -0.1359 -0.0562
19854W        W35663  15.565   6.889   2.394 -0.2573  0.1013  0.1454
19855W        W35664  13.018   4.397  14.487 -0.1403 -0.1004  0.1934
19856W        W35665   4.369   9.533   5.625  0.0083  0.0540 -0.0250
19857W        W35666  17.099   4.968   1.417 -0.2123  0.1553  0.0971
19858W        W35667   6.336  12.787  13.198  0.3552  0.0008  0.1253
19859W        W35668  13.003   5.609   2.885 -0.1610 -0.2254  0.0378
19860W        W35669  16.312  11.567   0.442 -0.0129  0.4460 -0.3357
19861W        W35670   6.761  12.413  13.997 -0.1883 -0.3396  0.2502
19862W        W35671  11.228  16.164  14.681 -0.1667 -0.0348 -0.3414
19863W        W35672   5.849   7.043   4.628  0.0713  0.0934  0.1255
19864W        W35673   4.998  14.907   0.859  0.2823  0.2202 -0.2044
19865W        W35674   3.509   8.828  12.747 -0.1315  0.1550  0.0294
19866W        W35675  15.361  17.097   2.029 -0.1384  0.0634  0.0938
19867W        W35676   6.295   0.814   3.959  0.3582  0.3266 -0.1270
19868W        W35677  16.203  16.785  14.570  0.1166  0.1912  0.1452
19869W        W35678   8.021  16.831   1.910 -0.2616  0.0872 -0.3841
19870W        W35679   4.589   7.056   1.656 -0.0522 -0.2487  0.1836
19871W        W35680   7.434   7.264  12.648  0.1244  0.0538 -0.1238
19872W        W35681   8.694  17.644   0.516  0.1194 -0.0616 -0.2595
19873W        W35682  14.845   7.598   0.601  0.1469 -0.1780 -0.3489
19874W        W35683  11.299  18.137  11.629  0.0407 -0.0607  0.2875
19875W        W35684  12.626  17.971  12.049 -0.2469  0.1695 -0.0544
19876W        W35685  13.059  18.093   3.389 -0.2090 -0.3815 -0.1652
19877W        W35686  11.964   7.250   0.005  0.1718  0.2850  0.4495
19878W        W35687   6.299   9.010  12.323 -0.1988 -0.2722 -0.0652
19879W        W35688  14.656   7.633  13.113  0.1505 -0.3707 -0.0413
19880W        W35689  14.833   1.970   4.519 -0.1539  0.0897 -0.0159
19881W        W35690   6.144  12.385  13.429 -0.0435 -0.0021  0.1801
19882W        W35691   3.042   4.327   5.680 -0.0160 -0.1774 -0.2193
19883W        W35692  10.598   3.438   2.333  0.0096 -0.1005  0.0435
19884W        W35693   2.339   3.349   4.966 -0.1554  0.0190 -0.3792
19885W        W35694  13.251  13.240   4.838 -0.0886 -0.0766  0.1775
19886W        W35695  18.006   8.263   1.510 -0.0705  0.0618 -0.4124
19887W        W35696   1.153  15.363  15.069  0.2349 -0.1921 -0.2349
19888W        W35697  17.949   7.375  14.009 -0.0018  0.0387  0.1265
19889W        W35698  12.834  17.224  15.328  0.0643  0.0179  0.2538
19890W        W35699  14.720  16.265  14.670  0.0401 -0.0083  0.0505
19891W        W35700  10.745  11.558   2.842 -0.2293 -0.2730  0.3545
19892W        W35701  16.106   5.434   1.149 -0.0057 -0.0387  0.2534
19893W        W35702  10.531  16.705  15.304  0.1481  0.0176  0.2193
19894W        W35703   0.431  12.101  13.925  0.2488 -0.1260  0.3650
19895W        W35704   6.100   2.119   5.198 -0.1112  0.0861 -0.2697
19896W        W35705  10.467  13.980   1.044 -0.0160 -0.0899  0.0195
19897W        W35706   4.814   2.277   1.059 -0.0215 -0.0349 -0.1058
19898W        W35707  14.201  15.790   4.115  0.0198 -0.5453  0.1927
19899W        W35708   5.795   7.394  15.049  0.0594 -0.1918  0.0135
19900W        W35709   8.793  12.011  15.171 -0.2549  0.1388 -0.0593
19901W        W35710   8.247   2.910  11.170  0.1706 -0.4043 -0.1255
19902W        W35711   8.007  17.046  12.237 -0.1948 -0.0353  0.0061
19903W        W35712   3.519   4.618   4.927 -0.1844 -0.2243  0.0270
19904W        W35713  17.812   2.055  12.007  0.2191  0.0430  0.1838
19905W        W35714  12.794   3.254  12.561  0.4042  0.1531  0.2005
19906W        W35715   8.315  17.305   2.998 -0.0670 -0.0549 -0.2796
19907W        W35716   5.261   4.341   5.663 -0.2143  0.1992 -0.0507
19908W        W35717   1.945  12.107   6.145 -0.0627  0.0095 -0.0893
19909W        W35718  10.245   9.191  15.870 -0.1055  0.3280  0.0224
19910W        W35719   1.402   9.337  14.379  0.1877  0.2937 -0.0484
19911W        W35720   1.399   6.497   0.033 -0.1106  0.1250  0.1296
19912W        W35721  15.073  14.800  14.266 -0.1321 -0.1369  0.1973
19913W        W35722   4.865   6.640  12.265  0.1704 -0.1364  0.0677
19914W        W35723  10.776  16.813   5.412  0.1006  0.1913 -0.1716
19915W        W35724  11.165  14.263  13.505 -0.2905 -0.1013 -0.0771
19916W        W35725   7.637   0.373   2.707  0.0896  0.1852 -0.2134
19917W        W35726   8.794   2.894  12.008  0.0563 -0.3842 -0.1569
19918W        W35727  11.414   2.814  11.280 -0.0443  0.2354 -0.1959
19919W        W35728  14.653  17.147  12.056  0.1233  0.1048  0.2573
19920W        W35729   5.370  11.922  10.150  0.0149 -0.0477  0.2325
19921W        W35730   5.075   3.011   0.232 -0.0475  0.0938  0.1767
19922W        W35731  18.110  18.080  11.652 -0.1395 -0.1109 -0.0145
19923W        W35732   2.550   9.159   3.677  0.0698 -0.1241  0.0037
19924W        W35733   6.454  10.802  11.353  0.0594 -0.1401 -0.0056
19925W        W35734   0.089   3.751   5.173 -0.0912 -0.2404 -0.2250
19926W        W35735   0.072   5.133   4.661  0.4699 -0.0558  0.0099
19927W        W35736   1.399   7.761   4.093 -0.0625 -0.4049 -0.0993
19928W        W35737   5.882   8.761  14.039  0.0542 -0.1959  0.1605
19929W        W35738  11.815  10.947  13.519  0.0205  0.0927 -0.0118
19930W        W35739  12.481   4.122   0.513 -0.0131 -0.2454 -0.0998
19931W        W35740  14.324   5.333  11.378 -0.1562 -0.1733  0.0724
19932W        W35741  10.094  15.868  13.203 -0.1533 -0.0392 -0.0597
19933W        W35742  12.380  12.460  15.720 -0.1429  0.1331  0.2044
19934W        W35743   0.707  12.967   2.862 -0.0116 -0.1107 -0.0747
19935W        W35744  11.188   2.085   1.081  0.0578  0.0184  0.1474
19936W        W35745   4.885   3.223   0.748 -0.0281  0.3619  0.0534
19937W        W35746  15.755   1.060   1.317  0.1432  0.2077 -0.0250
19938W        W35747  13.888  13.014  12.016 -0.2520 -0.3045 -0.0138
19939W        W35748  11.991  11.486  11.623 -0.0533  0.2697 -0.1395
19940W        W35749  14.708   4.578   1.930 -0.0143  0.0491  0.0563
19941W        W35750  13.849   2.266   5.840  0.1237 -0.1931 -0.0613
19942W        W35751   2.443   9.525   4.109  0.2720  0.1122  0.2547
19943W        W35752   3.192   2.863   4.729  0.3573  0.0406  0.1305
19944W        W35753  11.649   4.872   4.113  0.0826 -0.0379 -0.2045
19945W        W35754   4.362  12.780  12.826 -0.0747  0.2348  0.0617
19946W        W35755  16.126  15.969  15.986  0.0509 -0.0933  0.0434
19947W        W35756   7.289   3.351  15.240 -0.0488  0.1989  0.3064
19948W        W35757  12.165  12.684   2.624 -0.2927 -0.3708  0.0408
19949W        W35758  14.811   7.229  16.155 -0.1820 -0.1156 -0.1399
19950W        W35759  15.056   8.041  14.104  0.2558  0.0633 -0.1965
19951W        W35760  14.023  12.724  11.262 -0.1788 -0.2301  0.3461
19952W        W35761   7.454  10.632   3.061  0.0418  0.0696 -0.0122
19953W        W35762   6.816   3.479   3.161  0.1447 -0.2869 -0.2219
19954W        W35763  18.191  14.522  10.358 -0.4872  0.0483 -0.1154
19955W        W35764  17.987   9.507  14.895 -0.1969 -0.4184  0.2079
19956W        W35765   6.728  15.342  15.287  0.1676 -0.1361  0.1033
19957W        W35766  11.175  13.785   5.954 -0.1900  0.1153  0.1863
19958W        W35767  12.089   1.377   5.603 -0.0178 -0.1350 -0.0339
19959W        W35768  17.471  12.424   4.263 -0.0787 -0.1758 -0.2701
19960W        W35769   0.474   4.895   1.761  0.1271  0.1045 -0.1340
19961W        W35770  14.088   6.850  11.114  0.2924  0.3000 -0.0715
19962W        W35771   2.464   3.034   3.990  0.1250 -0.3176 -0.0662
19963W        W35772   1.885   7.819   5.436  0.2235 -0.0090  0.2095
19964W        W35773   4.873  10.373  12.706 -0.0450  0.1702  0.3724
19965W        W35774   8.467  17.676   1.921  0.3336 -0.2196 -0.1095
19966W        W35775   2.722   8.665  11.606 -0.0654 -0.1834 -0.0718
19967W        W35776   6.881  18.172  15.865  0.0169  0.0722 -0.1614
19968W        W35777   0.214   3.148   0.055  0.0208 -0.1602 -0.0110
19969W        W35778   3.321   8.424   4.141 -0.0424 -0.0051  0.1057
19970W        W35779   3.398  11.231   0.193 -0.6073  0.3055  0.3043
19971W        W35780  15.597  16.210   0.071  0.1055 -0.1398 -0.1106
19972W        W35781  13.161  14.597   4.081  0.1519  0.0120 -0.0113
19973W        W35782   5.525   4.777   3.232  0.3170 -0.1083 -0.2033
19974W        W35783   4.609  12.057   4.485 -0.1130  0.1636 -0.0353
19975W        W35784  12.041   2.777   5.698  0.2426 -0.0968 -0.3302
19976W        W35785   9.536   2.943   3.173  0.0192 -0.1132  0.1638
19977W        W35786   8.676   5.837  14.311 -0.1888 -0.0973  0.0199
19978W        W35787  13.439   1.725   5.160  0.1127  0.1254 -0.0921
19979W        W35788   5.146  12.613  13.546  0.0858 -0.1119  0.2732
19980W        W35789   1.360  13.680   4.045 -0.1974 -0.1230  0.0545
19981W        W35790   9.321  12.195  16.328  0.2263  0.0547 -0.1542
19982W        W35791   8.222   7.376   2.342  0.0968 -0.3922 -0.2643
19983W        W35792  15.366   7.608   0.898 -0.1954  0.1451 -0.3021
19984W        W35793  15.713  12.887  13.994 -0.0002 -0.0416 -0.4841
19985W        W35794   5.429   7.978  12.241  0.4520 -0.3196  0.0829
19986W        W35795  17.760  11.600   3.300  0.0030 -0.1059 -0.0108
19987W        W35796   6.505  14.268   5.848  0.2038 -0.0443 -0.1020
19988W        W35797  17.712  15.512   0.892 -0.0123  0.2256  0.3781
19989W        W35798   7.765   8.358  14.683  0.2834 -0.1197  0.0973
19990W        W35799   1.422  16.500   0.098 -0.0849 -0.0184 -0.0698
19991W        W35800   2.727   0.369  13.605 -0.2159 -0.0757 -0.1354
19992W        W35801  13.911   1.396  15.337  0.3093 -0.0083 -0.1172
19993W        W35802   8.108   8.577  13.570  0.2771  0.0564 -0.2055
19994W        W35803   4.506  15.934   4.238  0.0286  0.0742 -0.0305
19995W        W35804   4.301  10.198  12.162  0.1477  0.2160 -0.0591
19996W        W35805   3.635  13.902   2.844  0.0727 -0.2945  0.0686
19997W        W35806   0.779  10.399  14.802 -0.0985  0.2171 -0.2709
19998W        W35807  15.187  12.932   3.480 -0.1752  0.0106 -0.1893
19999W        W35808   6.153  11.853  13.278 -0.0161 -0.1257 -0.2424
20000W        W35809  12.947   2.571   3.288 -0.0712 -0.0822 -0.1045
20001W        W35810   0.860   0.246  16.256 -0.1459 -0.0913 -0.0050
20002W        W35811  11.634  14.453  14.259 -0.2083  0.2005 -0.0582
20003W        W35812   0.266  12.465  16.265  0.0936 -0.2269  0.2263
20004W        W35813   9.208   0.967   1.794 -0.2071  0.1067  0.1056
20005W        W35814  12.331   0.916  13.709 -0.1583 -0.0715  0.0472
20006W        W35815  11.329   3.699   1.264 -0.0695 -0.1934  0.0580
20007W        W35816   6.858   6.911   4.124 -0.2567 -0.0000 -0.0074
20008W        W35817   8.596   7.390   3.563  0.0708 -0.1577 -0.0984
20009W        W35818  13.218   6.337   3.826  0.1917 -0.4168  0.2904
20010W        W35819  16.332  16.915  13.049  0.0131  0.1305 -0.2792
20011W        W35820  11.259   9.494   4.034 -0.4032  0.0615  0.1098
20012W        W35821   7.052  17.976   0.620  0.2011 -0.0016  0.1708
20013W        W35822   0.591   1.097  16.026  0.1649 -0.0200  0.1575
20014W        W35823  12.216  13.499   1.459 -0.1143 -0.3156 -0.0132
20015W        W35824  15.499  14.203  15.415 -0.0480  0.3850 -0.1905
20016W        W35825  16.030  16.259   1.223 -0.2338 -0.0484  0.0064
20017W        W35826  11.112   8.262  12.200  0.1207  0.0524 -0.1827
20018W        W35827  11.809  17.939   3.883 -0.3423 -0.3969 -0.2968
20019W        W35828   0.832  15.583   3.225  0.1344 -0.2091 -0.4538
20020W        W35829   7.862   5.508   2.388  0.1257  0.1304  0.0194
20021W        W35830   9.292   0.083   0.112 -0.0657  0.2063  0.2896
20022W        W35831   0.840  17.200  14.808  0.0510 -0.1188 -0.2626
20023W        W35832   7.381   6.315   4.323  0.3189  0.0459 -0.0119
20024W        W35833   7.061  15.139   3.023 -0.2189  0.2116  0.1127
20025W        W35834   2.922   2.297  11.962  0.0207 -0.1344  0.4957
20026W        W35835  14.792  10.318  12.228 -0.2640  0.3136  0.0281
20027W        W35836   9.066   5.288   2.915  0.1275 -0.0660  0.3035
20028W        W35837  13.533   9.086  15.603 -0.2740 -0.0099 -0.2854
20029W        W35838   5.067   0.807   1.482 -0.0287  0.0382 -0.2165
20030W        W35839  16.494   8.737  12.778 -0.0577  0.1292 -0.1320
20031W        W35840  10.369   6.830   0.818  0.2214 -0.2214 -0.2712
20032W        W35841  13.319   2.980   0.600 -0.2438 -0.3026 -0.0031
20033W        W35842   9.376   3.024   4.101 -0.0141  0.0506  0.1335
20034W        W35843   4.092  18.084  11.191 -0.0531 -0.2843  0.0169
20035W        W35844   6.663   7.644  11.244 -0.0006  0.3675  0.0793
20036W        W35845   1.277   8.109  13.688 -0.0248 -0.0788  0.0293
20037W        W35846  11.439   2.900  14.324 -0.0947  0.1166 -0.0061
20038W        W35847   0.914   5.187   1.778 -0.0409  0.0351 -0.1576
20039W        W35848  16.446   9.108   3.201 -0.1848 -0.1336 -0.0134
20040W        W35849   8.862   5.945  12.196  0.2496  0.0613  0.0152
20041W        W35850   0.545  10.101  11.739 -0.2906 -0.0125 -0.4277
20042W        W35851   8.988  17.162  12.454  0.1279 -0.1913  0.3317
20043W        W35852  16.663   9.770  12.043  0.1670  0.1035 -0.1057
20044W        W35853   4.007  13.091   2.151 -0.0158  0.4020  0.1644
20045W        W35854  11.442  11.488   0.341 -0.0878  0.1077  0.2161
20046W        W35855   8.260  14.906   3.160  0.1656 -0.3043  0.1381
20047W        W35856  11.456   8.193   1.021  0.0103 -0.1714 -0.0746
20048W        W35857  16.802   7.956   0.352  0.2014  0.0853 -0.1605
20049W        W35858   0.579   7.421  13.634 -0.2915 -0.1596 -0.0324
20050W        W35859   4.301  13.097  14.291  0.0135 -0.2780  0.4372
20051W        W35860   2.040  13.472   2.713 -0.3065 -0.4385  0.3509
20052W        W35861   7.710  18.101   1.981  0.0676 -0.1155  0.0309
20053W        W35862   1.861  11.565   3.129  0.0115  0.0048 -0.0053
20054W        W35863   3.532   3.418  13.248 -0.3215  0.1438 -0.1160
20055W        W35864   1.483   1.578   0.101  0.0765  0.0561  0.0548
20056W        W35865   2.620   2.271   2.343 -0.1689  0.0627  0.1838
20057W        W35866  15.874   0.553   5.400  0.1494 -0.2161 -0.1402
20058W        W35867  11.859  17.475  16.128  0.2057 -0.0593  0.2018
20059W        W35868  11.344   3.674   2.637 -0.0399 -0.1738  0.0578
20060W        W35869   3.804   7.152  11.855 -0.0303 -0.3158  0.0460
20061W        W35870   3.057   8.654  13.545 -0.0988  0.2839 -0.0534
20062W        W35871  13.678   5.763  12.962 -0.1697 -0.3784 -0.1835
20063W        W35872   1.138  12.427   5.199 -0.3221  0.1851  0.1609
20064W        W35873   1.406   3.134   5.961  0.1539  0.0573 -0.1328
20065W        W35874  17.375   8.835   4.493 -0.5759  0.1028  0.4343
20066W        W35875  16.948  15.448   5.586 -0.2554  0.2831  0.3916
20067W        W35876   7.645  11.345  11.903  0.0409  0.1059 -0.1115
20068W        W35877  11.079  17.245  15.801 -0.1826 -0.0359 -0.0956
20069W        W35878  15.099  16.013   3.994  0.0577 -0.0400 -0.0763
20070W        W35879   0.526   4.816   3.122 -0.2840 -0.0596 -0.2392
20071W        W35880   9.100  12.890   2.898 -0.4210 -0.3450  0.0890
20072W        W35881   8.936   5.344  15.499  0.1096  0.0350 -0.4426
20073W        W35882   1.472  17.874  12.563  0.0265 -0.2522  0.2306
20074W        W35883   1.829   6.829  12.032 -0.0867  0.0013  0.0256
20075W        W35884   9.164   0.344  16.041  0.1429 -0.0458  0.0863
20076W        W35885   4.534   4.950  13.864  0.0662 -0.0769  0.0532
20077W        W35886  10.789   5.905   3.526  0.2126  0.0934 -0.3425
20078W        W35887  10.086  13.697  15.869 -0.2904  0.0756  0.1017
20079W        W35888   0.896  14.974   3.847  0.1944  0.2392  0.1569
20080W        W35889  15.938   2.927  11.805  0.0334  0.4660  0.1650
20081W        W35890   9.208  11.256   1.373 -0.2092  0.0766  0.1102
20082W        W35891   3.486   3.259  13.731 -0.0445  0.1923  0.1214
20083W        W35892  17.927   7.066  14.488 -0.0353  0.0231  0.2608
20084W        W35893   5.822  16.693  13.063 -0.1503 -0.0445  0.0334
20085W        W35894  14.012   1.091  11.861 -0.1781 -0.2295  0.1134
20086W        W35895   5.926   9.647  13.119 -0.0480 -0.2662 -0.2658
20087W        W35896   5.121  15.687  11.884 -0.1250  0.5143 -0.2297
20088W        W35897   2.540  14.610  16.064  0.0979 -0.1469 -0.2537
20089W        W35898  14.006  10.627  12.522 -0.0082 -0.1535  0.2605
20090W        W35899   4.625   6.874   0.753 -0.1642  0.3731 -0.2154
20091W        W35900  13.162  14.991   4.812  0.1508  0.3721 -0.3784
20092W        W35901  11.521  13.394   5.863  0.1394  0.0459  0.3964
20093W        W35902   9.357   2.343  12.824  0.0766 -0.1923 -0.2012
20094W        W35903   6.411   9.488  15.765 -0.0468  0.1003 -0.0463
20095W        W35904   6.545   7.404  16.110 -0.0199 -0.1171 -0.0014
20096W        W35905   1.624  11.474  12.070  0.0132  0.0950  0.0599
20097W        W35906  15.153   6.906   2.052 -0.0011  0.1974  0.0055
20098W        W35907  10.639  15.531  11.371  0.0536  0.1128 -0.0014
20099W        W35908   9.469  12.571  16.013 -0.0907 -0.2136 -0.0630
20100W        W35909  11.191  17.419   6.037  0.4678 -0.0034  0.1460
20101W        W35910   2.437  14.900  15.618  0.3224 -0.1610  0.1202
20102W        W35911   0.548   3.444   4.274  0.1797 -0.0256  0.2181
20103W        W35912   6.513  14.204   1.675  0.1916 -0.1360 -0.0528
20104W        W35913  17.596   4.547  11.894  0.3884 -0.2374  0.3493
20105W        W35914  12.168   1.945  13.461 -0.3282 -0.4769  0.3040
20106W        W35915   9.328   6.711  12.070  0.1590 -0.0239  0.1204
20107W        W35916  16.826   2.322   4.189 -0.0294 -0.0267 -0.1403
20108W        W35917   9.163  15.974  13.594  0.1692  0.1927 -0.0589
20109W        W35918  12.313   6.738   5.225  0.0422 -0.0101  0.3545
20110W        W35919   1.823   0.617  14.509  0.2634  0.0028  0.1438
20111W        W35920   3.609  14.829   3.058 -0.0608  0.0135 -0.1533
20112W        W35921  17.305   6.623  15.473 -0.2057 -0.0838 -0.1583
20113W        W35922   7.194  12.698  11.797  0.1548  0.2228 -0.2555
20114W        W35923  13.991   9.707  11.221  0.2424 -0.0640 -0.1541
20115W        W35924   2.568   2.682  15.577  0.2733  0.0239  0.1806
20116W        W35925  17.158   2.332  14.351  0.0187 -0.3689 -0.0783
20117W        W35926   5.337   6.286   5.089  0.1905  0.1703  0.1803
20118W        W35927  14.892   1.720  11.419 -0.0884 -0.1718 -0.0829
20119W        W35928  13.398  18.041  13.082  0.0464  0.1465 -0.1237
20120W        W35929  12.125   0.443   4.417  0.2775  0.0602  0.3470
20121W        W35930  16.002  10.578   1.833  0.0295  0.0946  0.1796
20122W        W35931   1.481   6.193   6.617 -0.0539 -0.1060 -0.1640
20123W        W35932   8.631  12.451  11.423  0.3905  0.0858  0.0626
20124W        W35933   8.765   6.095  12.699 -0.0676  0.4114 -0.1217
20125W        W35934   4.298  10.702   0.609  0.0508  0.1338  0.0822
20126W        W35935   5.338  14.384  11.218 -0.0570 -0.1899  0.1056
20127W        W35936   3.011  14.099   4.882 -0.0919 -0.1769 -0.1270
20128W        W35937  15.511  11.654  15.149  0.0497  0.3765  0.0361
20129W        W35938   4.279   5.290   1.396 -0.1882  0.3417  0.1073
20130W        W35939   1.994  11.042  14.189 -0.1429 -0.1154  0.0326
20131W        W35940  15.397  15.986   5.703  0.3089  0.2637  0.0517
20132W        W35941  16.656   9.104   4.933  0.0236  0.0118 -0.0151
20133W        W35942  11.328  18.214  15.987 -0.0797 -0.0371 -0.1179
20134W        W35943   7.945  14.644  13.701 -0.0390 -0.0653  0.2529
20135W        W35944   2.314   0.528  14.497 -0.0860  0.2267  0.0406
20136W        W35945   8.059   1.283   3.625  0.3565  0.1428 -0.1147
20137W        W35946   0.335  10.230   0.977  0.0047 -0.1454 -0.1627
20138W        W35947  13.114  11.636  14.040  0.1402  0.0042  0.0034
20139W        W35948   6.433  12.615   1.293 -0.0993  0.0977  0.0234
20140W        W35949  11.154   6.307   3.165 -0.3255  0.0373 -0.0673
20141W        W35950   8.762   0.945  10.828  0.2368  0.1490  0.1713
20142W        W35951   1.315   2.612   4.767  0.3362  0.4058 -0.1255
20143W        W35952   5.626   2.763   2.841 -0.1702  0.2893  0.2363
20144W        W35953   3.116   6.088   2.437 -0.1592 -0.0480  0.1047
20145W        W35954   6.124   0.645  12.058  0.1390 -0.0651  0.1825
20146W        W35955   3.715  17.754  12.333  0.2840 -0.2860 -0.0551
20147W        W35956  14.359   7.711  11.051 -0.3068 -0.1817  0.3245
20148W        W35957  16.253  16.462  12.707 -0.4051  0.3965 -0.0609
20149W        W35958  10.851   1.960   4.096  0.0411  0.0298  0.3151
20150W        W35959   0.472  18.017   1.936 -0.1467  0.1784  0.1728
20151W        W35960   0.220   8.361   5.059  0.4137 -0.0819 -0.1012
20152W        W35961   0.289  13.527   5.325  0.0334  0.1100 -0.0988
20153W        W35962   3.290   0.222   1.545  0.5604 -0.1090  0.3192
20154W        W35963  12.058  14.411   4.081 -0.0557  0.2990  0.0202
20155W        W35964   0.482  15.791   2.801  0.1520 -0.3449  0.1415
20156W        W35965   3.170   7.772  11.504 -0.0549 -0.2526  0.2345
20157W        W35966  16.989   8.021   1.408  0.1346  0.0127 -0.1265
20158W        W35967  10.221   9.142   2.999 -0.0039  0.0702 -0.2835
20159W        W35968  10.106   6.844   1.297 -0.0071  0.2181 -0.3289
20160W        W35969   6.445   6.145   5.706  0.1911  0.3138 -0.1544
20161W        W35970   7.448  17.299   3.395 -0.2465  0.0764  0.1983
20162W        W35971   0.447  18.119   1.391  0.0748 -0.1913  0.2657
20163W        W35972  15.802   4.495  12.052 -0.1372  0.1349  0.1669
20164W        W35973  15.063  13.424   0.963 -0.0515  0.0602  0.4226
20165W        W35974  14.106   5.107  11.815  0.2015  0.0638 -0.1187
20166W        W35975  13.175   1.102   5.139 -0.0437 -0.0173 -0.0611
20167W        W35976   1.871   1.099  15.750 -0.0224  0.3053 -0.0748
20168W        W35977   7.060   7.647   4.590  0.1691 -0.1132  0.3087
20169W        W35978   4.569   3.779   4.531 -0.1696 -0.0133 -0.0808
20170W        W35979  11.393   8.197   4.231  0.1903 -0.2848 -0.3986
20171W        W35980   1.793   6.386  16.048  0.0200 -0.5075  0.1086
20172W        W35981   2.284   5.521  16.186  0.0787 -0.0642  0.2689
20173W        W35982  15.319  11.773   4.841  0.0771  0.1959  0.1026
20174W        W35983   3.948  17.507  15.582 -0.4541  0.0813  0.1659
20175W        W35984   4.334  16.151  13.014 -0.0185  0.0495  0.0965
20176W        W35985  13.204  14.380   5.600  0.2418  0.0445  0.2615
20177W        W35986   3.781  11.415  13.660 -0.3652  0.1342 -0.1436
20178W        W35987   9.696   4.516  14.465  0.2681 -0.0117  0.3214
20179W        W35988  12.177   9.146  16.115 -0.0982 -0.2127  0.0730
20180W        W35989   0.244   8.752   4.336 -0.0418  0.0012 -0.1532
20181W        W35990  13.467  16.708   4.155 -0.2400 -0.2987 -0.2562
20182W        W35991  12.835  11.655   3.011 -0.0045  0.1154 -0.3131
20183W        W35992  11.627  10.867  10.652 -0.0476 -0.2515 -0.0368
20184W        W35993   5.716   9.850  13.564  0.0536 -0.2810  0.5354
20185W        W35994   2.474   8.430  15.847  0.1211 -0.0531 -0.4748
20186W        W35995   3.273  12.129  14.079  0.0900  0.1051  0.0031
20187W        W35996   8.772  14.476  15.790 -0.0815  0.0719  0.2110
20188W        W35997   8.732   1.832  11.919 -0.2985  0.2490 -0.2918
20189W        W35998   5.745   0.005   3.342  0.1573 -0.0769 -0.4038
20190W        W35999   2.776   1.282   0.756 -0.1723 -0.0343  0.0235
20191W        W36000   7.184  13.718  12.853  0.0858  0.1069 -0.0128
20192W        W36001   0.088  14.389  13.130  0.0088  0.0981 -0.1533
20193W        W36002   8.833   3.363   1.528 -0.0321 -0.2020 -0.0129
20194W        W36003   2.268   8.792  14.637 -0.4792  0.2060  0.2335
20195W        W36004  11.559   4.279   1.049 -0.1284  0.1410  0.3222
20196W        W36005   0.006  18.005   3.200  0.0811  0.2408 -0.0027
20197W        W36006   6.199   9.499   0.777  0.0625 -0.1248 -0.2233
20198W        W36007   3.748   0.594  15.311  0.0083 -0.1122  0.0020
20199W        W36008   6.380   8.919   0.710 -0.0899 -0.0793  0.0158
20200W        W36009   0.041  15.723  13.631  0.1355  0.0699  0.1171
20201W        W36010  12.564   1.094   1.485  0.0579 -0.3381  0.1460
20202W        W36011  14.596  11.107   2.251  0.0337 -0.2862  0.1247
20203W        W36012  17.989   9.601  12.222 -0.0425 -0.0129 -0.1664
20204W        W36013  10.789   9.972  16.286 -0.0038 -0.2418  0.1909
20205W        W36014   7.827  15.065  12.052  0.0372 -0.1577  0.2081
20206W        W36015   3.656  14.450  12.959 -0.0353 -0.0019 -0.1923
20207W        W36016   6.620  10.872  11.827 -0.2098 -0.0051 -0.2522
20208W        W36017   5.908  11.001   4.964 -0.3115 -0.2018  0.0903
20209W        W36018   4.291   5.042   5.491 -0.2118 -0.1810  0.1275
20210W        W36019   6.574   6.495  11.272  0.1228  0.0552  0.1242
20211W        W36020  10.924  17.822   3.860 -0.1282 -0.0103 -0.1508
20212W        W36021   5.197  10.733   1.144 -0.0836  0.2132  0.0847
20213W        W36022   9.869  15.968   2.538  0.3788  0.1247  0.1553
20214W        W36023   2.788   5.264   5.605  0.2126 -0.2166  0.2067
20215W        W36024   1.838   3.615   4.025  0.4424 -0.1069 -0.0723
20216W        W36025   1.765  13.130  10.788  0.2130 -0.0820  0.1386
20217W        W36026   4.901   7.421  11.367  0.2270  0.1213  0.1773
20218W        W36027   7.669   5.994   2.010 -0.1957  0.2574  0.2041
20219W        W36028   8.477  14.665  16.218 -0.2728  0.0099  0.0156
20220W        W36029  10.209   2.075   4.516 -0.2822  0.0589  0.2596
20221W        W36030  10.443  11.948   1.329  0.0426 -0.3578  0.2940
20222W        W36031   6.992   5.619   3.738 -0.1440 -0.0473 -0.0924
20223W        W36032   0.827   8.397  11.624  0.3031  0.3189 -0.0591
20224W        W36033  15.048   7.944   2.880  0.1385 -0.3512 -0.3436
20225W        W36034  16.348   1.763  11.021 -0.1614 -0.2025 -0.1749
20226W        W36035   8.651   9.658   3.783  0.0831 -0.2530 -0.0510
20227W        W36036  11.018  13.870  14.144 -0.0096  0.2405 -0.0176
20228W        W36037  12.539   8.860  15.167 -0.0363  0.1155  0.1732
20229W        W36038  15.275  16.087  14.740  0.1225 -0.2092  0.4754
20230W        W36039   5.860  16.844  15.214 -0.2087  0.0527  0.4163
20231W        W36040   7.086  14.718  12.582 -0.0257 -0.0856 -0.4250
20232W        W36041   7.003   4.291   3.343  0.2096 -0.6058 -0.1441
20233W        W36042  15.815   1.795  15.315 -0.2678 -0.0558  0.1364
20234W        W36043  16.260  12.006  14.481 -0.0115  0.1647  0.0837
20235W        W36044  17.974  14.950   0.800 -0.0096 -0.2274 -0.1470
20236W        W36045  14.850  11.041  14.492  0.1840 -0.0178  0.1244
20237W        W36046   5.510   1.292  12.526  0.0347  0.0735  0.0622
20238W        W36047  11.011  15.570   5.014  0.1872  0.0142 -0.2071
20239W        W36048  14.283  13.992   4.603 -0.2468  0.0681  0.1531
20240W        W36049  15.107  11.480  15.417  0.0573 -0.0572  0.1628
20241W        W36050   8.978   6.010  10.985 -0.3421  0.2383  0.0773
20242W        W36051  13.408  10.748  14.356  0.2796  0.0242 -0.1949
20243W        W36052   7.733  13.575   4.156 -0.2609 -0.0639 -0.0227
20244W        W36053   6.132  10.490   3.589 -0.0083  0.0550  0.0957
20245W        W36054  11.438  10.577   5.373  0.0921 -0.0748  0.0374
20246W        W36055   1.878   2.516   5.538 -0.0798 -0.1461  0.6127
20247W        W36056  13.186  12.593  14.491 -0.3220 -0.1392 -0.2243
20248W        W36057  15.726   2.424   4.957  0.0465 -0.0460  0.0097
20249W        W36058   0.379   8.696   3.742  0.0918  0.2442 -0.2722
20250W        W36059   8.555   2.059   3.341  0.0595 -0.0283 -0.5466
20251W        W36060  16.553  11.096   2.131  0.0465  0.0463 -0.0233
20252W        W36061   1.435   4.531   1.822  0.0340  0.0750  0.1462
20253W        W36062  18.122   9.769   2.693 -0.0391 -0.0443  0.0599
20254W        W36063   9.801  18.139  13.826  0.1932  0.1663 -0.2859
20255W        W36064   6.819   0.690  12.677  0.0847  0.3416 -0.1408
20256W        W36065  13.004  14.465  15.982  0.2724  0.0164  0.0323
20257W        W36066  11.706   3.839  14.823  0.0100  0.1515  0.0242
20258W        W36067  14.292   3.466  12.777  0.0338  0.0801  0.1533
20259W        W36068   6.064   0.687   2.839 -0.1184 -0.1318 -0.1523
20260W        W36069  18.008   6.746   2.455  0.1218 -0.3707  0.0050
20261W        W36070  17.437  15.312   3.521 -0.1594  0.0548 -0.0304
20262W        W36071  15.412  15.220  14.235  0.3366  0.0249 -0.0984
20263W        W36072  11.287   2.817  16.351 -0.3021  0.2773  0.3820
20264W        W36073   6.586   2.929   1.648 -0.1187  0.1387 -0.0074
20265W        W36074  14.528  15.814  14.289  0.0866 -0.2263 -0.0667
20266W        W36075  16.904   4.986   0.936 -0.1180 -0.2074 -0.1486
20267W        W36076   9.785   2.608   0.692 -0.0289  0.0474  0.0707
20268W        W36077   0.782  11.946  13.139 -0.3377  0.0121 -0.1192
20269W        W36078   2.918   8.208  11.632 -0.1012 -0.2914 -0.0965
20270W        W36079  11.481  14.819   3.970 -0.1614 -0.0899 -0.1923
20271W        W36080   7.375  13.308  15.804  0.0042 -0.0704  0.1095
20272W        W36081  17.206   2.883   5.693  0.0469  0.0060 -0.0625
20273W        W36082  14.734  15.045  15.833 -0.0983  0.0800 -0.0900
20274W        W36083   5.472   1.722  13.875  0.0359 -0.2275  0.2860
20275W        W36084  10.110   8.307  10.109 -0.0696 -0.1188  0.0714
20276W        W36085   3.554  16.767  11.505  0.1633  0.0112  0.2834
20277W        W36086  18.029   5.566  14.479 -0.2236  0.0681 -0.0981
20278W        W36087  15.151  15.841  15.214  0.1071  0.2551  0.0233
20279W        W36088  10.793   6.672   2.133  0.2436  0.1610  0.0722
20280W        W36089   2.737   1.480   0.295  0.1690  0.2221  0.1126
20281W        W36090   9.817  15.596  11.774  0.0043  0.0132  0.2593
20282W        W36091   5.965   5.799   3.474  0.2298  0.0595  0.4630
20283W        W36092   6.292   8.308   3.466 -0.0094  0.0535 -0.3994
20284W        W36093   5.456   6.250  14.426  0.1195  0.1148 -0.0142
20285W        W36094  12.859   7.277   1.775 -0.3876 -0.2401  0.0851
20286W        W36095  11.629   5.904  13.655  0.1369 -0.0624 -0.1918
20287W        W36096   4.303   6.355   3.639 -0.0728  0.1189  0.2592
20288W        W36097  12.329  11.223  11.290 -0.0327  0.0767 -0.0088
20289W        W36098  16.818  14.465   5.999 -0.1981 -0.0771  0.0933
20290W        W36099   2.619   0.289   2.799 -0.2641 -0.1421 -0.0601
20291W        W36100  14.140   2.304   2.555  0.1949  0.2264 -0.2210
20292W        W36101  15.670   4.860  14.185  0.0146  0.1696  0.0586
20293W        W36102  14.278   6.245   0.316  0.0342  0.0795  0.4016
20294W        W36103  11.199   2.651  15.031 -0.2303  0.3534 -0.0311
20295W        W36104  15.542  11.281   4.929 -0.1957 -0.0794  0.1581
20296W        W36105  16.245   5.627  13.941 -0.1682  0.1286  0.0215
20297W        W36106  17.269  15.309   4.518  0.1454 -0.1636 -0.1124
20298W        W36107  14.287  14.332   1.013 -0.0723 -0.1544 -0.3523
20299W        W36108   2.042   2.138  15.618  0.1361 -0.0254 -0.1001
20300W        W36109   3.084  15.144  12.787 -0.3401 -0.0980  0.2466
20301W        W36110  10.163   4.499   2.300  0.2270 -0.2587 -0.3281
20302W        W36111   6.658   0.261   5.091  0.0174  0.0502 -0.4062
20303W        W36112  11.985  15.369  13.632  0.1726  0.0735 -0.1798
20304W        W36113   7.974   2.851   1.557 -0.0721 -0.1796 -0.0759
20305W        W36114   4.583   9.363  13.505  0.1641 -0.0657  0.0919
20306W        W36115   8.110  15.619   0.328 -0.1300  0.1412 -0.3957
20307W        W36116  12.121   8.949  13.398 -0.0056 -0.3138  0.0727
20308W        W36117  12.262  10.306   5.316  0.0553 -0.0393  0.1133
20309W        W36118   5.949   3.464   0.505  0.2202  0.1380  0.0814
20310W        W36119  15.363   5.906   0.195 -0.1795  0.0610  0.0887
20311W        W36120   9.278   8.698  13.589  0.0461  0.0146  0.3928
20312W        W36121   2.669  15.007   4.468  0.1928  0.1593  0.1656
20313W        W36122   2.864   1.946  11.364  0.0245 -0.0108 -0.0011
20314W        W36123   5.340   4.470  14.163  0.2131  0.1352 -0.2366
20315W        W36124  18.066  10.227  15.846  0.3006  0.1022 -0.3664
20316W        W36125   5.395   9.427  14.724 -0.0887  0.1097  0.1372
20317W        W36126  12.627  14.526  14.038  0.3035  0.0632  0.2219
20318W        W36127   6.998  17.133  11.639 -0.1761 -0.2323 -0.3037
20319W        W36128   9.805  14.822  14.488 -0.1260  0.0286  0.2026
20320W        W36129  17.981   2.241   4.162  0.0024  0.1487 -0.5072
20321W        W36130  17.486  17.914   5.318  0.1865 -0.3241  0.0381
20322W        W36131  12.474  11.361  15.677  0.0882  0.0938 -0.3110
20323W        W36132   9.981   7.461   3.103 -0.2375  0.1872 -0.2179
20324W        W36133   5.561   8.968  15.728  0.1842 -0.1325  0.2646
20325W        W36134   3.214  17.364   2.973  0.1306 -0.2885 -0.0937
20326W        W36135   1.762  17.519  14.549 -0.0046  0.0132  0.0443
20327W        W36136  17.999   1.387  16.273  0.1170  0.1414  0.0027
20328W        W36137   5.812  16.731   2.172  0.2382 -0.0407  0.5148
20329W        W36138   4.493   6.480  14.818  0.0171  0.3487 -0.2697
20330W        W36139  16.223  14.351  14.428 -0.0588 -0.0493  0.1528
20331W        W36140   7.562  17.178   4.241 -0.1033 -0.1588 -0.2193
20332W        W36141   1.667  14.088  11.113  0.3952 -0.1351  0.3173
20333W        W36142  13.047   4.821  13.903  0.1022 -0.2457 -0.1165
20334W        W36143  12.005   8.938  12.545 -0.0928  0.0284 -0.2654
20335W        W36144  13.001   1.904   3.869 -0.0292  0.1660 -0.2591
20336W        W36145  13.227  16.093  15.955 -0.1310  0.2297 -0.0021
20337W        W36146  15.012   0.365  15.289 -0.0175  0.0724 -0.1856
20338W        W36147   4.696   3.671   2.176  0.0755 -0.1367 -0.0543
20339W        W36148   1.628  12.541  15.222 -0.0678 -0.1357 -0.1608
20340W        W36149   6.923  10.844   1.865 -0.0973  0.1487  0.1450
20341W        W36150  17.124   5.975   4.031  0.0674 -0.1396  0.0935
20342W        W36151   6.959   2.498   2.700  0.1158  0.2456 -0.0829
20343W        W36152   8.806   0.341  11.144  0.3649 -0.2786 -0.1008
20344W        W36153  15.012  10.971   1.729  0.0049 -0.2074 -0.2588
20345W        W36154   5.854   4.510  14.100 -0.2544  0.3098  0.0869
20346W        W36155  11.866   9.290   4.993  0.1778 -0.0857 -0.3690
20347W        W36156   9.107  11.709  14.332  0.1435  0.0096  0.0976
20348W        W36157   0.170   9.442   0.157  0.1466  0.0100 -0.3633
20349W        W36158  15.750  11.168   1.547  0.0728  0.2020  0.0569
20350W        W36159  12.516  12.187   0.207  0.0645 -0.2745  0.2620
20351W        W36160  11.396   9.966   0.425 -0.2592  0.1123  0.3193
20352W        W36161   8.020   5.151   2.111  0.1034  0.2681  0.0104
20353W        W36162   9.315   5.687   3.512  0.1296 -0.0573  0.0869
20354W        W36163   6.231   6.312   1.956  0.2739 -0.2066 -0.0070
20355W        W36164  17.694  12.836   0.412  0.4581  0.1514  0.4126
20356W        W36165  16.559   0.267  15.222 -0.1633  0.0932  0.1545
20357W        W36166  14.888   0.032   0.702  0.0960 -0.1261  0.1226
20358W        W36167   3.025  13.249   3.176  0.1969  0.2483 -0.0407
20359W        W36168  12.811   5.135  15.167 -0.0352 -0.1776 -0.0655
20360W        W36169  14.145  10.723   2.146 -0.0698  0.2210  0.1417
20361W        W36170  17.090  16.393  14.128  0.0562  0.5000  0.1386
20362W        W36171   0.614  17.981   0.621 -0.1009  0.0927 -0.2093
20363W        W36172  10.485  12.164   3.181  0.0747  0.3196 -0.0095
20364W        W36173   0.064   7.362   3.177  0.0339  0.0603  0.1798
20365W        W36174  15.817   8.323  11.802  0.1788 -0.0129  0.0640
20366W        W36175  12.848  13.159  11.960  0.1484 -0.3197  0.2408
20367W        W36176   7.515   8.328   5.174 -0.0878  0.2369 -0.3096
20368W        W36177  12.201  16.826   1.239  0.1565  0.0531 -0.0077
20369W        W36178  12.364   6.287   0.165  0.0457  0.0140  0.1026
20370W        W36179  10.272   7.944   0.110  0.0434 -0.0334  0.1621
20371W        W36180  14.528  17.334   5.166  0.0296  0.0751  0.1926
20372W        W36181  12.033   6.539   1.546 -0.2196  0.2212 -0.0438
20373W        W36182   7.529  11.039  13.161 -0.3620 -0.1049  0.1744
20374W        W36183  12.111   3.003  16.068 -0.0546  0.0424 -0.2425
20375W        W36184   0.518  12.000  11.506 -0.1711  0.0843  0.1521
20376W        W36185   0.066   2.366  15.328  0.2206  0.5002 -0.1058
20377W        W36186   8.191   3.559   2.937 -0.0258 -0.2704  0.1602
20378W        W36187   2.756   7.288  12.728  0.1698 -0.3985  0.1278
20379W        W36188   8.425  15.094  14.886  0.2973  0.2607  0.1155
20380W        W36189   5.102  17.497   0.728  0.4306 -0.2071 -0.1179
20381W        W36190   0.701  11.940  14.376 -0.0068 -0.2496  0.3669
20382W        W36191  12.449   7.685  12.050  0.2137  0.0963  0.1558
20383W        W36192  14.906   3.383   5.077  0.0248  0.1200  0.2034
20384W        W36193  14.939  17.078  12.512 -0.2855  0.0529  0.3067
20385W        W36194  17.108  13.929   3.979  0.0344 -0.1315  0.2693
20386W        W36195  10.740   3.269   1.899  0.1360 -0.0541 -0.0024
20387W        W36196   0.286  14.784  13.467 -0.2177  0.0040 -0.0793
20388W        W36197  12.816  11.608  15.392 -0.1884  0.3753  0.5108
20389W        W36198   7.310   9.980   3.850  0.2151 -0.2230 -0.0469
20390W        W36199  12.185  11.177  12.257 -0.1294 -0.0717  0.2890
20391W        W36200  17.793   1.894  16.241  0.0731 -0.0418 -0.4122
20392W        W36201   0.422   9.394   0.726 -0.1741  0.1563  0.1755
20393W        W36202   4.368   1.976   2.048  0.0995 -0.2091  0.2041
20394W        W36203   1.128  13.829  13.381 -0.0056 -0.0620 -0.1611
20395W        W36204   5.901  13.363   2.413 -0.1582 -0.0562 -0.1994
20396W        W36205   6.019  16.193  12.380  0.2061  0.0672  0.1216
20397W        W36206  11.561   6.425  10.969 -0.0144 -0.2119 -0.1780
20398W        W36207   2.813  17.301   3.294 -0.2013 -0.1289  0.3608
20399W        W36208   1.518   4.177  12.728 -0.0028 -0.0205  0.0543
20400W        W36209  13.370  15.353   3.997  0.1172  0.0840  0.4881
20401W        W36210  12.243  16.856  12.990  0.0166  0.0875 -0.1392
20402W        W36211  12.066   9.362  12.097 -0.2896 -0.2590  0.0716
20403W        W36212  13.016  10.181  11.752 -0.1045 -0.1717  0.2691
20404W        W36213   6.581   8.081   5.537  0.3606 -0.1341 -0.2709
20405W        W36214  14.238   9.489   1.254  0.0593 -0.2358 -0.1170
20406W        W36215   7.795   3.842  13.250 -0.1373 -0.2010 -0.0837
20407W        W36216  12.238   2.414  14.077 -0.0576  0.0710  0.3046
20408W        W36217   4.655   9.601  13.021  0.0405 -0.0450  0.2721
20409W        W36218   8.047  10.963   0.101  0.1995 -0.0079 -0.0618
20410W        W36219   6.479   3.359  13.063 -0.0485 -0.2563 -0.0265
20411W        W36220   9.991  10.953  13.354  0.0113  0.0964 -0.0385
20412W        W36221   6.012   4.108  13.839  0.1167 -0.2288 -0.6035
20413W        W36222   8.238  10.677   2.123  0.1997  0.2432  0.0918
20414W        W36223   2.936   3.056   0.022 -0.2415 -0.0609  0.0808
20415W        W36224  11.948  12.159  13.210 -0.0137  0.1495 -0.1939
20416W        W36225   9.516   5.885   4.918 -0.2977  0.2305  0.3391
20417W        W36226   0.788   6.046  15.239 -0.1043 -0.1590 -0.2470
20418W        W36227   7.223  16.047  11.565  0.0944 -0.1061 -0.0178
20419W        W36228  14.284   1.745  14.770  0.2846  0.1471 -0.0481
20420W        W36229  17.016   0.266   1.587 -0.3093 -0.1195  0.1539
20421W        W36230   6.867   4.328   0.071 -0.1441 -0.1484  0.0541
20422W        W36231   8.506   5.069  11.600  0.0377 -0.6097  0.2377
20423W        W36232   9.716   4.203   2.343  0.0506  0.0579  0.0236
20424W        W36233  10.749   1.447  12.232 -0.1455 -0.3293  0.0474
20425W        W36234  12.221   3.694   0.234 -0.2257 -0.2887  0.1022
20426W        W36235  12.385  15.309  11.006  0.0152 -0.3147 -0.2022
20427W        W36236  16.266   4.197   5.892  0.3045  0.2906 -0.2413
20428W        W36237  11.277   9.767   4.481  0.2615  0.0285  0.0606
20429W        W36238   4.948  17.417  16.245 -0.4519 -0.1120 -0.4198
20430W        W36239   9.429  12.616   2.501 -0.0248  0.2061 -0.1582
20431W        W36240   8.246  13.475   4.416 -0.1221 -0.0297 -0.1243
20432W        W36241  18.214  16.599   5.950  0.1320 -0.1851  0.0943
20433W        W36242   2.915   2.420  10.393 -0.2500  0.2235  0.0989
20434W        W36243   9.230   9.294  14.219 -0.3132 -0.0204 -0.3643
20435W        W36244  11.918   3.677  12.429 -0.2405 -0.2978 -0.3664
20436W        W36245   9.838   0.507  12.090 -0.5292  0.2692 -0.3361
20437W        W36246   0.530  15.544  15.703  0.1383  0.0678 -0.1796
20438W        W36247   1.114  13.392  13.024  0.2225 -0.3359 -0.0972
20439W        W36248  16.996  11.529  15.026  0.0322 -0.0687 -0.3612
20440W        W36249  10.434  17.989  14.039 -0.2158 -0.0174  0.0757
20441W        W36250  13.404   7.963  13.555 -0.2082  0.1474 -0.2282
20442W        W36251  13.275  18.152  16.164  0.2433  0.2712  0.0696
20443W        W36252   2.923   4.256   2.321 -0.0050  0.3717 -0.0489
20444W        W36253  13.095   6.960   4.744 -0.1339 -0.0781 -0.1082
20445W        W36254  16.576   3.244   4.399  0.1451  0.3726 -0.1252
20446W        W36255   0.982  12.411   1.386  0.2127 -0.1471  0.3767
20447W        W36256   4.208   0.391   3.956  0.2794  0.1629  0.1624
20448W        W36257   1.604   5.790   3.128  0.0016 -0.2769 -0.0008
20449W        W36258  13.905  12.330   0.984 -0.4139  0.1233 -0.0207
20450W        W36259  16.614  13.909   4.009 -0.3440  0.0557  0.0578
20451W        W36260   3.518  12.320  12.694 -0.1275  0.0177 -0.0074
20452W        W36261  10.254  11.513  11.694  0.1525 -0.0502  0.2638
20453W        W36262   2.852   8.227   4.882  0.2814 -0.1735 -0.0313
20454W        W36263   6.133  14.476   1.302 -0.0529 -0.0613  0.0521
20455W        W36264   7.252   8.431  11.287  0.1843 -0.1673 -0.0697
20456W        W36265   8.190  15.731  12.078 -0.1387 -0.1571 -0.0544
20457W        W36266  16.043  13.593   4.648  0.1321 -0.1727  0.0205
20458W        W36267  12.073  17.944  13.220 -0.1350 -0.0620 -0.3138
20459W        W36268  13.546  10.622   4.632  0.1919  0.0023  0.0864
20460W        W36269   7.622   8.081   1.673  0.0139 -0.2356  0.2207
20461W        W36270   9.778  14.753  12.046  0.1080 -0.0478 -0.1161
20462W        W36271   5.310   0.492   6.109  0.3490  0.1151  0.0460
20463W        W36272   3.806   5.340   5.094  0.1433 -0.2179  0.1410
20464W        W36273   0.015   1.079   3.520 -0.0160  0.0646  0.0603
20465W        W36274   5.657  11.079  12.357  0.1767  0.2645 -0.1802
20466W        W36275  15.994  13.961  12.081 -0.0718  0.1624 -0.1948
20467W        W36276   9.661   1.858   0.079 -0.0654 -0.1644  0.0278
20468W        W36277   9.789  15.520   0.469 -0.1858  0.0172  0.2297
20469W        W36278  17.432   9.274  15.726  0.0531  0.1546 -0.0680
20470W        W36279   3.278   8.373  13.886  0.1186  0.2724 -0.1271
20471W        W36280   4.589  18.093  14.381 -0.3317 -0.0506 -0.2387
20472W        W36281   8.698  17.600  12.626  0.4036  0.1813  0.2649
20473W        W36282  16.084  13.912  11.287  0.0868 -0.2731  0.1188
20474W        W36283  12.457   8.550  14.279  0.0942 -0.0556 -0.3755
20475W        W36284  17.415  14.073   1.466  0.2296 -0.3182  0.3446
20476W        W36285  13.982  17.154   1.913  0.0439 -0.1460  0.4577
20477W        W36286  12.681  15.083   3.384 -0.1689 -0.1901  0.1099
20478W        W36287   4.119   1.057   2.365  0.0292 -0.1687 -0.0893
20479W        W36288  14.713   1.824  14.543 -0.1808 -0.0185 -0.0268
20480W        W36289   8.310  16.496  13.474  0.0784  0.3883  0.0000
20481W        W36290   4.037  11.883   0.319 -0.0679 -0.1790  0.0782
20482W        W36291   8.738   4.660   3.484 -0.2070 -0.0934  0.0473
20483W        W36292   5.238  13.573   4.051  0.0981  0.1306 -0.0014
20484W        W36293  16.026  12.549  14.805  0.1723  0.0133 -0.2728
20485W        W36294  14.162  18.117  15.355  0.2685  0.0580  0.1514
20486W        W36295   5.183   2.200  15.683 -0.3291  0.2751  0.0869
20487W        W36296  14.681   6.219  15.777  0.2411  0.3266 -0.0628
20488W        W36297   5.371   4.819  13.241  0.0099 -0.0107  0.0780
20489W        W36298   6.581   7.600   5.483 -0.0289 -0.2651  0.0764
20490W        W36299   2.203   6.103   4.106  0.1536  0.2759  0.0193
20491W        W36300  17.446  10.707   5.470 -0.3092  0.0045 -0.2682
20492W        W36301   9.456   8.944   4.402 -0.0546 -0.1095  0.1329
20493W        W36302   6.636   7.460   4.206 -0.4019  0.2713  0.1749
20494W        W36303   2.179   6.107   1.094  0.0305 -0.0827 -0.1767
20495W        W36304   0.267   0.344  11.212 -0.2179 -0.0361 -0.1860
20496W        W36305  13.930   2.379   2.113 -0.0214  0.1222 -0.0325
20497W        W36306  12.952   7.085  11.628 -0.1651  0.4501  0.1327
20498W        W36307   1.951  17.656  13.054  0.5380  0.0906 -0.2434
20499W        W36308   0.880  17.240   3.633 -0.0181  0.2156  0.1593
20500W        W36309  18.042  16.478   5.476  0.0074 -0.0009 -0.2147
20501W        W36310  13.986  11.991   3.649 -0.1250  0.0318 -0.2500
20502W        W36311   0.761  16.943   5.522  0.0174 -0.1269  0.0687
20503W        W36312  15.439  14.552  10.148 -0.2062  0.0126  0.1637
20504W        W36313   1.336   2.645   5.747 -0.0705  0.0550 -0.0062
20505W        W36314   8.163  13.436  16.193 -0.0850 -0.1404 -0.0309
20506W        W36315   4.439   7.052   0.045  0.1785  0.0366  0.2693
20507W        W36316  11.837  12.254  10.816 -0.1710  0.0253  0.0113
20508W        W36317   5.876  10.423  13.557 -0.1498 -0.0634 -0.1048
20509W        W36318   6.198   6.029   1.263  0.2202 -0.0203 -0.1153
20510W        W36319   6.386   3.534   0.241  0.0556  0.0615  0.1300
20511W        W36320   3.445   9.356  15.214  0.1483 -0.0138  0.1489
20512W        W36321  14.215  13.513   5.995 -0.0439  0.2293  0.1808
20513W        W36322   1.853   0.248  15.331 -0.0847 -0.1510  0.0012
20514W        W36323  10.602  16.472  12.504  0.1168  0.0051 -0.0979
20515W        W36324  12.286  10.085  15.560  0.1838 -0.0169 -0.5315
20516W        W36325  11.534   5.446  13.485 -0.2505  0.1821 -0.0706
20517W        W36326  17.926   1.372   3.088  0.4484  0.0357  0.2589
20518W        W36327   8.860   2.255   2.957 -0.3636  0.0997 -0.2980
20519W        W36328  13.884   4.801  11.522 -0.1179 -0.1108 -0.0143
20520W        W36329  16.304   2.139   1.671  0.0372 -0.1999 -0.3599
20521W        W36330  17.537  10.691  14.556  0.0870  0.1501  0.2796
20522W        W36331   0.211  11.454   4.757 -0.1724 -0.0720  0.0677
20523W        W36332   6.548   0.498  15.731  0.0313  0.0454 -0.0730
20524W        W36333   5.999  12.894  15.007  0.1888 -0.1970 -0.0778
20525W        W36334  17.229  12.635  14.468  0.2327 -0.3052  0.2034
20526W        W36335   0.348   1.354  15.223 -0.0220  0.2662 -0.0793
20527W        W36336  15.984  17.859   3.525  0.1091 -0.0988 -0.1835
20528W        W36337   9.808   3.685  14.061 -0.3696 -0.2206 -0.2163
20529W        W36338  12.488  12.571   3.553 -0.2753  0.0092 -0.1649
20530W        W36339   8.476   0.939  14.069  0.4983  0.0041 -0.1668
20531W        W36340  15.462  17.840   3.443 -0.0047  0.2940 -0.3037
20532W        W36341   6.774  13.786   1.730  0.2450 -0.1211  0.0216
20533W        W36342   4.913  13.672  13.720 -0.1288  0.0171 -0.2163
20534W        W36343  15.843   1.104   3.641 -0.0621 -0.0427 -0.1893
20535W        W36344   4.483   6.598   1.879 -0.2280  0.1732 -0.2150
20536W        W36345  15.352   6.844  15.692  0.0013  0.0316 -0.1700
20537W        W36346  11.733   6.073   3.974  0.0344  0.1685  0.2427
20538W        W36347  15.876  13.880   3.754 -0.0525 -0.1028 -0.2659
20539W        W36348  14.275  13.942   1.348 -0.3259  0.0718 -0.0818
20540W        W36349   8.862   6.843  16.131  0.2763  0.1958  0.0368
20541W        W36350  11.491   3.277   3.442  0.1264  0.1260  0.1932
20542W        W36351   3.825  12.704   0.194  0.2580  0.3170  0.0495
20543W        W36352   7.065  12.184   0.574 -0.5087  0.1913 -0.2176
20544W        W36353   0.372  10.295  11.323 -0.2170  0.1666 -0.0126
20545W        W36354  12.039   2.103  16.007 -0.0890  0.1461  0.1545
20546W        W36355   9.171  13.737   1.287  0.3826 -0.2408  0.1343
20547W        W36356   9.486   8.817   4.866 -0.3576 -0.2043  0.2036
20548W        W36357   2.128   3.515   5.484 -0.1381 -0.0349 -0.0361
20549W        W36358   7.186  13.697   4.882 -0.3525  0.3978 -0.1495
20550W        W36359   3.928   5.260  14.888 -0.0888  0.3258  0.2267
20551W        W36360  15.577  10.573   2.177 -0.0085  0.5357 -0.0352
20552W        W36361  14.464  15.812   2.743 -0.1192 -0.1370 -0.1332
20553W        W36362   1.690  17.094   3.821  0.1955 -0.0508 -0.3309
20554W        W36363   9.525  12.296  12.685  0.0458 -0.2304  0.2382
20555W        W36364   7.425   0.467  15.385  0.0479  0.0156  0.2759
20556W        W36365   1.681  16.698   5.005  0.0637  0.1435  0.3450
20557W        W36366   4.862   0.192  11.326  0.1470 -0.2784 -0.3176
20558W        W36367  13.241  17.328   0.281 -0.0305 -0.0567  0.1609
20559W        W36368   8.603   6.232  11.865 -0.1273 -0.0283  0.1035
20560W        W36369   7.496  11.706  12.243  0.2865  0.2127  0.0691
20561W        W36370   1.143   7.392  11.739  0.2911 -0.0714 -0.1710
20562W        W36371   1.435   1.342   0.613  0.3124 -0.1500 -0.0982
20563W        W36372  16.186  16.412   0.363  0.1279 -0.2909 -0.1467
20564W        W36373  11.134   4.120   2.709 -0.4374 -0.0237  0.0017
20565W        W36374   5.190   2.455   1.311 -0.0770  0.1436 -0.0171
20566W        W36375  16.606  15.061   2.869 -0.2314 -0.2592 -0.1717
20567W        W36376   1.269  15.476  16.018  0.1557 -0.3712 -0.0164
20568W        W36377   6.940  11.666  12.480 -0.1702 -0.0646  0.0187
20569W        W36378  12.245  16.989  14.684 -0.3560 -0.0391 -0.1588
20570W        W36379   3.074   0.310   1.089  0.1782  0.0302  0.1047
20571W        W36380  15.883  14.091   4.410 -0.1679  0.2498  0.0095
20572W        W36381  12.338  11.793   0.014  0.1886  0.4634 -0.0927
20573W        W36382   8.087   5.436   4.089 -0.0020 -0.0544 -0.0199
20574W        W36383   7.758   6.293   0.635  0.2752 -0.2526  0.1009
20575W        W36384  18.114   7.043  15.511  0.0136  0.2234  0.1997
20576W        W36385  14.087  11.465  10.740  0.4274 -0.2385 -0.0688
20577W        W36386  12.466   3.352  12.964  0.2784  0.0184 -0.1070
20578W        W36387   9.497  11.026  11.756 -0.0890  0.2330 -0.0109
20579W        W36388   9.395  11.096   0.915  0.1765 -0.0498 -0.1446
20580W        W36389   5.601  12.791   4.509  0.3756  0.1519  0.2233
20581W        W36390   1.420  15.612  12.149  0.0908 -0.0243  0.3014
20582W        W36391  17.347  13.499  11.217  0.0121  0.1088 -0.0824
20583W        W36392  14.702   2.536   3.771 -0.2085  0.0466  0.1043
20584W        W36393  13.471   5.400   4.073 -0.2635 -0.1495 -0.3434
20585W        W36394  10.693   2.682   5.282 -0.0381 -0.2873  0.0534
20586W        W36395   5.562  11.908  12.009  0.2327  0.0506  0.1429
20587W        W36396  12.010  16.018   2.791  0.1615 -0.2447  0.0512
20588W        W36397  12.674  15.393  13.460 -0.0087 -0.1105 -0.1639
20589W        W36398  14.892   9.868   5.299 -0.0301  0.1901  0.1773
20590W        W36399  10.465  10.481  11.828  0.1583  0.1845  0.3117
20591W        W36400   9.796   8.564  12.504  0.0150  0.2982 -0.0112
20592W        W36401   2.745   4.580   3.344 -0.2287 -0.1018 -0.2482
20593W        W36402   6.375  15.673   4.036  0.3222 -0.0305 -0.2003
20594W        W36403  13.425   7.608   2.641 -0.2778 -0.2031  0.2146
20595W        W36404   5.301   7.361   3.889 -0.3694  0.2941  0.0564
20596W        W36405   1.873   5.166  15.479  0.0993 -0.0175  0.3759
20597W        W36406  14.152   7.424  13.324 -0.4808  0.1740  0.0941
20598W        W36407  14.906   8.067  13.110 -0.0313  0.0171  0.0740
20599W        W36408  15.232   2.608  13.286  0.1090  0.2417  0.1237
20600W        W36409  14.398  13.551   2.660 -0.0293  0.4892  0.1265
20601W        W36410   8.546  14.059   5.055 -0.0231 -0.1520  0.3712
20602W        W36411   7.767  16.096  14.651 -0.1382  0.0226  0.4132
20603W        W36412   4.943   6.580  11.171  0.0956  0.0731 -0.0236
20604W        W36413  12.160  15.114   2.398 -0.1119 -0.0172 -0.0405
20605W        W36414  17.011   9.573   1.287 -0.0388  0.1251 -0.1758
20606W        W36415  10.783   2.008  15.200 -0.3363 -0.1509 -0.0121
20607W        W36416   6.587   4.500  12.536 -0.0842  0.0251  0.1340
20608W        W36417  17.785   7.124   0.833 -0.1182 -0.0009 -0.0076
20609W        W36418  18.189   8.746  16.083  0.1778  0.2118 -0.1234
20610W        W36419  16.129   6.419   2.922  0.2010  0.0415  0.0455
20611W        W36420  17.363   1.070  15.731 -0.1695 -0.1154  0.3180
20612W        W36421   6.514  16.881  15.715 -0.2463 -0.1488  0.0473
20613W        W36422   4.182  13.955  14.459 -0.1295  0.1077  0.1493
20614W        W36423  12.741  11.268  16.289  0.0797 -0.0607  0.0228
20615W        W36424  16.221   1.165   4.705  0.0468  0.0820 -0.1544
20616W        W36425   9.748   7.751  13.452  0.1754  0.2293  0.2435
20617W        W36426  12.224   9.937   0.134 -0.1134 -0.1509  0.0044
20618W        W36427   7.600   5.870   0.328 -0.3224 -0.3762  0.4259
20619W        W36428   8.435  12.452  12.551 -0.1081  0.1846 -0.0300
20620W        W36429  15.243   4.995   1.728  0.0583  0.0558  0.0104
20621W        W36430  12.087   4.330   0.282  0.0453  0.1056  0.1161
20622W        W36431  11.760   2.185   2.808 -0.1682 -0.1602  0.1001
20623W        W36432   8.522  15.291   3.246  0.0633  0.2630 -0.0466
20624W        W36433  13.115   5.838  11.592  0.0507  0.1136 -0.0444
20625W        W36434   4.356  17.542  15.917  0.1538  0.2210 -0.1692
20626W        W36435  10.731  14.416  12.983 -0.3562 -0.1554 -0.0347
20627W        W36436  18.008  15.206  15.325  0.0295  0.0546  0.0832
20628W        W36437   9.926   9.383  15.426  0.2026  0.0600 -0.2935
20629W        W36438   6.457   6.011   4.442  0.1512 -0.0645  0.3322
20630W        W36439  10.043   9.732  13.699  0.1139  0.4154 -0.1592
20631W        W36440  12.095   0.361  11.180 -0.3473 -0.1184 -0.0497
20632W        W36441  14.117  13.287   0.671  0.0186 -0.0853  0.2271
20633W        W36442   1.891   3.555  14.945  0.0004  0.2458  0.0911
20634W        W36443   3.113  11.641  13.959 -0.1139 -0.3703  0.3216
20635W        W36444   3.856   6.818  15.687  0.1701  0.1420  0.1969
20636W        W36445   3.165   3.926  12.124  0.1045  0.1196 -0.1337
20637W        W36446  17.250  12.247   5.401 -0.0767 -0.0687  0.0976
20638W        W36447   2.424   1.685  15.242  0.2714  0.1552 -0.0565
20639W        W36448  12.789   2.862   0.742  0.2204  0.0186  0.0201
20640W        W36449  16.049  10.281  14.762  0.0648 -0.1629 -0.1726
20641W        W36450   0.108   6.525  14.545  0.0564  0.1847 -0.1841
20642W        W36451   7.946   0.825  14.928 -0.1595 -0.3046 -0.0678
20643W        W36452   8.902   0.019   1.539 -0.1089 -0.3316  0.1750
20644W        W36453  12.903  14.401   3.599 -0.0662  0.0471  0.1449
20645W        W36454   4.138   4.537   3.648 -0.2786 -0.0606 -0.1846
20646W        W36455  11.504   0.996  15.996 -0.0977  0.0533  0.1367
20647W        W36456  14.795   7.432  15.222 -0.0711  0.0237  0.1539
20648W        W36457   1.938  14.985  15.396  0.0217 -0.0288 -0.0401
20649W        W36458  15.772  14.785   2.626  0.1925 -0.3077 -0.0103
20650W        W36459   0.739   0.656   2.461 -0.0969 -0.0033 -0.1519
20651W        W36460  10.474   8.232   3.141 -0.0572  0.1999 -0.0676
20652W        W36461  16.819   6.840   1.167 -0.4233  0.3064 -0.1730
20653W        W36462   0.919   8.194   1.514 -0.0447  0.0557  0.1129
20654W        W36463   7.994  11.060   4.185  0.0603  0.2315  0.0065
20655W        W36464   6.297  17.003  12.612  0.0002  0.2656 -0.1476
20656W        W36465  16.624   3.318   3.583 -0.1943 -0.7632  0.0307
20657W        W36466  14.336  15.851   1.731 -0.2155  0.2735  0.0194
20658W        W36467  14.500  11.098   4.639 -0.1021  0.3395 -0.3402
20659W        W36468  17.427   7.968   3.702  0.0200 -0.0685 -0.0268
20660W        W36469   5.433  14.126  13.469 -0.0776  0.0024  0.0324
20661W        W36470   0.137  17.550  13.323 -0.0510 -0.0762 -0.1804
20662W        W36471  15.188   7.497   4.554 -0.2801  0.0183  0.1873
20663W        W36472  16.509   1.634   3.382  0.1096 -0.0712  0.1229
20664W        W36473   3.679   3.131   4.457 -0.1872 -0.1891 -0.0469
20665W        W36474  15.665  11.116  15.991 -0.0932 -0.1141  0.1765
20666W        W36475   8.017   3.404   4.633  0.0626 -0.0938  0.1141
20667W        W36476  17.378  12.767   5.288 -0.1393  0.3362  0.1730
20668W        W36477   3.199   1.958  12.268 -0.3577  0.1492 -0.0382
20669W        W36478   9.594   0.821  13.650 -0.1896  0.0415  0.0035
20670W        W36479  13.711  11.887   0.650  0.0110  0.1009  0.0268
20671W        W36480  15.049  17.952  11.807  0.1463  0.0007  0.0288
20672W        W36481  12.477  10.077  13.660  0.0436 -0.0378  0.0538
20673W        W36482   2.703  10.997  12.870  0.2665 -0.1595  0.2067
20674W        W36483  12.421   6.286   0.687 -0.0612  0.0020 -0.0757
20675W        W36484   5.129   0.391   2.877  0.0310 -0.1151  0.2794
20676W        W36485  12.769   9.619  15.800 -0.1044  0.1107  0.2189
20677W        W36486  11.761  16.449  11.737  0.0021  0.0980 -0.0928
20678W        W36487  11.985   9.435  11.207 -0.0689  0.0068  0.0410
20679W        W36488   7.448   5.709  15.425 -0.0649  0.2022 -0.2871
20680W        W36489   4.305   3.518   4.215 -0.0428 -0.3358 -0.1361
20681W        W36490  12.902  12.057  12.371 -0.0017 -0.3121  0.1759
20682W        W36491   0.486  16.734  15.964 -0.0934  0.2347 -0.1062
20683W        W36492   3.219   0.920   3.229 -0.3144 -0.1071  0.2694
20684W        W36493  15.266   9.833  14.193  0.1356  0.0068 -0.1103
20685W        W36494   4.360   5.405   2.875 -0.1298 -0.2917 -0.0960
20686W        W36495   7.299  14.702   6.387  0.0444 -0.1176 -0.1441
20687W        W36496   0.381   2.155  15.836  0.0844 -0.1937  0.0069
20688W        W36497   8.607   0.465   1.487 -0.0511  0.0249  0.0416
20689W        W36498   9.753   5.365   2.500  0.0541 -0.1236 -0.0115
20690W        W36499  12.079   2.580  15.764 -0.3713 -0.0775 -0.0880
20691W        W36500  13.594   5.777   2.444  0.4673  0.0840 -0.0724
20692W        W36501  14.680  10.274  13.582 -0.1564  0.2703  0.3437
20693W        W36502  14.020  11.136   1.912 -0.1643 -0.0503  0.0086
20694W        W36503   3.876   3.944  14.348  0.2320  0.2493  0.0575
20695W        W36504   5.617   4.996   1.673 -0.2461  0.1877 -0.1345
20696W        W36505   1.051   8.978  13.735  0.2322 -0.0806 -0.1100
20697W        W36506   2.960   0.983   3.963 -0.0950  0.0095  0.3282
20698W        W36507   3.174   0.684  11.620 -0.0712  0.0184  0.0851
20699W        W36508  11.935  10.429   3.358 -0.4538 -0.0151 -0.2532
20700W        W36509   4.072  13.570  13.223  0.1836  0.0281  0.0344
20701W        W36510   0.628  16.884   0.736 -0.3371 -0.3368  0.0004
20702W        W36511   6.275  14.025   5.414  0.0054  0.1980  0.0676
20703W        W36512  11.001  17.326  13.944  0.0046 -0.2915  0.0435
20704W        W36513  13.370  12.296   3.452  0.2376  0.4274 -0.1533
20705W        W36514   0.932  12.431  13.029  0.1450 -0.1391 -0.0853
20706W        W36515   4.025  12.552   1.434  0.1138  0.0381 -0.1363
20707W        W36516  17.594  10.948   1.053  0.3391  0.1476 -0.3236
20708W        W36517   4.751  13.157  15.450 -0.0279 -0.3980  0.0921
20709W        W36518  12.368  17.353   4.345  0.1047 -0.2510 -0.1414
20710W        W36519   5.554   8.396  12.055 -0.1838  0.0762 -0.2078
20711W        W36520   5.876   0.281   4.633  0.3184 -0.0151 -0.0969
20712W        W36521   7.879  12.638   3.867  0.0350  0.2432 -0.0891
20713W        W36522  13.833   6.707   4.327 -0.2762  0.1621  0.2212
20714W        W36523   2.335  14.810   2.482  0.1159 -0.0002 -0.1706
20715W        W36524   6.362  13.634   4.265 -0.3127 -0.0825 -0.0577
20716W        W36525   8.118   6.408  15.586  0.0017 -0.0052  0.0431
20717W        W36526   9.713  12.551   3.651  0.0805 -0.1439  0.0494
20718W        W36527  12.979   8.914  13.138 -0.1416  0.2490  0.0046
20719W        W36528  12.099   2.477  14.767  0.0267  0.0074 -0.1889
20720W        W36529   2.473   3.224   3.347  0.1316 -0.1131  0.1510
20721W        W36530   3.454  10.039   5.055 -0.0318  0.1807  0.1429
20722W        W36531   7.425   0.217   2.241  0.1517 -0.1777 -0.0752
20723W        W36532   0.949   0.076   5.083 -0.1165 -0.0938 -0.0056
20724W        W36533  10.975   9.113  14.060  0.2126  0.0481  0.2449
20725W        W36534   1.567  18.213  13.041 -0.1518 -0.1310  0.0933
20726W        W36535  14.816   2.628  13.061 -0.0338 -0.2126  0.3706
20727W        W36536   0.576   1.570   0.456  0.0137  0.1547 -0.1159
20728W        W36537  11.076  15.712  11.540 -0.0608 -0.2328  0.0780
20729W        W36538  17.393   4.005   2.549  0.1901 -0.4120 -0.0166
20730W        W36539  14.672  12.108  11.244 -0.0151 -0.0884 -0.0124
20731W        W36540   2.070  15.348   5.287  0.0359 -0.5314  0.0149
20732W        W36541  10.784  16.152  15.138  0.0974  0.0438  0.1238
20733W        W36542  18.070   1.084   4.025 -0.1169  0.0693  0.0980
20734W        W36543   8.068   1.978   2.630  0.1891 -0.1723 -0.2596
20735W        W36544  10.635   8.651   2.304 -0.0376  0.2656  0.0874
20736W        W36545  15.266  10.892   2.920  0.0375 -0.0816 -0.1860
20737W        W36546  14.653  10.727  11.062 -0.0102  0.1522  0.0442
20738W        W36547   6.884  14.394   6.292 -0.2785 -0.0661 -0.0687
20739W        W36548   5.131   9.326   3.532  0.1497  0.0019  0.1844
20740W        W36549  18.153  10.935   3.896  0.1192 -0.0458 -0.0568
20741W        W36550   7.870   6.884  12.221 -0.2505 -0.2718  0.3395
20742W        W36551   4.765  12.775  10.928 -0.1042  0.2067 -0.0265
20743W        W36552   3.233   3.957   0.936 -0.1571  0.1042 -0.0059
20744W        W36553   1.075  16.965  12.426  0.0526 -0.2853 -0.0512
20745W        W36554  10.833   9.919  14.230 -0.0945  0.1279  0.0839
20746W        W36555  10.750  15.393   4.066 -0.2694 -0.0054 -0.0662
20747W        W36556   9.049   7.066  11.262  0.0924  0.2920  0.4379
20748W        W36557   3.038   9.182  13.600 -0.1071  0.0349  0.2042
20749W        W36558   9.526   7.682  12.713  0.1465  0.3366  0.1949
20750W        W36559  16.676   8.632   2.586  0.1182  0.1206  0.1146
20751W        W36560  10.797  12.347  14.878 -0.1951  0.1933  0.3989
20752W        W36561   6.812   4.629  13.514 -0.0908  0.1837  0.1517
20753W        W36562  17.698   8.866   1.273 -0.0459 -0.4170 -0.0187
20754W        W36563   7.267   7.531  11.821 -0.1245  0.1276  0.1630
20755W        W36564   8.962  13.814   5.377  0.1454  0.0610 -0.1973
20756W        W36565   2.051  12.459  16.054 -0.1459 -0.1780  0.1968
20757W        W36566  10.346  10.409  14.573  0.0476 -0.0652  0.0369
20758W        W36567   7.219  16.799  11.930 -0.2317  0.0939  0.0618
20759W        W36568   9.982  16.604  12.721 -0.2898  0.1139  0.0883
20760W        W36569  12.455  16.298  15.535 -0.0182  0.0167  0.3988
20761W        W36570  16.054   6.029   3.902 -0.0893  0.0006 -0.2517
20762W        W36571  10.406  10.836   4.661  0.0595  0.2826 -0.1636
20763W        W36572  16.357   6.638  11.255  0.2493  0.0882 -0.0694
20764W        W36573   5.606   8.912  12.042  0.4746 -0.0410  0.0845
20765W        W36574   7.538   0.064  12.287  0.0176  0.2064 -0.2202
20766W        W36575  14.324   9.077   4.032  0.0526  0.1919 -0.1843
20767W        W36576  14.138  13.858   3.199 -0.0728  0.0724 -0.1126
20768W        W36577   6.801  14.543  13.690 -0.0555  0.4606 -0.2087
20769W        W36578   1.676   9.668  12.453  0.1320 -0.0387  0.0292
20770W        W36579   1.438  10.739   2.379 -0.1872 -0.0130 -0.4107
20771W        W36580  13.700   6.429   1.208  0.3844  0.2871  0.3865
20772W        W36581  15.740   7.278   3.400 -0.2018  0.1659  0.2689
20773W        W36582  14.865  13.077   4.236 -0.0037  0.0433 -0.0903
20774W        W36583  17.454   9.215  15.094  0.3088 -0.3052  0.3215
20775W        W36584  11.593  14.931   3.130 -0.0012  0.0053 -0.4717
20776W        W36585  15.535   6.438   5.574  0.0743 -0.3726  0.0077
20777W        W36586  16.287  15.590  13.202  0.0696  0.2146  0.0285
20778W        W36587   4.916  14.832  12.849  0.0147 -0.0364 -0.0567
20779W        W36588   4.332  12.133   1.497  0.1029  0.1579 -0.1821
20780W        W36589   8.240   7.546   0.696  0.0463  0.1048  0.1401
20781W        W36590   9.728  12.345   0.246 -0.0354  0.0018 -0.1600
20782W        W36591   9.274   0.066  13.213  0.0581 -0.3021  0.0440
20783W        W36592  15.815   1.573   3.005  0.0521 -0.0031 -0.0116
20784W        W36593  16.342  10.497  11.910 -0.2483  0.3963 -0.3067
20785W        W36594   7.313   7.986   4.832 -0.1013  0.0905 -0.0842
20786W        W36595  18.110  11.909  15.160  0.2311  0.0110  0.1104
20787W        W36596  11.321   4.023  10.900 -0.1123 -0.0591  0.2109
20788W        W36597  13.742  12.026   3.231 -0.0703 -0.4544 -0.1472
20789W        W36598  16.900  17.745   2.734  0.1985  0.1867 -0.2372
20790W        W36599   8.308  10.084   1.435 -0.1386  0.0303 -0.0467
20791W        W36600  17.090   8.148  12.400  0.1791  0.2892  0.0592
20792W        W36601   8.007  15.917   0.714  0.0080  0.0794  0.2151
20793W        W36602   7.392   2.511   2.330 -0.1213  0.0031 -0.0087
20794W        W36603   8.249  16.056   3.380  0.0292 -0.1616 -0.1359
20795W        W36604   2.840  15.353   1.687 -0.4794 -0.0531  0.0752
20796W        W36605   2.733  11.137  15.901 -0.1818  0.1420 -0.3304
20797W        W36606   6.780   4.362  11.511  0.1903 -0.2801 -0.0938
20798W        W36607   8.856   3.094   4.620 -0.0208 -0.1232 -0.1230
20799W        W36608  10.456   9.404  11.678 -0.0912  0.1426 -0.1866
20800W        W36609  11.527   5.354   4.994 -0.0168  0.2822  0.0034
20801W        W36610   4.235  14.442   3.860  0.3854 -0.0311 -0.1340
20802W        W36611   4.585  13.508   0.402 -0.0118 -0.1096 -0.0614
20803W        W36612   7.443  15.003  16.199 -0.0207  0.0086 -0.0692
20804W        W36613  14.557  12.319  14.288  0.0582 -0.1437  0.0063
20805W        W36614   9.665  17.501   2.996 -0.2177 -0.0570 -0.3177
20806W        W36615  16.516   6.567  14.031  0.3751  0.4848 -0.1224
20807W        W36616   3.304   2.416  12.273 -0.2270 -0.1951 -0.0495
20808W        W36617   4.492  16.303  15.376  0.3615  0.0826 -0.0302
20809W        W36618   1.869   7.444   2.475  0.1543  0.2089 -0.2064
20810W        W36619  10.198   5.823  14.597  0.0321 -0.3254 -0.5907
20811W        W36620  14.277   1.863  12.780 -0.0872 -0.1582  0.0773
20812W        W36621  13.818  15.380  13.928  0.0186 -0.0922  0.1169
20813W        W36622   7.010  16.464   4.521  0.1803  0.0270  0.2233
20814W        W36623  18.203  18.133   4.449 -0.1099 -0.2371 -0.0142
20815W        W36624  14.354  18.160  15.833 -0.0768 -0.0288 -0.1341
20816W        W36625   5.399   5.728   0.718 -0.0961  0.1534 -0.0024
20817W        W36626  16.152   1.894  14.611 -0.0217  0.1063  0.1046
20818W        W36627   6.258   6.272  12.675  0.0152  0.0679  0.0560
20819W        W36628  17.889   1.543  12.042  0.0435 -0.1702 -0.1582
20820W        W36629   3.511  11.140  14.070  0.7751 -0.0081 -0.0491
20821W        W36630   4.279   8.317   1.597 -0.3599 -0.0205 -0.1156
20822W        W36631   6.372   2.383   3.646  0.0060 -0.1298 -0.1132
20823W        W36632   5.731   7.310   0.553 -0.0956 -0.2088 -0.2202
20824W        W36633   5.216  11.967   4.480 -0.1628 -0.1554 -0.2024
20825W        W36634  16.049  14.326   5.392 -0.0669  0.2711 -0.2757
20826W        W36635   0.691   2.529   2.909 -0.1040  0.0076 -0.1169
20827W        W36636   7.438  15.129   4.858 -0.1424  0.2069  0.1623
20828W        W36637  11.549   2.615  12.137 -0.0225  0.3115 -0.0959
20829W        W36638   9.858  12.334   3.213 -0.0564  0.4135 -0.1276
20830W        W36639  11.948   0.418  14.981 -0.0109  0.2062  0.2368
20831W        W36640   2.907   9.812   1.094  0.2070  0.4058 -0.1982
20832W        W36641   4.116  12.082   5.300 -0.1664  0.0272 -0.2352
20833W        W36642   5.472  12.918   3.569  0.0795  0.2957 -0.0486
20834W        W36643   2.245   3.793  14.054 -0.0269 -0.0076  0.0917
20835W        W36644  11.271   7.540  12.702  0.1823 -0.0341 -0.4825
20836W        W36645  15.202  11.361  16.136  0.3441 -0.2203 -0.2287
20837W        W36646   8.189  18.211  16.203 -0.0324 -0.0688 -0.4002
20838W        W36647   1.029  11.167  15.734  0.2399  0.0028 -0.3381
20839W        W36648  16.001  15.180  12.738  0.1132  0.0125  0.0705
20840W        W36649   4.087   7.787  12.472 -0.1609 -0.0814  0.0666
20841W        W36650  11.870   2.252   3.390  0.0157  0.1063  0.0496
20842W        W36651  12.683   8.638   0.686  0.0112 -0.0614  0.3175
20843W        W36652  16.434  14.462   1.533 -0.0133  0.2555 -0.0843
20844W        W36653  12.209  14.747  12.343  0.0103 -0.0911 -0.3006
20845W        W36654  16.355  15.087  15.926  0.2430  0.4322 -0.0560
20846W        W36655   7.255  14.280  14.959  0.1890  0.2671  0.2457
20847W        W36656   2.479  13.483  11.291  0.2264  0.0660 -0.2341
20848W        W36657  15.652  18.041   3.986 -0.3211 -0.0811  0.0417
20849W        W36658   8.804  17.068   5.504 -0.1034  0.0487  0.1530
20850W        W36659   0.000   8.275   1.987  0.0542  0.1605  0.0232
20851W        W36660   8.203   0.679   0.684  0.3269  0.0456  0.0270
20852W        W36661  10.299  11.307   2.742  0.0809 -0.2248 -0.1899
20853W        W36662   8.213   1.595   3.286 -0.0708 -0.0847 -0.1610
20854W        W36663   8.184   2.598   0.558 -0.0952 -0.3198 -0.0349
20855W        W36664   2.877  12.023   5.765  0.0096  0.0804  0.0391
20856W        W36665   7.043  11.352   4.879  0.2977 -0.1321 -0.0307
20857W        W36666  12.437  13.216   4.573  0.1867 -0.0305  0.0508
20858W        W36667   1.609  16.833  10.883  0.0754  0.0431  0.3609
20859W        W36668  16.566  15.370  11.168 -0.1801 -0.1171  0.0932
20860W        W36669  17.687   6.325   5.227  0.3699 -0.1240 -0.3616
20861W        W36670   6.547   6.156   1.586  0.2173  0.3854  0.0750
20862W        W36671  14.685   6.261   0.562  0.1999  0.1481 -0.2882
20863W        W36672   9.875   1.858   6.156  0.1806 -0.1762 -0.2484
20864W        W36673   2.992  11.967  13.550  0.0132 -0.0946 -0.1904
20865W        W36674   5.608   5.666   2.038  0.2879  0.3059 -0.1729
20866W        W36675  14.199  10.364  13.636 -0.1121 -0.0270  0.0009
20867W        W36676   8.057  14.923  15.218 -0.3642  0.1867 -0.2191
20868W        W36677  10.502  16.082   3.884 -0.0804 -0.0015  0.0986
20869W        W36678  12.954   8.271   2.128  0.0225 -0.0411 -0.1894
20870W        W36679   3.232   2.988   0.530 -0.2817 -0.1251  0.0485
20871W        W36680  16.675  17.398  12.113 -0.1417 -0.1515  0.5328
20872W        W36681  17.119   0.912   1.008  0.1717 -0.2025 -0.0701
20873W        W36682  13.275  14.801  13.281  0.5077 -0.2998 -0.2791
20874W        W36683  10.086  10.156  12.104 -0.0707 -0.3619 -0.0336
20875W        W36684  12.390   2.002   1.062  0.3536  0.0675 -0.0214
20876W        W36685   0.272  17.328  15.407 -0.0241  0.0922  0.0855
20877W        W36686   6.486  12.929  13.677 -0.0976 -0.1560  0.0390
20878W        W36687  14.890  17.588  12.212 -0.0453  0.3907 -0.0605
20879W        W36688  14.731   0.512  12.117 -0.2256 -0.0305 -0.3310
20880W        W36689  10.825   4.570  14.683 -0.2153 -0.1662  0.0409
20881W        W36690  10.911   0.173   1.587  0.3195  0.2229 -0.0970
20882W        W36691   5.520   7.263  11.841  0.1149 -0.0634  0.1958
20883W        W36692   9.317   0.194  11.130 -0.0727 -0.0007  0.1471
20884W        W36693  17.712   3.982   1.904 -0.0908  0.3135  0.2086
20885W        W36694   8.825   5.478  10.931 -0.2088 -0.0479 -0.0485
20886W        W36695   0.948   4.646   4.433  0.0829 -0.0232  0.0101
20887W        W36696  14.852   9.915  15.814 -0.1828  0.0801 -0.1112
20888W        W36697  13.674  12.386  14.332 -0.1148 -0.2528 -0.0928
20889W        W36698  13.242  16.037   1.267  0.0401 -0.2410  0.1624
20890W        W36699   0.916  10.357  16.229 -0.2109 -0.0825  0.2326
20891W        W36700   9.578  13.162   5.407  0.1575 -0.3989 -0.1033
20892W        W36701  13.195   8.769  12.261 -0.4025  0.1810 -0.0123
20893W        W36702  17.906  13.513  12.603  0.1933 -0.1957  0.1281
20894W        W36703  16.567   1.159  15.640  0.2520 -0.1556 -0.1953
20895W        W36704   4.954   6.018   1.418  0.0961  0.0572  0.2594
20896W        W36705   9.239  13.747  14.742  0.0325 -0.2179  0.0323
20897W        W36706   3.672   1.943   1.464  0.1313 -0.3437  0.0263
20898W        W36707  17.237  12.369  12.983 -0.1711  0.3389  0.1737
20899W        W36708   0.175   4.926   0.831  0.2440  0.1185  0.1178
20900W        W36709   3.952  17.937  15.244 -0.2530  0.1840  0.2442
20901W        W36710  18.087   5.145   4.173 -0.3357  0.1486  0.0051
20902W        W36711   9.014   2.442   3.915 -0.0414  0.0850  0.0545
20903W        W36712   1.908   2.008   4.536 -0.1678 -0.0719 -0.0138
20904W        W36713  10.283   2.558   3.884  0.1173  0.0620 -0.0240
20905W        W36714   1.978  15.206   2.085  0.1296 -0.2905  0.0228
20906W        W36715  14.896   1.117  14.150 -0.1429  0.1385  0.0924
20907W        W36716   4.408   3.323  13.449 -0.2688  0.2854 -0.0111
20908W        W36717  12.943  11.269   1.900 -0.2743 -0.0424  0.1384
20909W        W36718  15.483   4.528   3.972 -0.3054  0.1171  0.0738
20910W        W36719  17.157  12.111   3.891  0.0856 -0.0904  0.1670
20911W        W36720  10.110  14.778   1.879 -0.0838  0.2228  0.0305
20912W        W36721  14.509  15.524  16.019 -0.0179  0.2231 -0.3150
20913W        W36722  15.638  12.296  12.670  0.4996 -0.0133 -0.4498
20914W        W36723   7.049  12.660   4.309 -0.1132  0.0059  0.0273
20915W        W36724   4.350  16.969  14.600  0.1231 -0.0497  0.0329
20916W        W36725   5.019  12.199   0.079 -0.0063  0.0654  0.0157
20917W        W36726   0.139   7.863   2.355  0.1442 -0.2459  0.1085
20918W        W36727   5.198  12.805   5.266 -0.3385  0.3852 -0.2349
20919W        W36728   3.396   9.356   4.255  0.1399 -0.2507 -0.0903
20920W        W36729   2.143  16.633  14.465  0.2855  0.3710 -0.3022
20921W        W36730  17.402   5.700  13.281  0.0785  0.1428  0.0502
20922W        W36731  12.927  10.527  12.528 -0.1335  0.0252  0.1654
20923W        W36732  16.421   7.731  15.777  0.3782  0.3577 -0.0813
20924W        W36733   5.842  15.402   5.132 -0.1891 -0.2306 -0.2234
20925W        W36734  16.150   7.425  12.891  0.0669 -0.0395  0.3183
20926W        W36735  14.971   2.554   6.088 -0.4316  0.1768 -0.0763
20927W        W36736  17.600  10.469   4.733  0.1085 -0.0594 -0.1976
20928W        W36737   9.389  12.830   3.407 -0.1435 -0.1870 -0.4314
20929W        W36738  15.129   5.146   0.159  0.0811 -0.0550  0.1126
20930W        W36739   5.631   2.432  13.968 -0.0593  0.0585 -0.3594
20931W        W36740   1.027  15.168   4.380 -0.1507  0.0139  0.3255
20932W        W36741   8.465  13.913   3.190 -0.1818 -0.5119 -0.0189
20933W        W36742   4.887  11.478  14.036 -0.0737  0.6356 -0.0273
20934W        W36743   5.091  18.153   1.757  0.1728 -0.1192  0.1867
20935W        W36744  12.748   0.799   5.122  0.0728 -0.1499 -0.3473
20936W        W36745   5.296  14.002   1.930 -0.4374  0.0607 -0.1217
20937W        W36746   5.349  16.465  14.428  0.5268  0.1135  0.1198
20938W        W36747  11.367  10.532   0.097  0.0283  0.3127  0.0326
20939W        W36748   1.594   2.426  13.882 -0.1386 -0.1273 -0.0303
20940W        W36749  15.789  16.663  12.331  0.0224 -0.2156 -0.1450
20941W        W36750   6.159   6.432   4.657 -0.0367 -0.2032  0.0292
20942W        W36751  10.982   0.206   2.775 -0.0514 -0.0513 -0.2886
20943W        W36752   7.303   9.708  13.332 -0.0250  0.2560 -0.1456
20944W        W36753   4.420   3.758  11.676 -0.1648 -0.0238 -0.0153
20945W        W36754  12.657  13.539  12.336  0.0294 -0.2134  0.1489
20946W        W36755   9.716   9.854   5.056  0.0016 -0.0321 -0.1462
20947W        W36756  15.197   8.259  14.600 -0.2429 -0.0681  0.2002
20948W        W36757   5.867   6.354  16.270 -0.1830  0.4222 -0.1789
20949W        W36758   4.209   8.048   5.159  0.0508  0.0828 -0.0467
20950W        W36759  11.348  17.048   1.828  0.1565  0.1268 -0.2033
20951W        W36760  11.108   7.188   5.121  0.2522  0.2108  0.0494
20952W        W36761  14.537   6.950   3.462 -0.0787 -0.1556  0.1448
20953W        W36762  11.151   3.613   1.765 -0.0857 -0.2410 -0.1453
20954W        W36763   8.648   3.903   3.895 -0.2051  0.0502 -0.2862
20955W        W36764  10.839   4.491  14.179  0.2129  0.1950 -0.2415
20956W        W36765   0.587  17.625  15.061  0.1497  0.1309  0.3892
20957W        W36766  14.289   7.914  11.925 -0.0505 -0.2384  0.1016
20958W        W36767  17.552   2.133   1.372 -0.0124 -0.0059 -0.0957
20959W        W36768  13.472   8.043   2.398  0.2389 -0.3838 -0.1606
20960W        W36769  16.828   2.767  11.363 -0.1261 -0.0102 -0.0415
20961W        W36770   3.259   1.348  14.832  0.0447 -0.0181 -0.0807
20962W        W36771   6.764   9.934  15.888  0.0526  0.0268 -0.0815
20963W        W36772   4.110   8.104   3.746  0.0017 -0.0834  0.0227
20964W        W36773  17.850   4.933   4.605  0.2223  0.3050 -0.0888
20965W        W36774  10.346  14.762   4.598 -0.0318 -0.0210 -0.0236
20966W        W36775   5.477   3.270   3.236  0.0843 -0.0639 -0.0141
20967W        W36776   8.161   4.997  15.722 -0.0898  0.1361 -0.1899
20968W        W36777  17.278   0.317   4.912  0.0759  0.2214 -0.1979
20969W        W36778   0.679  13.172   6.095 -0.2144  0.1034 -0.0629
20970W        W36779   3.786   1.811  11.718 -0.0259  0.1765 -0.1586
20971W        W36780   1.403  12.115   1.901  0.1172 -0.3090 -0.0585
20972W        W36781   2.380   6.666   5.703  0.1247 -0.0100 -0.0415
20973W        W36782  14.875   5.680   2.988  0.0738  0.0775 -0.2179
20974W        W36783  16.498  13.393   0.098  0.0350 -0.1281 -0.0008
20975W        W36784  15.207   9.877   2.730 -0.2257  0.0766 -0.1051
20976W        W36785   3.106  15.982  14.810 -0.0421 -0.2241 -0.0457
20977W        W36786   6.281  12.668   4.865 -0.2826  0.0104  0.1795
20978W        W36787  16.995  17.569  15.610  0.2083  0.0173  0.2386
20979W        W36788   7.259   2.421   4.568  0.0720 -0.2012 -0.0695
20980W        W36789   8.345   6.784  13.502  0.2143 -0.0138  0.1613
20981W        W36790  15.899   8.971   2.158 -0.0082 -0.1612 -0.2949
20982W        W36791  11.983   0.006  15.283 -0.0577 -0.0838 -0.1451
20983W        W36792   8.286  18.144   4.213  0.1337  0.0503 -0.0078
20984W        W36793   2.825  10.964   4.931  0.1530  0.0720  0.2019
20985W        W36794  10.464   0.530   2.975  0.1645 -0.1671  0.1824
20986W        W36795   5.398   5.878  14.786 -0.0995 -0.0547 -0.1505
20987W        W36796  12.160   0.988  11.763 -0.1705  0.2505 -0.4719
20988W        W36797   0.302   7.937   1.802  0.3256 -0.0417 -0.0934
20989W        W36798   2.082   9.405  15.482  0.1988  0.0183 -0.0331
20990W        W36799  12.058   5.675   3.947  0.0852 -0.0189 -0.1206
20991W        W36800   4.343  12.151   0.628 -0.0928  0.3084  0.0357
20992W        W36801  16.584   3.704  14.635 -0.0855  0.2136  0.2608
20993W        W36802   2.731   0.866  16.242  0.0748  0.5826 -0.1028
20994W        W36803   4.683   6.963   3.934  0.3216  0.1228 -0.0677
20995W        W36804  10.219  13.664   2.076  0.1438 -0.0605  0.2167
20996W        W36805   2.120   0.105  12.314  0.3116 -0.0456  0.1590
20997W        W36806  15.806   6.908  15.993  0.0232  0.0804 -0.1468
20998W        W36807   2.183   8.770   5.389  0.1003 -0.1444 -0.1574
20999W        W36808   5.030   1.173   5.687  0.0602  0.0006 -0.0737
21000W        W36809   7.911   8.644   3.217 -0.4185 -0.1365 -0.2793
21001W        W36810  13.694   1.065  16.215 -0.1904 -0.1311  0.1516
21002W        W36811  16.876   0.403   5.327  0.0495 -0.2226 -0.0638
21003W        W36812  16.663   8.639  16.108 -0.2147 -0.0354 -0.2318
21004W        W36813  15.627   7.376  15.652 -0.0677  0.1806  0.0772
21005W        W36814  14.172   3.260   3.793  0.1302  0.0370 -0.0559
21006W        W36815  15.665  15.950  15.112  0.1603  0.0031 -0.3263
21007W        W36816  13.067   4.417  11.509 -0.1015 -0.0133 -0.0795
21008W        W36817  16.684  16.659  14.450 -0.1166  0.4202  0.1097
21009W        W36818  10.559  14.249  15.337  0.1575  0.2822  0.1227
21010W        W36819   3.423   3.975   3.870  0.0611 -0.3882 -0.0139
21011W        W36820  10.250  12.294  12.445  0.1209 -0.1194  0.0044
21012W        W36821   7.028  17.340   0.048 -0.0708  0.1640 -0.2330
21013W        W36822   2.786  14.453  13.076  0.0199  0.2480 -0.0547
21014W        W36823   0.639   4.927   0.524 -0.2262 -0.0127 -0.0945
21015W        W36824   0.871  15.526   1.035  0.0040 -0.3849  0.1731
21016W        W36825  16.108  13.090   3.212  0.2728 -0.1316  0.1195
21017W        W36826   4.534  14.783  12.191 -0.1686 -0.2937 -0.0475
21018W        W36827  11.207  15.437  15.632  0.6432  0.2478  0.0842
21019W        W36828   3.076  17.760  14.082  0.0845 -0.0210 -0.0516
21020W        W36829   5.158  14.964   1.417  0.2366 -0.0182  0.0812
21021W        W36830  12.052   0.149   4.840 -0.3262  0.3272 -0.1218
21022W        W36831   7.570   7.562   3.022 -0.2967  0.2321 -0.0426
21023W        W36832  12.642   4.530  13.736 -0.0098  0.4528  0.1197
21024W        W36833   0.320  11.849  11.963 -0.0587  0.2373  0.0650
21025W        W36834  11.318   2.183   4.803 -0.3216  0.4239 -0.0937
21026W        W36835   0.868  15.137  13.751  0.1817  0.0894  0.0695
21027W        W36836   1.386  11.725   2.736 -0.1650  0.2121 -0.1295
21028W        W36837  18.024  13.715   4.384  0.2030  0.1770 -0.3585
21029W        W36838  17.371  18.067  13.202 -0.0114  0.2714 -0.2398
21030W        W36839  13.920  11.740   4.534  0.1365 -0.1251  0.1031
21031W        W36840   4.494   1.942   1.248 -0.0427 -0.2739  0.2809
21032W        W36841  16.107   9.252  11.491 -0.1333  0.1139  0.0767
21033W        W36842  15.968   3.123   2.338  0.2957 -0.0012 -0.1614
21034W        W36843   3.448   2.823   1.453  0.2511  0.0094  0.1118
21035W        W36844  10.116   1.135  14.419  0.0046  0.1536  0.5186
21036W        W36845   0.636  15.309  15.237 -0.0760 -0.1536 -0.0542
21037W        W36846  14.412  16.978  16.113 -0.1350 -0.0062  0.0027
21038W        W36847  17.672  17.500  16.021 -0.0156 -0.2450  0.1274
21039W        W36848  13.256   0.985   1.575 -0.4003 -0.2612  0.2060
21040W        W36849   7.072   8.194   5.543  0.0345 -0.3408  0.5398
21041W        W36850  17.749   4.023  11.818  0.3782 -0.0486  0.1221
21042W        W36851   9.817  17.266   3.376 -0.1349 -0.1658  0.0552
21043W        W36852  16.066   0.137  13.302 -0.3308  0.1823  0.1973
21044W        W36853   3.988   4.524   5.515 -0.0522  0.2331 -0.2082
21045W        W36854   9.965  15.710   4.352  0.1847  0.0191 -0.1184
21046W        W36855  11.222  16.851  15.537  0.0724 -0.2485 -0.1375
21047W        W36856   0.265   5.819   3.789  0.0758  0.1132 -0.1543
21048W        W36857  15.479   8.528  11.456  0.2425 -0.0185 -0.1326
21049W        W36858  16.001  16.293   5.226 -0.0100  0.0954 -0.0646
21050W        W36859   8.088   5.863  13.369 -0.2113 -0.1175 -0.0262
21051W        W36860   8.991   7.877  15.684 -0.1258 -0.0714 -0.2028
21052W        W36861   1.408  14.373  13.379 -0.4542  0.0325 -0.1305
21053W        W36862   4.377  16.738  15.111 -0.0684 -0.0612  0.1847
21054W        W36863   7.772   1.406   2.538  0.0537 -0.0462 -0.2457
21055W        W36864  10.547   0.602  14.340 -0.0317 -0.2552  0.0833
21056W        W36865   8.756   2.803  11.093 -0.2926  0.0652 -0.1482
21057W        W36866  10.968  16.347   1.721  0.2470 -0.0256 -0.0397
21058W        W36867   5.883  15.887   5.302  0.1283  0.2640 -0.0054
21059W        W36868   1.072  13.651   1.068 -0.3531 -0.0800 -0.2854
21060W        W36869   9.363   1.127  11.584 -0.1397 -0.0721 -0.1568
21061W        W36870   7.930   4.643  14.224 -0.0005 -0.1228 -0.0495
21062W        W36871   9.650  16.757  13.091 -0.3270 -0.0043  0.2363
21063W        W36872   1.603   7.530   1.289  0.3084  0.3829  0.0500
21064W        W36873   7.214   8.828  14.934  0.0301  0.0283  0.2411
21065W        W36874   9.059  11.540  15.226 -0.1682 -0.3699 -0.1079
21066W        W36875   0.997   2.775   1.981  0.0293  0.1716 -0.1162
21067W        W36876   3.975  13.707   5.119 -0.0488  0.1218 -0.1568
21068W        W36877  10.504  17.277   4.687 -0.2056 -0.1584  0.1249
21069W        W36878   7.104  10.626  15.387  0.0117 -0.0275 -0.1970
21070W        W36879  15.319  13.574  15.215 -0.3037  0.0855 -0.1004
21071W        W36880  15.486   0.745  16.343 -0.1867 -0.0165  0.4054
21072W        W36881   6.330  11.972  13.931 -0.1614  0.1464 -0.1754
21073W        W36882   6.962  12.800   5.715 -0.2112 -0.2377  0.1861
21074W        W36883   6.548   3.968  14.563 -0.1731  0.1406 -0.2205
21075W        W36884   8.802   3.553  11.988  0.1177 -0.0866 -0.2986
21076W        W36885  18.004  12.081  12.809  0.0579  0.2250  0.0190
21077W        W36886  14.074   0.286   4.629 -0.2532 -0.0674 -0.0173
21078W        W36887   5.333   2.760  16.283  0.1202 -0.1480 -0.5355
21079W        W36888   3.975  13.882  13.651  0.0553  0.1786 -0.1377
21080W        W36889   2.750   3.795   0.749  0.3449 -0.0666  0.0953
21081W        W36890  11.041   6.203   1.199  0.3216 -0.1292 -0.0712
21082W        W36891   3.360  10.585   2.885  0.1362 -0.1803  0.2678
21083W        W36892  12.683  12.532  14.740 -0.0702 -0.2973  0.0825
21084W        W36893   8.140   9.693  13.461 -0.2297 -0.2995  0.0243
21085W        W36894  13.986   0.057  11.853  0.0021 -0.3679  0.1089
21086W        W36895  13.607  14.244   5.984 -0.1587  0.2092  0.2234
21087W        W36896   0.871  12.537  15.493  0.0666 -0.0430  0.0744
21088W        W36897   3.137  17.699  13.439 -0.1801 -0.2705  0.2694
21089W        W36898   0.357   8.131  16.152 -0.0516 -0.1175 -0.0050
21090W        W36899   8.752   6.403  13.081  0.1262  0.2173  0.2538
21091W        W36900   7.876   7.707   1.115  0.0545 -0.0815  0.3306
21092W        W36901  13.974  16.695   3.919 -0.3392  0.2825 -0.2682
21093W        W36902  15.135  16.702   3.133 -0.1009  0.0051  0.1465
21094W        W36903  10.482  14.293   2.590 -0.0403 -0.2068  0.0841
21095W        W36904   2.983  11.321  15.051 -0.0243  0.0437  0.1853
21096W        W36905   3.362   5.363   5.506  0.1705 -0.0856 -0.0708
21097W        W36906   6.268  13.621   5.056  0.2514  0.3374  0.3069
21098W        W36907   4.386  16.946  16.159  0.0675 -0.0698 -0.0610
21099W        W36908   7.028   5.302   1.813  0.2419 -0.0599  0.0098
21100W        W36909  10.488   7.016   1.974 -0.0509 -0.3987 -0.0929
21101W        W36910   8.259   9.862   4.744  0.1754  0.1476 -0.0009
21102W        W36911   2.664   7.931   0.762 -0.0595 -0.4562  0.2998
21103W        W36912  11.994  13.978   1.078 -0.0876  0.1494 -0.2738
21104W        W36913   1.410   5.619   2.654 -0.1949  0.0472  0.1861
21105W        W36914   2.521  14.205   4.849 -0.0033  0.3230 -0.2810
21106W        W36915  16.485   2.929  12.660  0.1096 -0.2570 -0.0424
21107W        W36916   7.462  17.113  16.283 -0.1089  0.0150 -0.0533
21108W        W36917   2.567  11.063   2.549 -0.0453 -0.0102 -0.1080
21109W        W36918   5.079  17.699  11.875 -0.0919 -0.1006  0.0656
21110W        W36919   3.640   9.723  13.351 -0.4040  0.0573  0.2158
21111W        W36920   1.283   6.667  12.831 -0.3072 -0.1874 -0.2573
21112W        W36921   0.253   3.036  13.283 -0.1563 -0.1964 -0.6729
21113W        W36922  10.866  13.364  10.858  0.1043 -0.1122 -0.0790
21114W        W36923   6.402   6.878  10.861  0.1578 -0.0362  0.0069
21115W        W36924   6.208  15.259  13.504  0.1811 -0.3579  0.0738
21116W        W36925   1.040   3.647  12.189  0.1643 -0.2477  0.0452
21117W        W36926   1.550  10.614  14.736 -0.0641  0.2442 -0.0898
21118W        W36927  15.797  11.695  14.654  0.0189 -0.0958  0.1251
21119W        W36928   7.833   5.466  14.599 -0.0651 -0.1308 -0.1736
21120W        W36929   2.527   1.028   4.921 -0.3811 -0.0143 -0.0147
21121W        W36930   7.949   5.785  16.332  0.1315 -0.0889 -0.0559
21122W        W36931   9.340   1.066   3.183  0.1285 -0.1343  0.0215
21123W        W36932   4.750  11.236  14.880  0.0927  0.0783  0.1060
21124W        W36933   0.667  17.325  11.499 -0.1391 -0.1057 -0.2789
21125W        W36934   3.575   3.560   4.874  0.3905 -0.1129 -0.1416
21126W        W36935   2.780   6.144   1.987 -0.0615  0.2913  0.2830
21127W        W36936   9.912   3.975  11.053 -0.1598  0.0327 -0.1165
21128W        W36937   1.304   9.664  11.176  0.0645  0.1724 -0.1501
21129W        W36938   1.396  12.112  15.299 -0.0215 -0.2963 -0.0357
21130W        W36939  14.487   1.702   5.295  0.0226  0.0930 -0.0738
21131W        W36940   9.884  16.128  11.164  0.0373  0.1020 -0.1122
21132W        W36941  17.189  16.468   0.066 -0.0312  0.1006 -0.3006
21133W        W36942   4.980   1.924   2.063  0.0654  0.1639 -0.2987
21134W        W36943   5.700   7.860  16.093  0.1119 -0.0834 -0.2538
21135W        W36944   5.825  12.732   1.390  0.1213  0.2109 -0.1424
21136W        W36945   8.541  16.501  12.295  0.2849  0.2743  0.2961
21137W        W36946  12.979  18.173  15.033  0.0893 -0.0648 -0.2975
21138W        W36947   7.731   1.771  12.495  0.1308 -0.4954 -0.0406
21139W        W36948  10.488  10.191   5.518 -0.0342  0.0655 -0.2565
21140W        W36949   1.661  12.019   5.709 -0.1590 -0.0280 -0.0519
21141W        W36950   8.638  12.601  13.412 -0.0177 -0.1157 -0.3306
21142W        W36951   0.404  16.601  14.930 -0.4085  0.0991  0.0231
21143W        W36952   1.650   6.611  11.383  0.2752  0.1688  0.1346
21144W        W36953  11.229  14.234  14.414  0.2137  0.0543  0.0394
21145W        W36954   5.554  15.556   3.305  0.3649  0.1706  0.2088
21146W        W36955  16.137   9.298   0.768  0.0237 -0.0244  0.0077
21147W        W36956  14.558   7.888   3.578 -0.2281  0.0619  0.1298
21148W        W36957  15.686   1.956  15.736 -0.1137  0.2224 -0.0148
21149W        W36958   0.328  16.390  11.578  0.1918  0.0578 -0.1032
21150W        W36959  15.170   7.163   1.115 -0.7854  0.0314 -0.0227
21151W        W36960  11.843   8.792  12.096 -0.3592  0.0783 -0.0153
21152W        W36961   9.298  13.410  13.365 -0.0335 -0.2231  0.0095
21153W        W36962   9.450   4.958   2.810  0.3729 -0.0665  0.1887
21154W        W36963   0.816   3.248   2.546  0.2685 -0.1386 -0.4993
21155W        W36964   5.486   9.008  11.504  0.2305  0.4300 -0.1604
21156W        W36965  13.682   4.234   4.736  0.3022  0.1159  0.1385
21157W        W36966  10.475   0.041   5.400 -0.1995 -0.1121 -0.2616
21158W        W36967  13.101   4.067   4.029  0.3853  0.3572 -0.1557
21159W        W36968   3.269   5.130  12.495  0.1604  0.0456  0.0451
21160W        W36969  12.687   7.832  14.070 -0.2327 -0.2183  0.3035
21161W        W36970   6.073   7.141  13.003  0.0554 -0.0821  0.1074
21162W        W36971  13.479  10.819   3.743 -0.0358 -0.0434  0.0921
21163W        W36972   7.545  16.400  15.608 -0.1880 -0.1443  0.2284
21164W        W36973  18.174   2.887  12.392  0.1676 -0.2168 -0.3031
21165W        W36974   7.201  12.272  15.509  0.0105  0.0393 -0.2754
21166W        W36975   0.784   6.954   4.808  0.1348  0.0897 -0.0607
21167W        W36976   2.726   0.257   0.631  0.1004  0.1731 -0.1735
21168W        W36977   7.978   3.394   5.136 -0.0503  0.3233 -0.0773
21169W        W36978  10.571   6.188   1.488 -0.2647  0.0115 -0.1171
21170W        W36979  17.035  14.423   1.883 -0.0392  0.1581 -0.0065
21171W        W36980   2.492   7.286   1.124 -0.0100 -0.1908  0.0084
21172W        W36981   2.196   5.681  15.573 -0.0027 -0.3362 -0.2348
21173W        W36982  10.131   9.266   1.560  0.1482 -0.0092  0.2218
21174W        W36983  16.552   9.396   1.117  0.2799 -0.0623 -0.0550
21175W        W36984   1.003   4.965  15.089 -0.0160 -0.3191  0.3024
21176W        W36985   1.476   0.268   0.979  0.0159  0.0597 -0.2991
21177W        W36986  16.548   6.432  13.335 -0.0797 -0.2182  0.1154
21178W        W36987   5.603   9.362   0.464  0.3628 -0.0443 -0.1920
21179W        W36988  18.069   1.211  14.008 -0.1077  0.2095 -0.1862
21180W        W36989   9.995   1.781   2.680  0.0834  0.2934 -0.1170
21181W        W36990   0.447   9.180  12.745  0.5473  0.1969  0.2140
21182W        W36991  16.224  15.118   2.006  0.2784  0.3629  0.1600
21183W        W36992   7.369  13.158   2.208 -0.1720 -0.3208 -0.1695
21184W        W36993   4.128  11.841  14.450  0.4710  0.4286 -0.0934
21185W        W36994  10.820   2.083  11.788 -0.0032 -0.0319  0.1575
21186W        W36995  14.212  17.382  12.311  0.1066 -0.1139  0.0340
21187W        W36996   4.935  14.819   2.155 -0.0429 -0.1959 -0.1057
21188W        W36997   4.938  17.358   3.629  0.5613 -0.0086 -0.2604
21189W        W36998  14.730  13.787   3.897 -0.2816 -0.0218  0.0028
21190W        W36999  17.892   1.133  12.956  0.0154  0.1175 -0.0735
21191W        W37000   0.768  17.358  12.473  0.0853 -0.1093 -0.1569
21192W        W37001  16.611  12.998   2.450 -0.3498 -0.2112 -0.0220
21193W        W37002   5.227  14.228   0.304  0.0527 -0.2581  0.1605
21194W        W37003   0.150  17.835  15.179 -0.1668 -0.3500  0.2360
21195W        W37004   5.614  14.662  13.540 -0.1077 -0.0096  0.0142
21196W        W37005   8.717  11.007  11.405  0.1469  0.2722  0.3961
21197W        W37006   9.756   5.506  14.862  0.0996 -0.1509  0.2599
21198W        W37007   1.027   1.772  11.806 -0.0823  0.2447  0.0222
21199W        W37008   1.809   6.000  14.124  0.3030 -0.0052  0.1863
21200W        W37009   6.471   1.471   2.051 -0.1384 -0.3110  0.2725
21201W        W37010   7.649   8.595   1.872 -0.3813  0.1170  0.0180
21202W        W37011   2.020  10.488  12.573  0.0249 -0.0406  0.0202
21203W        W37012  11.469   3.283  16.359 -0.0133 -0.0427  0.3427
21204W        W37013   0.166  12.659   1.131 -0.0642  0.1172  0.1204
21205W        W37014   7.231   8.807   1.884 -0.0554  0.1175 -0.0310
21206W        W37015  10.186  16.997  15.655  0.1273 -0.0594  0.0886
21207W        W37016   8.764  17.032  16.244 -0.2338 -0.1771 -0.0610
21208W        W37017   7.549  15.455   1.153  0.2481  0.1590  0.5439
21209W        W37018  17.144   6.823  13.991 -0.0709  0.1489  0.1568
21210W        W37019  14.786  16.868   4.981 -0.0352 -0.2750 -0.0360
21211W        W37020   6.934   8.352  16.254 -0.0777 -0.0860  0.0408
21212W        W37021  14.147  17.991  11.458 -0.2832  0.2928  0.1151
21213W        W37022   6.155  12.918  12.387  0.1052  0.1156  0.1435
21214W        W37023   7.646  14.604  12.640  0.1350  0.1753  0.2190
21215W        W37024  15.571   5.483  10.482 -0.2748  0.0776  0.0649
21216W        W37025  10.930  16.013   4.140 -0.3355  0.0498 -0.0123
21217W        W37026   5.497   0.358   4.319 -0.1796  0.1273 -0.0285
21218W        W37027  13.003   9.101   5.473  0.0581 -0.2015  0.0526
21219W        W37028  11.770  13.452  11.296  0.0041 -0.1748 -0.1832
21220W        W37029  13.307   4.443   1.919 -0.2132  0.0429 -0.3268
21221W        W37030  11.236   6.787  10.775  0.1221  0.1416  0.1682
21222W        W37031   8.331   7.286   1.166  0.2878  0.1557  0.0535
21223W        W37032   4.542   7.195   2.132 -0.1038  0.0917 -0.0760
21224W        W37033  13.539  14.408  13.569  0.0055 -0.4380 -0.0013
21225W        W37034  17.900   4.815  15.892 -0.0608 -0.2277 -0.2661
21226W        W37035   1.167   1.370   6.345 -0.0257  0.2547 -0.1378
21227W        W37036  15.233  16.915   4.793 -0.0941 -0.0460  0.0822
21228W        W37037   2.209  13.992   4.243  0.0134  0.2163 -0.2571
21229W        W37038  13.147   0.140   1.321 -0.0953  0.0936 -0.3264
21230W        W37039  17.385  17.935  15.350 -0.1803 -0.1608  0.0410
21231W        W37040  13.852  10.882  15.438  0.1068  0.2561 -0.1300
21232W        W37041   0.200  11.097  16.252  0.2951 -0.0649  0.0383
21233W        W37042  13.206  10.064   2.154  0.0749 -0.0849 -0.1050
21234W        W37043   8.841  16.880  14.217  0.1606  0.2995 -0.1613
21235W        W37044   6.903   6.291   0.187 -0.0247 -0.1187 -0.2010
21236W        W37045   2.169   9.386  12.540  0.2637  0.1039  0.0845
21237W        W37046   3.523   8.877  11.842  0.0520  0.0818 -0.0461
21238W        W37047   2.919   8.690   2.883  0.0929  0.4359 -0.0022
21239W        W37048   7.303   2.209  15.750 -0.1966 -0.0810 -0.1661
21240W        W37049   4.629   3.655   3.150 -0.1716 -0.0937 -0.1725
21241W        W37050   5.406  10.636  11.308 -0.1108 -0.0781  0.1172
21242W        W37051  15.214  13.886   1.175 -0.1553  0.1281 -0.0554
21243W        W37052  15.294   5.918   3.237  0.0705  0.0060  0.2139
21244W        W37053  16.161  13.313   1.732  0.0200  0.1539 -0.2045
21245W        W37054  11.769   5.926  15.089 -0.1012  0.1392  0.2141
21246W        W37055  15.308  17.977   4.397  0.1215 -0.1934  0.0082
21247W        W37056   8.393   5.138  16.137  0.0233  0.0565  0.1931
21248W        W37057  15.662  17.441   1.102 -0.1039  0.0200  0.0189
21249W        W37058   5.715   7.097   4.057 -0.2196 -0.1998 -0.2331
21250W        W37059  13.076   5.021  14.736  0.2266 -0.2373  0.0757
21251W        W37060  16.237  10.738   4.385  0.0419 -0.0078 -0.1112
21252W        W37061   1.500   3.511  14.598  0.0204 -0.3689  0.0366
21253W        W37062   1.119  17.521   1.301  0.0582 -0.0836  0.2212
21254W        W37063  15.917   6.687  12.818 -0.0268 -0.1196  0.0252
21255W        W37064  10.817  16.728  15.779  0.0773 -0.1523  0.0919
21256W        W37065   0.495   2.004  16.256  0.0139  0.2040 -0.2928
21257W        W37066   1.071   9.294   4.856 -0.5319  0.0230 -0.0677
21258W        W37067   4.388   4.176   3.885 -0.0933 -0.0598  0.3920
21259W        W37068  17.646   6.661   0.613 -0.1273 -0.3757 -0.0577
21260W        W37069   6.164   4.634  14.997  0.0424  0.0804 -0.0675
21261W        W37070   1.624   5.690  14.922 -0.2622  0.0846  0.0259
21262W        W37071   9.344  16.323  13.221 -0.2207 -0.1450 -0.1438
21263W        W37072  11.853   6.038  11.110 -0.0735  0.3450  0.0056
21264W        W37073   8.269  13.143  13.802 -0.1916  0.3323 -0.0121
21265W        W37074   8.301   9.041   2.364 -0.1624 -0.0096  0.2090
21266W        W37075  12.955  14.528  11.502  0.1269  0.0452 -0.0274
21267W        W37076  14.977  15.162  14.647  0.0496 -0.1210  0.1506
21268W        W37077  17.845  14.187   5.996  0.2460 -0.2386 -0.0738
21269W        W37078  11.564   7.257   0.381 -0.1139  0.1030  0.2367
21270W        W37079   3.970   4.111  12.839  0.2829  0.3217  0.1627
21271W        W37080   6.321  18.053   2.766 -0.0836 -0.2575 -0.0176
21272W        W37081   1.731  14.399   3.022  0.0254  0.1060 -0.0107
21273W        W37082   6.556   1.754   0.739  0.0867 -0.1139  0.1497
21274W        W37083  13.542   1.130   1.099 -0.0639 -0.2436 -0.0238
21275W        W37084  12.373   0.737   5.555 -0.2268 -0.0130 -0.1506
21276W        W37085   4.502  10.566  12.399 -0.0072  0.3833  0.0170
21277W        W37086   1.376   0.913  11.939 -0.1106 -0.0844  0.0022
21278W        W37087  12.478   4.441   5.191  0.1158 -0.0988 -0.1378
21279W        W37088   0.216  16.231   2.833 -0.1457  0.2861  0.2729
21280W        W37089  17.357  16.759  12.589 -0.2427  0.0375  0.0974
21281W        W37090  18.070  16.637   4.673  0.0567 -0.0832 -0.0410
21282W        W37091   1.418   2.762  12.175 -0.2438 -0.0810 -0.1512
21283W        W37092   8.377   4.570   1.004  0.0062 -0.0062  0.2172
21284W        W37093  10.148   3.362  15.721  0.1878 -0.0846 -0.0952
21285W        W37094  15.197   6.418   1.806 -0.1049 -0.1279 -0.0460
21286W        W37095   2.505  13.506  15.584 -0.1370  0.2172  0.0100
21287W        W37096   4.805   2.885  13.346  0.0268 -0.3569 -0.3437
21288W        W37097   3.715  12.491  14.859  0.0087 -0.1707 -0.0808
21289W        W37098  15.249   5.199  13.484  0.0282 -0.0633  0.0346
21290W        W37099   2.713   3.365   2.732 -0.3684 -0.2567  0.1125
21291W        W37100  12.485   7.318  10.780 -0.0685 -0.1222  0.1722
21292W        W37101   1.272   7.099   1.343 -0.0365  0.1029 -0.0694
21293W        W37102  16.863   8.026  15.706  0.0824  0.1931 -0.1921
21294W        W37103   1.229  12.600   2.126  0.0356  0.0618 -0.0183
21295W        W37104  17.899   8.458  14.655 -0.2155 -0.3259  0.0551
21296W        W37105  11.236  10.808   0.537  0.1934 -0.2468 -0.1049
21297W        W37106   7.049   0.347  14.252  0.1692 -0.1402 -0.1297
21298W        W37107  10.375   6.310   5.342 -0.1597  0.2629 -0.0360
21299W        W37108   4.605  16.272   2.913  0.2082 -0.1502  0.2335
21300W        W37109  13.121   4.242  15.880  0.0927  0.1079  0.1215
21301W        W37110  13.067   2.880  15.929 -0.3336  0.1790  0.3456
21302W        W37111   8.717  14.427   0.846  0.0097  0.1281 -0.2295
21303W        W37112  12.570  16.443   3.920 -0.2892  0.0679 -0.2120
21304W        W37113   7.887   7.484   1.969  0.2931  0.2423  0.0151
21305W        W37114  13.122   7.186  10.584  0.0394  0.3493  0.3212
21306W        W37115   8.013  12.304  15.714  0.1884 -0.1522  0.0513
21307W        W37116  10.914   8.665  14.285 -0.1277 -0.0861  0.3662
21308W        W37117   3.010   4.770   2.550  0.1572  0.2298 -0.0020
21309W        W37118   6.292  11.026   1.080  0.2434  0.4488 -0.0795
21310W        W37119   8.276  14.380   3.957 -0.2093 -0.1511  0.1316
21311W        W37120   6.380  16.551  12.257  0.1162  0.1503 -0.0093
21312W        W37121  10.290   1.883   5.023  0.0239 -0.0507  0.1484
21313W        W37122   7.887  15.203   2.305  0.1578 -0.0812  0.0585
21314W        W37123  16.225   6.310  12.886 -0.0664  0.0778  0.2075
21315W        W37124   5.699  11.869   4.516 -0.1706  0.1363  0.1044
21316W        W37125   5.277   2.467   4.826 -0.0586 -0.0592  0.0396
21317W        W37126   1.449   4.978   0.090  0.1495  0.1156 -0.0174
21318W        W37127  17.934   2.619   3.412  0.2153 -0.1827 -0.3049
21319W        W37128   0.369   5.682   0.980 -0.1074  0.0744  0.0804
21320W        W37129  13.466  17.672  14.427 -0.0770  0.5284  0.0560
21321W        W37130   9.924  16.346  13.263  0.2731 -0.0185  0.1662
21322W        W37131  11.020   6.073  15.785  0.0233 -0.3886 -0.0980
21323W        W37132  10.266   3.813   4.951  0.0777  0.0864 -0.0199
21324W        W37133  11.944  12.673  13.873  0.2636  0.0200 -0.2744
21325W        W37134  13.457   3.098  15.622 -0.4016  0.2311  0.1302
21326W        W37135  13.231   7.076   5.266  0.1376  0.1411 -0.1456
21327W        W37136   4.702   5.387   5.492  0.0917  0.0776  0.0023
21328W        W37137   8.969  12.612  14.575  0.1250 -0.0627  0.2598
21329W        W37138   5.975  13.105  15.425  0.2879 -0.1115 -0.0237
21330W        W37139  13.190   4.038   1.583  0.4554  0.1099 -0.0629
21331W        W37140   5.095  16.037   1.175  0.0303 -0.0192  0.0317
21332W        W37141   8.463   8.042   4.727  0.3892 -0.0876 -0.0853
21333W        W37142   7.444  17.287   5.542 -0.1007  0.1461  0.0381
21334W        W37143  18.149   4.522  13.015 -0.0249  0.1252 -0.0773
21335W        W37144   1.674   0.343   2.955  0.1845  0.0905 -0.0080
21336W        W37145  14.232  15.863   5.026  0.2174 -0.7055  0.1736
21337W        W37146   6.824   5.657  11.123 -0.0294  0.2472  0.0936
21338W        W37147   1.841   3.794  16.147 -0.1371  0.1251 -0.0754
21339W        W37148   8.495   5.664  11.738 -0.1731 -0.1776  0.0209
21340W        W37149  13.031  14.401  13.605  0.1161 -0.1480 -0.1953
21341W        W37150  16.726  10.768   3.926  0.1008 -0.1428  0.3167
21342W        W37151  18.135  14.677   1.215 -0.1384 -0.0974  0.0972
21343W        W37152  12.687  16.698   1.432  0.1700 -0.2155  0.1449
21344W        W37153  12.329  10.785  14.389  0.2179  0.0352 -0.0044
21345W        W37154  14.317  13.467  13.901 -0.2683 -0.0778  0.1895
21346W        W37155  10.358  16.111   0.607  0.3051  0.1052  0.2791
21347W        W37156   6.226   2.345  13.852 -0.2363  0.3827 -0.3629
21348W        W37157  16.755  12.682   1.193  0.0092  0.0482 -0.0752
21349W        W37158   3.710   6.931   4.244  0.2633  0.0264  0.2139
21350W        W37159   1.044   3.184   3.464  0.1448  0.1581  0.2001
21351W        W37160   0.094   7.193  13.762  0.1168 -0.0580 -0.0115
21352W        W37161  17.546  17.101   3.054 -0.2795  0.0091  0.1659
21353W        W37162   4.032  15.162  14.719 -0.1664  0.1583  0.2906
21354W        W37163   0.159   4.627  15.025  0.3148  0.1460  0.0402
21355W        W37164   9.489   2.852  11.530 -0.1153  0.0772 -0.0594
21356W        W37165   9.498   8.750   2.316  0.3049  0.0005  0.2113
21357W        W37166   7.626  10.880  12.067  0.0055  0.0391  0.1800
21358W        W37167  13.233  17.511   2.198 -0.2862  0.3713 -0.0384
21359W        W37168   7.971   5.312  12.965  0.1320 -0.1230  0.2143
21360W        W37169  11.613   7.931  10.621 -0.0671 -0.0546 -0.1354
21361W        W37170   4.036   7.159   5.288  0.2537  0.3008  0.0618
21362W        W37171  13.783   1.329   4.023  0.2440  0.0026 -0.1101
21363W        W37172  12.000   4.415  14.937  0.1975  0.0543 -0.1558
21364W        W37173   5.529   9.666  12.766 -0.2098  0.0558 -0.2692
21365W        W37174   7.978   6.006   2.391 -0.1394  0.2688 -0.1938
21366W        W37175  16.151  17.214  13.831 -0.1746  0.2729  0.0637
21367W        W37176  16.647  18.124   3.331 -0.2531  0.2092 -0.2294
21368W        W37177   5.567   7.909   1.744  0.1270  0.2370 -0.3336
21369W        W37178  17.569   1.071   1.163  0.0087  0.1297  0.2732
21370W        W37179   9.341  12.550  14.247 -0.1883 -0.2745  0.0949
21371W        W37180  13.916  15.658   1.405  0.0496 -0.2050  0.6241
21372W        W37181  10.529  14.810  16.089  0.4410 -0.1356 -0.2212
21373W        W37182   5.525   9.557  12.313  0.0954  0.0565 -0.0944
21374W        W37183  14.813   4.712  12.320 -0.3030 -0.0430  0.1238
21375W        W37184  14.048  14.208  14.291 -0.1164  0.4744  0.0258
21376W        W37185  14.211   9.906  10.859  0.0632  0.0671  0.0295
21377W        W37186   2.538   1.415   3.728  0.2480  0.3177 -0.3491
21378W        W37187  17.070  11.847  14.439  0.2475 -0.1470  0.0380
21379W        W37188   6.589   1.651   4.692 -0.0224  0.0342 -0.2064
21380W        W37189   9.127  14.054  10.795  0.0267 -0.0358 -0.6032
21381W        W37190   2.006  15.360  13.886  0.0248 -0.3745 -0.4571
21382W        W37191   3.678   4.752   4.435 -0.0122  0.4575 -0.0290
21383W        W37192   1.389   5.747   1.293  0.2564  0.2036  0.3488
21384W        W37193   2.717   8.760   5.358 -0.0038 -0.2307 -0.1871
21385W        W37194  17.393  17.020  11.675 -0.1228  0.1597  0.0077
21386W        W37195   9.112  11.793  14.825 -0.3664 -0.1275  0.0847
21387W        W37196  10.720   1.906   1.536  0.0371  0.0474 -0.1217
21388W        W37197  17.978   8.200   4.740  0.1663 -0.2389 -0.1618
21389W        W37198   0.641  13.509  12.147  0.0597 -0.3392 -0.1226
21390W        W37199   8.156   3.443  12.277  0.1095 -0.0423  0.0140
21391W        W37200  12.474   2.023  14.252  0.2145 -0.2780 -0.1831
21392W        W37201   1.315  12.526  13.402  0.0599 -0.2685 -0.0512
21393W        W37202  17.591  18.032  14.622  0.4341 -0.0406 -0.2606
21394W        W37203   6.552  14.660  15.586  0.2095  0.2544 -0.1062
21395W        W37204   2.282   7.443  12.654  0.3363  0.0476 -0.0120
21396W        W37205   6.766   6.167  12.284 -0.1109  0.0183 -0.2762
21397W        W37206  12.752  11.870   2.202 -0.0679 -0.3692 -0.1829
21398W        W37207   8.192   4.230  13.060 -0.2364 -0.0226 -0.0589
21399W        W37208   3.489   4.268   1.714  0.2353  0.0020  0.2106
21400W        W37209   6.765  17.943  12.119  0.1083  0.1158 -0.0731
21401W        W37210   4.734  14.114   5.664  0.1979  0.0860 -0.0231
21402W        W37211   1.143   9.580  15.908  0.1167 -0.2293  0.0381
21403W        W37212  17.920   0.362  15.161  0.0974  0.0872 -0.1738
21404W        W37213   8.156   0.114  11.758  0.1787  0.0570  0.0861
21405W        W37214   1.482   6.237  12.633  0.0839  0.0849  0.1056
21406W        W37215  13.948  15.879  13.427  0.0710 -0.1444  0.0419
21407W        W37216  14.171   4.572   1.116  0.0984  0.1506  0.1830
21408W        W37217   9.878   7.468   1.423 -0.1606  0.1549 -0.1094
21409W        W37218  16.943  15.262   6.033  0.0573  0.0700 -0.0903
21410W        W37219   4.289  12.207  16.202  0.0661 -0.0982 -0.0308
21411W        W37220  17.827  14.419  14.834 -0.0351 -0.2011  0.0379
21412W        W37221  15.975  11.273   5.147  0.2238 -0.1398 -0.1398
21413W        W37222  16.750  11.688  16.076 -0.0632  0.2391 -0.1746
21414W        W37223  14.886  12.571  11.305 -0.2165 -0.0981  0.3388
21415W        W37224  13.029  11.519   0.668  0.1482 -0.1081 -0.1923
21416W        W37225  12.244   9.394   2.592  0.1190 -0.2272 -0.1040
21417W        W37226   0.988   4.466  15.640  0.1034 -0.1636 -0.2462
21418W        W37227  11.477  17.869  15.336 -0.0042  0.0058 -0.0734
21419W        W37228   6.220   4.266  14.285  0.0378 -0.0256  0.0147
21420W        W37229  14.838  10.228   4.472  0.3338  0.0421 -0.0528
21421W        W37230   2.292   8.795  15.162  0.1349  0.0579 -0.0057
21422W        W37231   2.296  14.709  12.689 -0.1702 -0.0300 -0.0327
21423W        W37232  12.555  15.335  15.448 -0.0084 -0.0551  0.0167
21424W        W37233   4.734  15.753  16.144  0.0274  0.0213  0.0257
21425W        W37234   5.014  13.896  12.266 -0.2245 -0.1255 -0.1756
21426W        W37235  12.178   5.974  14.707 -0.1265  0.0753 -0.1334
21427W        W37236  13.145  15.988   2.428  0.2372  0.0240 -0.2509
21428W        W37237   1.056   7.521   0.722  0.0213 -0.1102  0.1883
21429W        W37238  13.523   4.242  14.277 -0.0094  0.1171  0.1769
21430W        W37239   0.934  16.090   0.091 -0.0887  0.1075 -0.2589
21431W        W37240  12.005  11.543  15.618  0.0740  0.1321 -0.0001
21432W        W37241   8.784   0.672   3.811  0.0504  0.1654 -0.0638
21433W        W37242   7.342   5.122  16.088 -0.0812  0.2005 -0.3044
21434W        W37243   6.367   7.884  13.624  0.2459 -0.2454  0.1691
21435W        W37244   6.085   4.478   0.383  0.2434  0.2062  0.2581
21436W        W37245  15.623  10.336  14.472 -0.0406 -0.1619 -0.2603
21437W        W37246   2.846  17.092   4.721  0.3007  0.2482 -0.0348
21438W        W37247   0.985   9.158  13.254 -0.2444 -0.2018  0.2498
21439W        W37248  10.867   5.061  11.932 -0.0204 -0.1263  0.1411
21440W        W37249   5.830   0.300  14.409 -0.3187  0.0325  0.0490
21441W        W37250   4.111   0.119   3.013  0.3921 -0.3160 -0.2139
21442W        W37251   1.558  16.861   0.485 -0.1541  0.2928  0.2022
21443W        W37252   3.481   0.975  15.602 -0.0295 -0.1982  0.0625
21444W        W37253  15.080   1.434   2.357 -0.2900  0.0502  0.2318
21445W        W37254  13.163  16.363   4.445  0.2951  0.3187 -0.2694
21446W        W37255  15.649  10.861   2.640  0.0345 -0.2167  0.4164
21447W        W37256   5.985  14.452  16.253  0.0763 -0.0591  0.0685
21448W        W37257  14.413   5.383   0.857  0.1802  0.3847 -0.0737
21449W        W37258  11.596  13.111   0.960 -0.0726  0.1545  0.1691
21450W        W37259   3.475   6.372  13.518  0.1497  0.2215 -0.0130
21451W        W37260   9.959   5.516   5.580 -0.0440 -0.3756  0.1190
21452W        W37261  11.610   3.331   1.837 -0.1411 -0.0469  0.1100
21453W        W37262  14.600   0.652  14.083 -0.2130  0.0337  0.0938
21454W        W37263   1.702   7.061  11.064 -0.1608 -0.1847 -0.5058
21455W        W37264   7.356   8.426  15.224  0.0701  0.1602  0.0176
21456W        W37265   9.784  10.577   3.686  0.1533  0.2416 -0.2217
21457W        W37266   0.688  12.954   2.293  0.3201 -0.1965  0.2661
21458W        W37267   7.014  10.723   3.991 -0.0048 -0.1943  0.0833
21459W        W37268   1.922   4.290   1.853 -0.2306 -0.4104 -0.0291
21460W        W37269  15.600   4.734  14.868 -0.1131  0.2553  0.1491
21461W        W37270  18.134  10.739  14.847  0.0787  0.0964 -0.0375
21462W        W37271   1.080  17.037   0.395  0.1147  0.0312 -0.3051
21463W        W37272  15.454   9.165   0.610 -0.2207  0.1254 -0.2601
21464W        W37273   6.026   8.227  16.082 -0.1494  0.0366 -0.0077
21465W        W37274   4.431  13.034   5.004 -0.2319  0.0561  0.1722
21466W        W37275   8.825  16.775   1.363 -0.0298  0.1183 -0.1567
21467W        W37276   2.094   4.422  14.818 -0.2585 -0.0519 -0.1871
21468W        W37277   9.019   8.743   1.388 -0.2885  0.2099  0.1511
21469W        W37278  11.116  11.942   1.992 -0.1170 -0.2304  0.2854
21470W        W37279  14.832  11.122   4.184 -0.1164 -0.0042 -0.2362
21471W        W37280   4.594   2.968  15.958 -0.0819  0.0308 -0.2753
21472W        W37281   7.282   9.845   4.322  0.0987 -0.1158 -0.4072
21473W        W37282   1.854  13.880   5.632  0.1154 -0.1554  0.1651
21474W        W37283   4.499  14.347  16.227  0.0423  0.0900  0.1603
21475W        W37284   0.454  16.674   2.721  0.1228  0.1664 -0.4827
21476W        W37285   1.340   0.152   3.868 -0.0626  0.1192 -0.1527
21477W        W37286  10.425   9.688   2.421  0.0296 -0.0776  0.2576
21478W        W37287  17.080  17.851   3.285  0.0557 -0.1245 -0.0380
21479W        W37288   5.949  11.144   2.662 -0.3296 -0.0882  0.0857
21480W        W37289  13.799  12.857  16.300 -0.0535 -0.0022 -0.3699
21481W        W37290   3.478  11.462  16.088  0.2475  0.1066 -0.2285
21482W        W37291   3.255  11.871   4.747 -0.0237  0.1006  0.0042
21483W        W37292   8.868   8.008   1.841  0.0593  0.0010 -0.1193
21484W        W37293  17.484   1.683   2.170  0.1450 -0.0193  0.2778
21485W        W37294   7.861  16.270   1.011 -0.2582 -0.2349 -0.1918
21486W        W37295   5.078   1.014   4.740  0.2668 -0.1816  0.1676
21487W        W37296   0.638  11.448  11.713 -0.0545 -0.2385 -0.1548
21488W        W37297   0.001   9.752  13.300 -0.0500  0.1230 -0.0025
21489W        W37298  11.712  10.498  11.797  0.0685 -0.2338  0.2042
21490W        W37299   7.226   2.132   2.035  0.2880  0.1751  0.1428
21491W        W37300   1.130  11.587  14.092  0.1150  0.0279 -0.4210
21492W        W37301   6.775  11.381   2.869 -0.1981  0.1200  0.0843
21493W        W37302  10.488  10.278  14.113  0.2002 -0.0418  0.1588
21494W        W37303  12.578   1.025   2.282 -0.2957  0.0028 -0.0016
21495W        W37304   3.446   6.104   5.065 -0.1679 -0.0606  0.3041
21496W        W37305  17.973   0.206   3.485 -0.1538  0.0282  0.0805
21497W        W37306  12.085  16.745   3.047 -0.0590 -0.1767 -0.0934
21498W        W37307   6.407   0.627  15.285  0.0282 -0.1690 -0.1535
21499W        W37308  17.753   3.880  14.978 -0.1268  0.0228 -0.1561
21500W        W37309  13.254   8.018   1.798 -0.1773  0.0167 -0.2241
21501W        W37310  17.460   6.662  12.407 -0.0792 -0.2355  0.0436
21502W        W37311   6.839   3.752  15.699 -0.1766  0.0571 -0.2820
21503W        W37312  13.733  11.284   4.500  0.1629  0.2980 -0.1307
21504W        W37313   2.661  17.632   1.570 -0.4940  0.1066 -0.2385
21505W        W37314   5.188   5.112   2.384  0.0887 -0.2590 -0.2196
21506W        W37315  11.279   6.754   2.291  0.0178 -0.0302  0.0264
21507W        W37316  16.323  15.613   2.676 -0.1199 -0.2576 -0.0685
21508W        W37317  14.589   7.259   3.855  0.0520  0.0105  0.0091
21509W        W37318  10.738  15.219   4.728  0.2068  0.1297 -0.1833
21510W        W37319  12.379  15.593  12.253 -0.2187 -0.2884  0.1120
21511W        W37320  17.891   7.439  12.774  0.3676  0.1210 -0.1179
21512W        W37321   6.911  11.565   4.091 -0.0963 -0.0970 -0.2004
21513W        W37322   5.098   5.620   4.227  0.2473  0.0768  0.2184
21514W        W37323   3.429  11.798   3.786  0.0839  0.0554  0.0250
21515W        W37324   0.369  13.815   2.026 -0.1419  0.2813  0.0837
21516W        W37325  16.320  14.334   4.002 -0.1028 -0.0906 -0.0130
21517W        W37326  17.132   9.782   3.396  0.1739 -0.0776  0.0934
21518W        W37327  18.150  14.258  14.519  0.1248  0.2429 -0.1382
21519W        W37328   5.196   6.037   3.902  0.1555  0.0913  0.0719
21520W        W37329   9.712   2.662  15.264  0.2338 -0.0461 -0.2812
21521W        W37330  10.783  17.428   3.104 -0.0126  0.0885  0.0194
21522W        W37331  16.455  12.297  12.824 -0.0183  0.1266  0.2521
21523W        W37332  12.353   7.945   1.627 -0.3497  0.2494  0.2933
21524W        W37333   6.527   2.722  10.476  0.1485  0.4794 -0.0298
21525W        W37334  12.913  16.085   5.285  0.2264  0.0997 -0.0374
21526W        W37335   5.207  17.465   5.196 -0.1248 -0.1205  0.2380
21527W        W37336  13.542   2.847  13.076  0.1212  0.0436 -0.2750
21528W        W37337   6.683  16.837  11.066 -0.2001 -0.1064  0.0969
21529W        W37338  11.086  16.049  16.311  0.2445 -0.1894 -0.1365
21530W        W37339  10.667   2.479  12.031 -0.1469 -0.0489 -0.1395
21531W        W37340   4.596   7.026   5.130  0.1226 -0.2550  0.1937
21532W        W37341   3.166   2.783  11.979  0.1560 -0.1169 -0.1116
21533W        W37342  16.827  14.273   0.641 -0.1040 -0.2165 -0.1998
21534W        W37343  10.438  11.748  14.931 -0.1460 -0.0705 -0.0658
21535W        W37344   0.415  16.914  11.296 -0.1123  0.0508  0.2087
21536W        W37345   3.176  13.446   3.692 -0.1214  0.3457  0.0290
21537W        W37346   3.121  11.219   5.350 -0.1397  0.1012  0.0048
21538W        W37347   5.128  18.191  15.726 -0.2093 -0.1238 -0.0539
21539W        W37348  17.250  12.110  16.198 -0.0307 -0.0505  0.0220
21540W        W37349   4.148   3.291  11.483  0.1020  0.3208 -0.0263
21541W        W37350   3.631  14.595  12.145  0.0430 -0.1775 -0.0319
21542W        W37351   9.870   2.285  14.123  0.1563  0.0833 -0.1288
21543W        W37352  15.561  14.054  11.907  0.0668 -0.2468 -0.3052
21544W        W37353   4.284  17.741   2.632 -0.2367  0.1503 -0.1661
21545W        W37354  16.743  14.285   4.701  0.1128  0.0500 -0.0881
21546W        W37355  14.397   8.281  15.192  0.3719 -0.1468 -0.0408
21547W        W37356   6.965  12.334   5.511 -0.1638 -0.0993 -0.0628
21548W        W37357  17.002   7.505  11.487 -0.0102 -0.1634  0.0794
21549W        W37358  14.885   8.028  11.203  0.1484 -0.3124  0.2068
21550W        W37359   7.101   4.447  15.195  0.1803  0.2134 -0.1050
21551W        W37360   7.705   2.068  15.460  0.0237  0.2750 -0.0945
21552W        W37361   4.458  14.419  14.608  0.1258  0.2912 -0.3135
21553W        W37362  11.416   8.260   2.137  0.1060 -0.0036 -0.0352
21554W        W37363   5.905   1.903  14.043 -0.1715 -0.0887 -0.0044
21555W        W37364   4.876  15.037   4.205  0.0112  0.0046  0.0176
21556W        W37365  15.595  17.589   0.633 -0.0364 -0.1433 -0.0314
21557W        W37366  12.355  15.878   6.438 -0.0680  0.1231  0.0994
21558W        W37367   0.907  10.679   3.829 -0.0345  0.1236  0.1811
21559W        W37368  10.608   8.812  11.407  0.1040 -0.1907  0.0862
21560W        W37369   9.299  13.709   3.141  0.2792  0.2222  0.0035
21561W        W37370  16.088   1.513  13.282 -0.0727  0.0118  0.1261
21562W        W37371   5.815  17.640  13.150 -0.0664 -0.2448 -0.0966
21563W        W37372   4.808   5.898   5.354 -0.2439 -0.0219 -0.5285
21564W        W37373   4.915  15.061  13.271  0.0603 -0.0621 -0.2007
21565W        W37374   9.572  16.241  13.661 -0.3103 -0.1377  0.2514
21566W        W37375   8.198  14.302  14.341 -0.0047  0.1264 -0.3835
21567W        W37376   6.542   1.435  13.443 -0.1016 -0.1795 -0.0849
21568W        W37377  15.916   7.461   0.077  0.1937  0.1006  0.0723
21569W        W37378  12.123   5.440   3.453 -0.0057 -0.0731 -0.0356
21570W        W37379  17.568   8.916   4.000 -0.1207  0.1101 -0.2525
21571W        W37380   1.435   1.630  13.490  0.0159  0.0405 -0.0626
21572W        W37381   1.709  11.799  16.239  0.0718  0.0649  0.1105
21573W        W37382   3.289   5.798  13.451  0.2370  0.1155  0.0299
21574W        W37383  12.787   2.286  11.503 -0.0402  0.0685 -0.0745
21575W        W37384   4.073  13.321   4.778 -0.0252  0.1618 -0.0071
21576W        W37385   5.195  10.837  13.017 -0.1712  0.1082 -0.0632
21577W        W37386   0.889   5.899   2.541 -0.0229 -0.0437 -0.2991
21578W        W37387  11.848   4.135   5.200  0.0463  0.2626 -0.2404
21579W        W37388   0.358  16.975   1.622 -0.0921 -0.1912 -0.0439
21580W        W37389   4.527   0.387  12.333  0.0952 -0.0294  0.1497
21581W        W37390   5.718   8.111  13.053 -0.1945 -0.0742  0.1677
21582W        W37391   6.117   0.606   2.335  0.1436 -0.0552  0.1071
21583W        W37392   9.058   8.233   2.755 -0.0029  0.1104  0.2636
21584W        W37393   9.374   3.336  15.007 -0.0252  0.0658 -0.3849
21585W        W37394   3.454   8.004  14.213 -0.2537  0.2478 -0.1116
21586W        W37395  14.863   2.203  15.306 -0.4863 -0.2390  0.0339
21587W        W37396  10.196  16.845  14.741 -0.1413  0.1659  0.0074
21588W        W37397   3.310  15.172   1.427  0.1049  0.4779  0.1856
21589W        W37398   7.231  13.032  16.188  0.1934 -0.1433 -0.0310
21590W        W37399  10.359   5.219   4.319  0.1502 -0.0536  0.3386
21591W        W37400   2.851   2.627  12.317  0.2712  0.0667  0.0283
21592W        W37401  17.846  14.601  15.315 -0.1369 -0.1365  0.1197
21593W        W37402   5.190  13.894  14.714  0.1927 -0.3409 -0.2190
21594W        W37403   6.765  18.170  11.623 -0.2528 -0.0372  0.1702
21595W        W37404   6.154  10.145  14.378 -0.1227 -0.0917 -0.1699
21596W        W37405   2.816   3.333   3.784 -0.0345  0.1423 -0.0338
21597W        W37406   7.337  11.114  14.275  0.2277 -0.2762 -0.0237
21598W        W37407  16.098  15.593   5.744  0.1201 -0.0490 -0.0534
21599W        W37408   8.147   4.098   0.714 -0.3711  0.2476  0.0340
21600W        W37409  17.041  11.605   0.142  0.0548  0.1140  0.1229
21601W        W37410  14.878  15.775  14.762 -0.0248 -0.0834 -0.1252
21602W        W37411   3.935   9.052   5.093 -0.0333  0.1118  0.1385
21603W        W37412   9.360  13.911   0.081  0.2145  0.0770  0.2265
21604W        W37413   6.049  17.893   1.767 -0.2947 -0.2214 -0.0173
21605W        W37414   0.824  11.172  13.745 -0.1765  0.0265 -0.1375
21606W        W37415   8.651   2.437  11.851  0.1122  0.1029 -0.0856
21607W        W37416   2.622   2.375   0.946  0.0235  0.4149 -0.1682
21608W        W37417  10.039   2.194   3.584 -0.0711  0.0211 -0.1136
21609W        W37418   8.690   9.120  15.005 -0.0355 -0.2830  0.0660
21610W        W37419  15.202  11.908  16.140  0.2473  0.1346  0.2591
21611W        W37420  12.800   7.504   0.019 -0.1805 -0.1995 -0.0247
21612W        W37421   1.596   6.368   3.507  0.0221 -0.1801  0.2119
21613W        W37422  12.666  15.957  12.565  0.0070 -0.1480 -0.3387
21614W        W37423   6.027   1.324  13.676  0.2502  0.0189 -0.1976
21615W        W37424  16.583  10.134   2.257 -0.1030 -0.2144 -0.1101
21616W        W37425   0.282  11.801   2.270  0.0039 -0.1112  0.0740
21617W        W37426  10.670   1.593  16.113 -0.0103  0.1464  0.1055
21618W        W37427  17.204   1.942  12.558  0.1298 -0.0771  0.2642
21619W        W37428  10.844   0.290  13.060 -0.0392  0.0433 -0.0022
21620W        W37429  15.833  11.236  12.170  0.1481 -0.1796  0.0236
21621W        W37430   5.304   4.968   4.633  0.1323  0.3444  0.1264
21622W        W37431   1.352   5.295   3.947  0.1323 -0.2741 -0.2219
21623W        W37432  16.273  10.920  12.125 -0.0067  0.0441  0.1777
21624W        W37433   0.463  16.256  12.674  0.0264 -0.2859  0.1355
21625W        W37434  17.528  17.907  14.111  0.0275 -0.3592  0.1109
21626W        W37435  10.766  18.176  11.440 -0.0303 -0.0020  0.2758
21627W        W37436  12.186  13.101  13.653 -0.0480 -0.2406  0.0820
21628W        W37437  15.255   6.174   2.806  0.2684 -0.0888 -0.2212
21629W        W37438   7.723  13.056  12.382 -0.1093  0.1046 -0.1755
21630W        W37439  15.077  14.620   4.191  0.3715 -0.0315 -0.2334
21631W        W37440   9.465   2.279  12.351  0.0633 -0.3272 -0.2132
21632W        W37441  10.214   7.885  13.578  0.1984  0.0806  0.0366
21633W        W37442   5.365   8.765  12.815  0.1733  0.1013  0.0539
21634W        W37443  11.844  11.832  14.606 -0.2654  0.0417  0.1268
21635W        W37444  10.774  10.770  14.395 -0.0069  0.1490  0.1210
21636W        W37445  17.427  13.790   0.951 -0.2889 -0.0077 -0.5441
21637W        W37446  15.666  18.106  13.940 -0.0010  0.4915 -0.0891
21638W        W37447   0.137  12.062  12.419  0.1837  0.1401  0.1685
21639W        W37448  14.827   9.387   5.727  0.3261 -0.1565 -0.0331
21640W        W37449  18.102  13.599   3.028 -0.2202  0.0728 -0.0311
21641W        W37450   1.304   1.147   1.589 -0.2739 -0.2445 -0.1544
21642W        W37451   3.543   1.034  11.926  0.0710  0.0160  0.0687
21643W        W37452   6.247   6.874  14.238 -0.2920 -0.1609 -0.1178
21644W        W37453  10.313   8.692   0.865  0.1774 -0.0459  0.0376
21645W        W37454   5.148  16.043  12.408 -0.0327  0.0785 -0.1096
21646W        W37455   9.811   4.353   1.426 -0.0161 -0.2556  0.0592
21647W        W37456  14.694   6.889   2.396  0.0065  0.0883 -0.1766
21648W        W37457  10.811   8.604   4.120 -0.1102  0.0023 -0.0064
21649W        W37458   1.835   5.444  12.219  0.0284 -0.0359 -0.0689
21650W        W37459   1.926   0.433   4.643  0.2989  0.0114 -0.3102
21651W        W37460  17.984   9.985   4.044 -0.0973  0.0784  0.0980
21652W        W37461   3.735  14.288  15.501 -0.1404  0.0309  0.0789
21653W        W37462   8.955   9.952  11.862 -0.0219 -0.0131 -0.0024
21654W        W37463  13.125   3.194  15.258  0.4906 -0.2821  0.0577
21655W        W37464  16.706  11.162   4.778  0.2626  0.2550 -0.2078
21656W        W37465   3.092   0.048  12.287 -0.1360 -0.3866 -0.2383
21657W        W37466   2.812  17.756  12.275 -0.0117 -0.1939  0.0883
21658W        W37467  14.297  10.984  16.043 -0.0115  0.1825  0.0940
21659W        W37468   9.737  16.670   4.230 -0.1531  0.1230  0.1183
21660W        W37469   9.210  10.080   1.055 -0.1753 -0.1255  0.1945
21661W        W37470   8.417  11.916   3.011  0.3017  0.2777  0.2060
21662W        W37471  13.451  10.783   2.669 -0.1654  0.1558  0.2096
21663W        W37472   6.301   4.273  11.241 -0.0033 -0.2057 -0.2147
21664W        W37473  12.571   0.582   0.057  0.2548  0.3373 -0.0661
21665W        W37474  17.625   7.058   2.489 -0.1211  0.3112 -0.0144
21666W        W37475  14.975   6.083   4.542 -0.2796 -0.0948 -0.2986
21667W        W37476   8.323  17.787   3.054 -0.0641 -0.0513  0.0610
21668W        W37477  17.167   0.972   2.807 -0.1351 -0.0004  0.1662
21669W        W37478  12.625   1.501  12.853  0.4482 -0.2483 -0.1154
21670W        W37479   2.395  14.015   2.170 -0.1316 -0.0383  0.0787
21671W        W37480  17.199   3.999   3.033 -0.0818 -0.5554  0.2262
21672W        W37481   9.692   0.040   4.863  0.2612 -0.0971 -0.0426
21673W        W37482   9.138  16.160   3.798  0.0434 -0.1398  0.0796
21674W        W37483   7.703   5.990  13.068  0.0674  0.1756 -0.0559
21675W        W37484   2.331  11.201  11.463 -0.1289  0.1435  0.1030
21676W        W37485  10.315   7.294  12.776  0.3424  0.0053 -0.1124
21677W        W37486  14.625  15.245   3.964 -0.0713  0.3829  0.0270
21678W        W37487  10.059   9.550  13.187 -0.1836  0.0226 -0.2202
21679W        W37488   4.577  14.375  15.094  0.2566 -0.0833 -0.2052
21680W        W37489  17.585  12.051  13.138 -0.3041  0.0056 -0.0810
21681W        W37490   8.899   8.463  11.231  0.2909  0.1794 -0.0738
21682W        W37491   1.407  12.598   1.653 -0.0564 -0.1230  0.0321
21683W        W37492   1.012   7.212  14.248 -0.3253 -0.0384 -0.0322
21684W        W37493   2.517  13.465  15.082 -0.2604  0.0182 -0.1756
21685W        W37494  15.598   0.769  14.436  0.0227 -0.0204  0.1695
21686W        W37495  16.446  10.490  14.202  0.1760 -0.1041  0.1859
21687W        W37496   0.792   7.651   3.104 -0.1669 -0.2583 -0.1688
21688W        W37497  13.903   1.529  12.889 -0.0317 -0.1329  0.0141
21689W        W37498   8.979   8.618   5.051 -0.4834  0.2066 -0.3261
21690W        W37499   8.125  17.828   3.843  0.0730 -0.2094 -0.2116
21691W        W37500   0.507   7.965  12.640  0.1849  0.1511  0.0530
21692W        W37501   1.796   4.098   4.694  0.0496  0.0174  0.0638
21693W        W37502  10.325   6.686   3.687 -0.1559 -0.1731  0.1564
21694W        W37503  17.496  14.411  12.118 -0.0939 -0.0314 -0.2546
21695W        W37504  13.641   3.969   5.570 -0.1276  0.1630  0.0858
21696W        W37505   1.969  17.331   0.401  0.1427 -0.0423  0.0910
21697W        W37506  13.433  13.729  12.174 -0.1835  0.0214  0.0236
21698W        W37507  11.790   1.349   2.660 -0.1843 -0.1088  0.1293
21699W        W37508   8.284  12.918   1.817  0.0039  0.1007 -0.0665
21700W        W37509  12.396  16.505   0.871 -0.0764 -0.0561 -0.0756
21701W        W37510  10.333  17.575   0.468 -0.0836 -0.0058  0.0918
21702W        W37511   2.788   1.603   2.427  0.1189  0.1059  0.1253
21703W        W37512   6.458  15.543   1.934  0.4483  0.0093  0.0089
21704W        W37513   2.576   3.360   5.429 -0.4097 -0.0503  0.3244
21705W        W37514   7.812   4.491   2.730  0.4167  0.0628 -0.2724
21706W        W37515  15.954   6.831   3.590  0.1970 -0.1927 -0.0950
21707W        W37516   7.696  17.750   4.174  0.0239  0.2335  0.4062
21708W        W37517   4.399   9.940   2.222 -0.0096  0.3635  0.0579
21709W        W37518   8.251   8.831   0.258 -0.1065 -0.3724  0.1443
21710W        W37519   8.941  15.368   2.513  0.0283 -0.0173 -0.2163
21711W        W37520   0.385  17.443   1.932 -0.0585  0.0470  0.0936
21712W        W37521  10.743  17.589   2.300 -0.1079 -0.0345 -0.1375
21713W        W37522  10.037  11.205   2.008  0.1591  0.2247  0.0376
21714W        W37523  14.951  15.027   1.854  0.2095 -0.1367 -0.1494
21715W        W37524   1.981  16.849   0.700  0.1496  0.0344 -0.1126
21716W        W37525   2.272   3.047   0.470 -0.1046  0.3816  0.1848
21717W        W37526   5.765  15.008   4.618  0.2005 -0.0971 -0.1499
21718W        W37527  13.392   7.661   3.160 -0.0429  0.1964 -0.0429
21719W        W37528   0.662  12.444  13.470 -0.4149 -0.3043  0.2620
21720W        W37529   7.750   6.459  10.673  0.1138  0.3607 -0.1656
21721W        W37530  11.819  12.797  14.473  0.1077 -0.0874 -0.0176
21722W        W37531  14.595   2.290  12.103 -0.2123  0.1935  0.1999
21723W        W37532  13.899   4.662  13.886  0.1005  0.1065  0.0024
21724W        W37533   1.439   4.770   4.929  0.0151  0.1612  0.0905
21725W        W37534  11.979   3.867  15.276 -0.0037 -0.2028 -0.2548
21726W        W37535  14.076   8.071  16.231  0.0072  0.0893 -0.0168
21727W        W37536  12.053   1.403   2.273  0.0950 -0.1050  0.3021
21728W        W37537   5.948   9.841  15.510 -0.0891 -0.1224  0.0152
21729W        W37538   7.356  15.740   5.186 -0.1996  0.1239  0.0228
21730W        W37539   7.723   6.285   1.576  0.5249  0.0065 -0.1632
21731W        W37540   2.325  16.229  15.990  0.2991 -0.0247 -0.0042
21732W        W37541  12.383  16.803   4.622 -0.2298  0.3917 -0.1276
21733W        W37542   2.121   7.404   5.575 -0.0453 -0.4121 -0.1358
21734W        W37543   6.891  16.593   3.996  0.2790 -0.1116  0.1394
21735W        W37544   6.510  11.074   2.614  0.2107 -0.2001 -0.1822
21736W        W37545  13.755   4.941   4.116 -0.2946  0.3020  0.2037
21737W        W37546   4.630  17.245  14.982  0.0980  0.5370 -0.0346
21738W        W37547  11.388  17.673   3.984  0.1049 -0.0849 -0.0585
21739W        W37548  17.432   3.658   5.817  0.0900 -0.0639  0.2779
21740W        W37549  10.264   6.372  14.473  0.2949  0.1297 -0.1648
21741W        W37550   9.530  18.000   1.562  0.1093  0.0102 -0.0245
21742W        W37551   5.362  13.428  13.469 -0.0266 -0.1821  0.1584
21743W        W37552  16.388  13.715  12.264  0.1249  0.2015 -0.0895
21744W        W37553  16.008  15.033   4.379  0.1161  0.1151 -0.2689
21745W        W37554   3.432   1.547   1.197 -0.0198  0.2439  0.0936
21746W        W37555  14.537   6.162   5.884 -0.0728 -0.0971  0.2020
21747W        W37556  12.600   2.668   5.966  0.0723 -0.0243 -0.4711
21748W        W37557  11.841   5.914   1.066  0.1092  0.1614 -0.1424
21749W        W37558  14.342   6.244  12.259 -0.0712 -0.1596  0.0491
21750W        W37559   2.539   3.218  14.803 -0.1900 -0.1255  0.1741
21751W        W37560   0.123  17.983   0.352  0.3344  0.1575 -0.1165
21752W        W37561  13.851  14.175  13.188 -0.0863  0.1152 -0.3118
21753W        W37562   8.673   7.968   5.493 -0.2532 -0.2699  0.1250
21754W        W37563   2.572   9.183  12.305 -0.0940  0.2636 -0.1885
21755W        W37564  10.391   8.723  16.015 -0.1627  0.3672 -0.0401
21756W        W37565   5.453   1.814  11.588 -0.0666 -0.1265 -0.0396
21757W        W37566  13.941  12.463  15.481  0.1284  0.3179  0.1824
21758W        W37567   7.093  11.460   1.813  0.0728  0.0801  0.1669
21759W        W37568   7.303  15.511   1.632 -0.0974 -0.1525  0.2258
21760W        W37569  16.159   0.691   2.715 -0.2079  0.0223  0.1375
21761W        W37570  16.523  10.119  14.697 -0.0104 -0.0591 -0.0375
21762W        W37571   1.504  16.530  13.650 -0.0149  0.2503  0.3476
21763W        W37572  16.202  10.016  13.332  0.3616 -0.2454 -0.0974
21764W        W37573   3.435   0.150   5.066  0.1133 -0.0399 -0.1674
21765W        W37574   8.969   1.575  15.079 -0.0460  0.0752  0.1246
21766W        W37575   1.547   6.041   1.785  0.0032 -0.3780  0.0448
21767W        W37576   3.369   2.838  15.556 -0.1200  0.0975 -0.2118
21768W        W37577   3.717  10.255   2.655 -0.0914  0.0736 -0.1600
21769W        W37578   1.458  14.289   6.006  0.2236  0.2834  0.1007
21770W        W37579  12.248  15.260  12.676  0.0691 -0.2812  0.0986
21771W        W37580   0.824  15.195  14.717  0.0757 -0.1563  0.0214
21772W        W37581  14.162  16.209   2.871 -0.1431 -0.2552 -0.1937
21773W        W37582   4.698  15.266   0.870  0.3900  0.0509 -0.0250
21774W        W37583  12.155  11.177   0.216 -0.0979  0.0449  0.1420
21775W        W37584   4.345   4.544   5.115  0.2020  0.1371 -0.0003
21776W        W37585  14.906  18.145   1.939  0.3391  0.3175 -0.0442
21777W        W37586   9.437  13.385  12.502 -0.1423  0.1533  0.3108
21778W        W37587   9.933   3.886  15.813  0.0750 -0.0837  0.1164
21779W        W37588   2.077  15.149   1.577 -0.1439 -0.1766  0.0869
21780W        W37589   5.486  15.720  14.402 -0.1448  0.3199 -0.0897
21781W        W37590  14.257  10.917   5.171 -0.1467 -0.0809 -0.0155
21782W        W37591   9.492  17.509  14.285 -0.1110 -0.4732 -0.2194
21783W        W37592  15.497  14.941  14.715  0.2048 -0.1702  0.1123
21784W        W37593  13.370  16.566  13.109  0.3176  0.2162  0.0532
21785W        W37594  15.425  10.146   4.594  0.1788  0.1215 -0.1610
21786W        W37595   7.380   0.827   3.749  0.0039  0.1984 -0.0750
21787W        W37596  11.572   4.061  13.499 -0.0467  0.0571  0.0595
21788W        W37597  13.961   5.177  13.969  0.0264 -0.3243 -0.1296
21789W        W37598  16.506  12.432  14.994  0.1293 -0.1293 -0.0265
21790W        W37599   8.782  15.838  14.316  0.0552 -0.1255 -0.1887
21791W        W37600   1.284   3.184  11.587  0.0211 -0.2148  0.3344
21792W        W37601   7.236   3.217  13.283  0.1464  0.3128 -0.2839
21793W        W37602   3.973   5.828  15.479  0.0668  0.1839  0.2965
21794W        W37603  17.002   4.518  15.829  0.1780  0.1827 -0.2000
21795W        W37604  14.359  13.476  12.784  0.0144 -0.1859 -0.2831
21796W        W37605   4.844   3.557  14.408  0.2018  0.1482  0.1299
21797W        W37606   9.817   1.049  12.749  0.4540  0.1813  0.0232
21798W        W37607  12.215   3.966  14.361  0.1840 -0.0168 -0.2028
21799W        W37608  13.446  11.458   5.412  0.1491  0.0280  0.2186
21800W        W37609  17.840   8.181  12.804 -0.1157 -0.1727 -0.0275
21801W        W37610   0.024   5.050   0.295 -0.0167 -0.2694  0.1196
21802W        W37611  15.681   7.618  14.669  0.0402 -0.0187  0.1638
21803W        W37612  10.945   5.093  14.323 -0.0392 -0.1297 -0.2752
21804W        W37613  15.586   8.571   2.029 -0.1696 -0.0058 -0.1681
21805W        W37614   8.259   3.600   0.805 -0.1949 -0.0039 -0.0923
21806W        W37615  12.392   7.156  11.466 -0.1784  0.1033 -0.1388
21807W        W37616  12.299   2.256   5.668  0.0401  0.1061  0.1228
21808W        W37617   5.956   7.009  14.612  0.0001 -0.1594 -0.0674
21809W        W37618   2.343  12.405  13.137  0.3421  0.2500  0.1657
21810W        W37619  16.388  17.498   1.702 -0.2470 -0.0909 -0.1795
21811W        W37620   5.879   5.889  11.753 -0.1173  0.1346  0.3543
21812W        W37621  15.632  16.158   0.593 -0.3995  0.4481  0.1672
21813W        W37622   8.249   5.232  12.042  0.0125  0.0380  0.0488
21814W        W37623  18.015   2.787   4.173 -0.1779 -0.0059  0.0322
21815W        W37624  12.006  17.222  14.214  0.1789 -0.0419  0.1872
21816W        W37625  15.502  11.997  12.262  0.1997 -0.1194 -0.0971
21817W        W37626   4.773  16.218  16.181  0.2410  0.0787  0.0390
21818W        W37627  10.277  16.163   2.325 -0.1699 -0.5124  0.0385
21819W        W37628  14.452  17.043   2.652 -0.0278 -0.0375 -0.0206
21820W        W37629  12.705   6.172  11.765  0.0244  0.0510 -0.0465
21821W        W37630  17.717   2.305   5.918  0.0667  0.4207  0.2449
21822W        W37631   1.987  13.558  15.870 -0.3614  0.0042 -0.0274
21823W        W37632  13.027   2.717   4.501 -0.2316  0.0788 -0.2677
21824W        W37633   6.858  12.339  15.116  0.0358  0.2041  0.0797
21825W        W37634  13.815  11.202  13.149  0.1212 -0.2536 -0.3543
21826W        W37635   3.626   1.830   3.942 -0.1401 -0.1519  0.1731
21827W        W37636  11.873   0.285   1.280 -0.0783 -0.0040  0.1523
21828W        W37637  11.033   4.768  12.397 -0.0115 -0.2715 -0.0723
21829W        W37638  12.018  14.174  11.285  0.3455 -0.2154 -0.1789
21830W        W37639   7.997   1.742   2.219  0.0423 -0.1527 -0.0078
21831W        W37640   6.656   6.908  13.943 -0.2562 -0.0181 -0.0261
21832W        W37641   9.901   4.456  12.226  0.3368 -0.1539  0.5168
21833W        W37642   6.147   6.765  16.136  0.1223 -0.1787 -0.1980
21834W        W37643   5.360  18.012  13.725  0.0265 -0.3458 -0.0126
21835W        W37644   5.788   4.811   4.253  0.0507  0.1388  0.2412
21836W        W37645   4.452   5.143  13.406 -0.0010  0.3732 -0.1745
21837W        W37646   8.654  11.935  16.069 -0.1432  0.0054  0.2749
21838W        W37647  17.897   5.333   5.819 -0.2242  0.1041  0.0094
21839W        W37648   8.748   8.343  12.541 -0.0065  0.0921  0.0184
21840W        W37649   7.873  13.508  15.764  0.0214 -0.0739  0.1567
21841W        W37650  16.111  17.721   0.761 -0.1368  0.1458 -0.0211
21842W        W37651   1.931  13.399   5.454 -0.2602  0.0632 -0.1831
21843W        W37652   1.542  10.106   3.534 -0.0435 -0.1983  0.2332
21844W        W37653   9.632  12.591   5.312 -0.1411 -0.0304 -0.0674
21845W        W37654  12.655   9.899  12.566 -0.2836 -0.0983 -0.2135
21846W        W37655  11.740  13.158   1.922 -0.2571 -0.0015 -0.0197
21847W        W37656  16.046  15.511  13.666 -0.2786 -0.1195 -0.1335
21848W        W37657   5.568   1.778   2.306  0.0294  0.1007 -0.0795
21849W        W37658  13.847   7.518   2.996 -0.1635 -0.2629  0.2414
21850W        W37659   5.960   1.675   2.069 -0.2137 -0.1857 -0.2174
21851W        W37660   3.256  12.987  10.804  0.0428 -0.0926  0.2448
21852W        W37661   0.488  16.843  11.833  0.0941  0.1422 -0.0581
21853W        W37662  12.061  17.043   5.869 -0.2395  0.0579  0.4323
21854W        W37663  10.485  11.262  13.406  0.2905  0.1752  0.6118
21855W        W37664   6.949  11.859   4.892 -0.1420  0.1353  0.1501
21856W        W37665  13.230  12.075   1.380  0.1300  0.4686  0.1644
21857W        W37666   1.786  14.207  14.521  0.2702  0.0732  0.1489
21858W        W37667   5.671   1.780   5.180  0.0690 -0.2074 -0.1933
21859W        W37668  17.074  15.016   0.379  0.0610  0.4463 -0.1961
21860W        W37669   6.425   5.203   4.491 -0.1653 -0.0373  0.0493
21861W        W37670  14.157   7.394  15.355  0.1514 -0.2748  0.3894
21862W        W37671  14.567  17.195  11.462 -0.3070 -0.2256 -0.0411
21863W        W37672   6.551  17.648   0.934 -0.4970 -0.0146  0.0841
21864W        W37673  17.922  10.311  13.291 -0.1538  0.2947  0.0240
21865W        W37674  13.476  15.351   0.024 -0.1801 -0.2537 -0.2220
21866W        W37675  11.017   0.841   4.323  0.2007 -0.0632  0.2271
21867W        W37676   3.007  12.277   4.442  0.1850 -0.2645  0.1568
21868W        W37677   2.453   5.858  13.824  0.0987 -0.1389 -0.2835
21869W        W37678   5.178  15.305  11.140  0.3665  0.2244  0.2495
21870W        W37679   8.170  12.513  13.583  0.0069 -0.3874  0.0305
21871W        W37680  10.541  14.290  11.696 -0.0998 -0.0368  0.5656
21872W        W37681   6.268  17.608   4.971 -0.1369  0.0921  0.1765
21873W        W37682   4.671   7.807  15.969  0.1476 -0.0081  0.2972
21874W        W37683   1.355  17.769   1.656 -0.2934 -0.0489 -0.0423
21875W        W37684   9.883   7.864   2.690 -0.0954  0.0073  0.1456
21876W        W37685  15.713  14.391   2.299  0.3871 -0.1478 -0.0279
21877W        W37686   1.764  15.213  11.888  0.2573  0.2135 -0.0611
21878W        W37687  15.755  14.633  13.728  0.0109 -0.0782 -0.1413
21879W        W37688   8.777  10.384   5.372  0.0589 -0.0371  0.1676
21880W        W37689  17.841   7.062  11.738 -0.5246 -0.0143 -0.1460
21881W        W37690   3.241  17.837  12.008 -0.3578 -0.1067 -0.0336
21882W        W37691   7.861   9.966   1.646  0.2397 -0.1274 -0.0712
21883W        W37692  17.538   9.628  12.895 -0.1067  0.1200 -0.0739
21884W        W37693   0.420   4.749   5.832  0.2683  0.1180 -0.2458
21885W        W37694   0.402   8.257   4.157 -0.3703 -0.0155 -0.1432
21886W        W37695   1.922   8.366  15.817  0.0638  0.1833 -0.2638
21887W        W37696   0.714  11.558  12.223  0.1551  0.0612 -0.1161
21888W        W37697   5.143  15.738  13.849 -0.1211  0.0058 -0.1293
21889W        W37698   2.600   6.260  15.755 -0.4629 -0.0867  0.2308
21890W        W37699  15.729   1.703  14.053  0.3832  0.0759 -0.2772
21891W        W37700   1.028   8.612   1.139  0.1003  0.2248 -0.1828
21892W        W37701   4.118  10.689   4.072 -0.0482 -0.1639  0.1631
21893W        W37702   7.870   3.153  14.457 -0.1264  0.0411  0.1862
21894W        W37703  10.538  14.999   1.475 -0.1842  0.1231  0.1031
21895W        W37704   1.291   5.066   5.316 -0.1866  0.4774  0.0807
21896W        W37705  14.706  13.699  13.075  0.0338  0.1433  0.0607
21897W        W37706   8.560   1.446   0.491  0.1278  0.0290 -0.1277
21898W        W37707   6.748   4.176  15.435  0.1055  0.0820  0.1651
21899W        W37708  18.049   4.314  12.071  0.0453  0.2725 -0.3393
21900W        W37709   3.084   0.050  14.441  0.3948 -0.1060 -0.0130
21901W        W37710   0.673  16.615   1.495  0.0714  0.3586 -0.2365
21902W        W37711  11.356   1.812   0.220  0.0735  0.0938  0.2643
21903W        W37712  13.363   2.800   1.583  0.2247 -0.2594  0.1634
21904W        W37713  18.078   6.449  15.109  0.1822  0.1121  0.1412
21905W        W37714   8.946   9.745  12.384  0.2368  0.0113 -0.1560
21906W        W37715   8.938   6.460   4.621  0.2874  0.2803  0.1707
21907W        W37716  10.621   3.796  16.201 -0.0020 -0.1227  0.2131
21908W        W37717  14.165  17.760   5.176  0.1580 -0.0742 -0.0030
21909W        W37718   0.593  12.257   2.357  0.0611  0.0131  0.2065
21910W        W37719   2.111   4.635  11.894 -0.1927 -0.1978  0.1581
21911W        W37720   8.529   8.295  12.976  0.0908  0.2089 -0.0131
21912W        W37721  15.148   5.408  12.969  0.2446  0.2557  0.1290
21913W        W37722   0.974  15.932   3.515 -0.0542 -0.0935  0.0471
21914W        W37723  12.961  10.651   1.108 -0.1426  0.3800 -0.0307
21915W        W37724  10.307   1.607  14.574  0.1296  0.1313  0.0447
21916W        W37725   4.566  13.363  12.790 -0.1669 -0.0834  0.1206
21917W        W37726  12.521   4.446   4.025 -0.2351  0.0116  0.0516
21918W        W37727   1.181   0.321  13.898  0.0710  0.0215  0.0097
21919W        W37728  15.230   3.103  13.712  0.0149  0.2534  0.0014
21920W        W37729   3.512  15.543  11.188 -0.1436  0.1624  0.2939
21921W        W37730   7.436  11.331   1.452  0.1740 -0.3119 -0.0870
21922W        W37731   8.634  15.391   0.983 -0.0260 -0.0591  0.0027
21923W        W37732   3.087   4.472  11.178 -0.0522  0.2246  0.1574
21924W        W37733  15.645  11.794  11.415 -0.3961 -0.2649  0.0615
21925W        W37734  16.258   8.305   3.862 -0.2871 -0.1492 -0.2224
21926W        W37735  17.512  14.870   4.602  0.1331  0.1622  0.1717
21927W        W37736   9.591   9.989  12.016  0.0803 -0.0922 -0.3618
21928W        W37737  17.295   5.052   2.275 -0.1032  0.1054  0.6197
21929W        W37738  17.637  11.427   0.739 -0.1526 -0.0120  0.2302
21930W        W37739   1.716  17.889   2.087 -0.0153 -0.2916 -0.0794
21931W        W37740  14.568   1.223   2.418 -0.1121  0.0751  0.3647
21932W        W37741   1.109   7.848   1.979  0.2691  0.1148  0.0980
21933W        W37742  15.017   1.540   0.084  0.0133 -0.2062  0.1825
21934W        W37743   3.995   4.186  13.646  0.0054 -0.1124  0.0106
21935W        W37744  15.309  12.421   3.401  0.2841  0.1630  0.3185
21936W        W37745  12.199  10.195   4.179 -0.1368  0.1578  0.2465
21937W        W37746   4.279   7.515  14.761 -0.0097 -0.0831 -0.1911
21938W        W37747  13.233   6.585   5.012 -0.1110 -0.2030 -0.2226
21939W        W37748  16.705   0.057   2.852 -0.0221  0.1270  0.2164
21940W        W37749  16.295  15.182   5.042  0.0154 -0.0655 -0.1569
21941W        W37750   8.502   1.129   2.227  0.0566 -0.0262 -0.1252
21942W        W37751  12.997  15.386  16.234  0.1390  0.2596 -0.1832
21943W        W37752   3.494   5.076  11.936  0.1162  0.0265  0.2087
21944W        W37753  10.136  14.577   3.692  0.0766  0.3953 -0.2366
21945W        W37754  16.322  15.451   0.566 -0.2025  0.0199 -0.1401
21946W        W37755  16.213  12.092   0.777  0.0864  0.0200 -0.2104
21947W        W37756  14.885   0.048   2.845  0.1637 -0.2069  0.2522
21948W        W37757   7.039   3.512  16.106 -0.2804  0.1692 -0.0640
21949W        W37758  14.090  10.507   4.930 -0.1642  0.3204 -0.0323
21950W        W37759   6.788   7.093  11.374 -0.1633 -0.0330 -0.0794
21951W        W37760   3.381  15.982   0.923  0.0170 -0.2967 -0.1587
21952W        W37761  10.278   2.360   5.478  0.1526 -0.2544  0.0101
21953W        W37762  13.648   7.124   0.040  0.1648 -0.0672 -0.1245
21954W        W37763  16.411   3.154  10.448 -0.2527 -0.1330 -0.2527
21955W        W37764   0.692   8.148  13.143 -0.3421  0.1047  0.0205
21956W        W37765  14.615  14.754   4.097  0.0278  0.3935  0.2638
21957W        W37766   4.483   4.987   1.795  0.0961  0.5235  0.0561
21958W        W37767   7.541  12.641   2.268  0.0422  0.2310  0.0093
21959W        W37768  13.931   6.513   3.278  0.0575 -0.1775 -0.0649
21960W        W37769  17.263  11.040  13.286  0.1193  0.1700 -0.4310
21961W        W37770  16.647   9.525   3.578 -0.0853 -0.0061  0.1232
21962W        W37771  10.613   7.477   3.245  0.2011  0.2154  0.1406
21963W        W37772  10.808   4.178   3.208 -0.0671 -0.0346 -0.2870
21964W        W37773  16.714   8.663   0.242 -0.0257  0.0993  0.2226
21965W        W37774  12.944  13.411   3.720  0.4390  0.1087 -0.1510
21966W        W37775   9.564   3.783  16.092 -0.0959 -0.0042 -0.2291
21967W        W37776   1.096   8.871   5.403 -0.0455  0.0117  0.2807
21968W        W37777   7.190   7.655  12.361  0.4818  0.1020 -0.0314
21969W        W37778  17.398  12.878  12.813  0.0954 -0.0361  0.0053
21970W        W37779   2.406   2.424   0.482 -0.0300 -0.0574 -0.2461
21971W        W37780   3.100   0.883   4.545  0.0562  0.1665  0.0864
21972W        W37781  14.388   2.497  15.186 -0.2657 -0.5223 -0.1587
21973W        W37782  12.497   5.030   3.426  0.2102 -0.0686  0.0148
21974W        W37783  15.805  11.751   1.841 -0.3076  0.2286 -0.0804
21975W        W37784  15.236   3.405  14.230  0.2164 -0.1080  0.2214
21976W        W37785   2.331   1.024   0.121 -0.2440 -0.2722  0.0930
21977W        W37786  13.899   0.449   0.521  0.1641 -0.0846  0.2787
21978W        W37787  16.705   8.860  12.246  0.1250  0.0242 -0.2229
21979W        W37788   5.768  12.336  15.845  0.1194  0.0001 -0.0595
21980W        W37789  17.042  17.704   4.357  0.0071 -0.0022 -0.0670
21981W        W37790   0.137  15.978  12.296 -0.1221 -0.2047  0.1215
21982W        W37791   6.860  14.558   1.795  0.1511  0.0711 -0.1927
21983W        W37792   1.132  16.415   5.494  0.1278 -0.1272 -0.2344
21984W        W37793  13.616   6.079  14.149  0.1545  0.1951 -0.0259
21985W        W37794   2.612   0.785  14.873  0.0621 -0.0136 -0.0412
21986W        W37795   9.301  11.694   3.621 -0.1369  0.2048 -0.1368
21987W        W37796  12.860   1.089  15.550  0.2816 -0.2025 -0.0746
21988W        W37797  12.855   5.452  11.399 -0.1801 -0.1117 -0.0818
21989W        W37798  15.826  10.189  12.966  0.0024 -0.1725  0.2177
21990W        W37799   9.290   5.265   2.460 -0.1999 -0.1986  0.2610
21991W        W37800   5.958   6.392   1.021 -0.0321  0.1132  0.1797
21992W        W37801  16.266   9.844   4.316 -0.1705 -0.0509  0.1636
21993W        W37802  12.882  13.484  15.011 -0.1640 -0.3620 -0.1411
21994W        W37803  17.082   4.672   3.549  0.1818 -0.1435 -0.0895
21995W        W37804   2.005   3.694   2.477  0.0568 -0.1229  0.1605
21996W        W37805   8.064  11.954  16.072 -0.1698 -0.0490  0.1104
21997W        W37806  13.701  13.126   0.403  0.0090 -0.0068  0.0311
21998W        W37807   3.214   6.631   5.035 -0.0509  0.0604 -0.3696
21999W        W37808  12.705   5.917  14.575 -0.2341  0.1040 -0.1457
22000W        W37809   1.556  13.477   2.460  0.0626  0.1222 -0.0453
22001W        W37810  13.133  10.797  13.893  0.1217  0.1549  0.1357
22002W        W37811  15.046   3.047  15.139  0.1479  0.2008  0.1388
22003W        W37812  12.305   8.200   5.602  0.1068 -0.2010  0.1122
22004W        W37813   8.748  12.503   0.775  0.2208 -0.1011  0.3707
22005W        W37814   9.027  16.004   4.308  0.1719  0.1477  0.0562
22006W        W37815   0.941  12.078   2.763  0.0442  0.1345  0.2494
22007W        W37816  17.974   4.326  13.494 -0.2270 -0.0196  0.2178
22008W        W37817   7.109  12.190   3.906  0.2987 -0.0126 -0.0136
22009W        W37818  16.887   4.080   2.667 -0.0310  0.1334 -0.1350
22010W        W37819  16.783  12.311  13.160 -0.1204  0.0136 -0.1097
22011W        W37820  16.566   4.160   4.467  0.3065  0.2103 -0.0950
22012W        W37821   9.604   3.401  14.502 -0.1823 -0.4172  0.0262
22013W        W37822  16.871   9.552   0.700  0.2136  0.2014  0.2401
22014W        W37823  10.113  15.240   4.932 -0.2257  0.3517  0.4760
22015W        W37824  12.835  14.812   1.900  0.0857  0.0716 -0.0969
22016W        W37825  12.975   3.579  12.893 -0.1568  0.2574  0.3914
22017W        W37826  18.016  16.684  14.175  0.0451 -0.0308 -0.3336
22018W        W37827   3.606  11.576  10.539 -0.1208 -0.2171  0.0896
22019W        W37828  14.455  17.502   3.135  0.0070  0.0186 -0.2295
22020W        W37829  13.372   7.589   2.076 -0.1014  0.2343 -0.1604
22021W        W37830   8.048  12.594   2.124 -0.2254 -0.0248  0.2552
22022W        W37831   8.840  14.831   1.688 -0.2227  0.0036  0.2314
22023W        W37832   6.485  11.584   3.750  0.3234  0.1898 -0.4658
22024W        W37833   7.471   1.328   3.931 -0.0971  0.0139  0.1174
22025W        W37834  12.129  13.174  11.487  0.2659 -0.4604 -0.2958
22026W        W37835  11.758   5.139   2.221 -0.2289 -0.1694  0.0625
22027W        W37836  10.879   0.152   5.631  0.0959 -0.0231  0.0494
22028W        W37837  17.132  10.881   4.670 -0.0339  0.1753  0.0550
22029W        W37838   5.627   5.508  12.540  0.0363 -0.1687 -0.0304
22030W        W37839  14.661  14.955   4.512 -0.1626 -0.5511 -0.0715
22031W        W37840  16.263   4.690  13.233 -0.0731  0.1279  0.3152
22032W        W37841   0.270   5.030  12.513 -0.3237  0.1490 -0.0403
22033W        W37842   2.425   1.885   4.541 -0.0724 -0.3238 -0.2487
22034W        W37843  12.429  10.740   0.349 -0.1854 -0.1211  0.0590
22035W        W37844  13.386  12.553   2.329  0.0824 -0.3416 -0.0056
22036W        W37845   7.312   0.747  14.928  0.0036 -0.0728  0.0655
22037W        W37846  16.032  10.055   4.734  0.1040  0.1662 -0.1146
22038W        W37847  15.004  13.837  14.053  0.0099 -0.3459 -0.1316
22039W        W37848  11.565  15.915   2.422  0.1141  0.2149  0.0461
22040W        W37849  11.296   9.339   2.853  0.2594  0.0563  0.0524
22041W        W37850  10.977  13.920  15.295 -0.0631 -0.2245  0.1026
22042W        W37851   5.435   2.201   3.475 -0.2521  0.1119  0.0223
22043W        W37852   9.784  13.609   0.501 -0.0287  0.0444 -0.0988
22044W        W37853  12.505   0.703   3.218 -0.0087  0.1095 -0.4641
22045W        W37854  13.192  14.081   3.304  0.3672 -0.0352  0.1633
22046W        W37855   1.125  10.197   2.700 -0.1470  0.0804  0.0461
22047W        W37856  13.397   4.179  11.231 -0.1916 -0.0703  0.0434
22048W        W37857   9.775  15.746   6.229 -0.1219 -0.0982  0.2610
22049W        W37858  14.853  12.891  15.615  0.0882  0.1882 -0.0581
22050W        W37859   3.549   0.251   1.085  0.0719  0.3130  0.1797
22051W        W37860   6.735  17.756  12.612  0.1566 -0.2401  0.2053
22052W        W37861   0.292  14.334   3.104 -0.2679  0.2303  0.2275
22053W        W37862  18.216  16.800  11.699 -0.2380  0.0481 -0.2896
22054W        W37863   3.190   4.620  11.733 -0.0277 -0.2462  0.1196
22055W        W37864   1.096   9.870   1.702 -0.0820 -0.1188 -0.1569
22056W        W37865  11.801  13.042  11.048 -0.1810 -0.1072 -0.0881
22057W        W37866  14.387  14.628   3.581 -0.2930  0.2953  0.2756
22058W        W37867   4.615   1.851  15.319 -0.1059  0.0829  0.0954
22059W        W37868   8.457  13.299  14.235  0.2458  0.2257 -0.0059
22060W        W37869  11.537   9.729  11.209  0.3917 -0.1782 -0.1719
22061W        W37870  12.395  13.186   2.470  0.1755 -0.2228 -0.0494
22062W        W37871  15.869   0.507   1.177 -0.1982 -0.2846 -0.2291
22063W        W37872  15.801   4.699   4.775 -0.0387 -0.1411  0.0275
22064W        W37873   3.454   5.427  11.467 -0.0707  0.0239  0.1156
22065W        W37874  14.698   4.600   1.461 -0.2361 -0.0786 -0.0116
22066W        W37875   9.276  11.993  15.374 -0.0426 -0.3278  0.1619
22067W        W37876  15.286  10.515   2.566  0.1070  0.0651  0.1763
22068W        W37877  17.658   3.472  15.276 -0.2404 -0.0201  0.2619
22069W        W37878  15.996  11.577  15.331  0.0562  0.0231 -0.0125
22070W        W37879   1.564   5.247  14.657  0.2201  0.0361  0.1685
22071W        W37880   5.517  10.148   2.241  0.0132 -0.2420  0.0141
22072W        W37881  14.893   5.467  13.865 -0.1950 -0.0301 -0.1695
22073W        W37882  15.620   6.720  14.357  0.0787  0.0306 -0.4154
22074W        W37883  17.573  14.020   4.824  0.1434  0.1395 -0.2081
22075W        W37884   4.112  10.567  14.993 -0.1479 -0.0820  0.0735
22076W        W37885   0.166   0.768  14.468 -0.1360  0.2185 -0.0914
22077W        W37886   5.453   9.010  14.956  0.2691  0.2448  0.0481
22078W        W37887   5.224   5.959   4.610 -0.1343  0.0166  0.1105
22079W        W37888   7.502  11.457  14.848  0.4115 -0.2381  0.5005
22080W        W37889  16.325   3.117  12.141  0.1661  0.4636  0.0550
22081W        W37890  16.238   9.124   5.722 -0.0582  0.2270 -0.0935
22082W        W37891   6.595  11.154  12.722  0.2252 -0.0284 -0.2211
22083W        W37892   0.651   6.540  15.262  0.0301 -0.1276  0.0773
22084W        W37893  12.157  16.552   0.328  0.2229  0.0999  0.2159
22085W        W37894  10.047   7.363  13.545  0.1886  0.0777  0.1060
22086W        W37895   0.086  10.012   5.085  0.2793  0.0091  0.1298
22087W        W37896   5.636   4.494  12.279  0.2741  0.1191  0.0794
22088W        W37897   4.784   3.301  14.995  0.1857 -0.0470  0.0759
22089W        W37898  13.299  16.243  13.459 -0.1541  0.0677 -0.0866
22090W        W37899   1.323  10.216  15.020  0.0930  0.1461  0.2354
22091W        W37900   3.199   2.433   5.363 -0.1158  0.2816  0.0515
22092W        W37901   0.107  11.760  13.728  0.4763 -0.1450 -0.0627
22093W        W37902  12.281  14.777  15.911  0.0500  0.1484  0.0772
22094W        W37903   4.278  12.778   1.810 -0.1542  0.2433  0.2958
22095W        W37904  14.840   0.231  13.900  0.0771  0.0385  0.0898
22096W        W37905  12.551   2.291   5.228 -0.0400 -0.1925  0.1053
22097W        W37906   9.659   4.823   2.317  0.1518  0.2698 -0.4275
22098W        W37907   2.222   7.595   4.610 -0.1588 -0.1135 -0.0664
22099W        W37908   3.695   1.531   3.534  0.2191 -0.1163 -0.0281
22100W        W37909  10.999  15.238  14.986  0.1153  0.1337  0.3564
22101W        W37910  13.782   4.534   3.719 -0.2575 -0.1356 -0.2583
22102W        W37911  17.839   3.385  11.590 -0.2299 -0.0902 -0.1731
22103W        W37912   8.933   6.726   2.289 -0.0361 -0.0164  0.1967
22104W        W37913   1.151  17.727   0.446 -0.1040 -0.0038  0.0514
22105W        W37914   8.321   4.148   2.911  0.2910 -0.0496  0.0554
22106W        W37915  16.592   6.223  15.137 -0.1037  0.0396 -0.0836
22107W        W37916  17.279  17.365   1.173 -0.0777  0.2126  0.1907
22108W        W37917   1.020   3.813  14.497 -0.0221  0.0214  0.0486
22109W        W37918   4.531  15.441   2.360 -0.0254 -0.1145 -0.2775
22110W        W37919   6.849   6.743  13.493 -0.1574  0.0789 -0.3737
22111W        W37920  14.035  13.593  14.903  0.1765  0.1856 -0.0655
22112W        W37921  16.780  15.144  14.399  0.0014  0.2157  0.0001
22113W        W37922  11.814  15.031   0.238  0.0363 -0.1471  0.2047
22114W        W37923   9.936  17.125  11.353  0.1715  0.0692 -0.2667
22115W        W37924  11.606  11.205   5.846  0.1914 -0.0189 -0.0541
22116W        W37925  11.992  13.560  13.405  0.2683 -0.3182 -0.1192
22117W        W37926   9.223   8.256  15.404 -0.0531  0.0788  0.0798
22118W        W37927  13.935  11.729  15.204  0.1133  0.0675 -0.1568
22119W        W37928   8.134  10.487  14.946  0.0317 -0.1769  0.0696
22120W        W37929   1.713  18.028   3.775 -0.0656 -0.1068 -0.1157
22121W        W37930  12.536   2.910  15.774  0.0466  0.0729  0.2629
22122W        W37931   5.338   6.820   2.705 -0.4187 -0.1253 -0.1594
22123W        W37932   8.342  14.606   1.732 -0.1603  0.3494 -0.1131
22124W        W37933  12.160  18.117   1.486 -0.4608  0.1900 -0.0968
22125W        W37934  13.335   3.566   5.402  0.0158 -0.1729  0.1274
22126W        W37935   9.374  13.550   2.267 -0.1657  0.2323  0.0385
22127W        W37936   3.986   5.415   4.157 -0.0956 -0.0318 -0.1368
22128W        W37937   9.764  10.051   1.096 -0.1101  0.0319  0.1559
22129W        W37938  15.613   3.855  14.409  0.0526  0.1744  0.1570
22130W        W37939  10.637   5.330   0.420  0.1931  0.0863 -0.0556
22131W        W37940   9.387   2.845  13.580  0.1277  0.1812  0.0205
22132W        W37941  15.597  10.896  14.205 -0.3121  0.0697  0.0721
22133W        W37942   0.069   8.363   0.997  0.1504 -0.0669 -0.0432
22134W        W37943   6.803  11.884  14.881 -0.0010  0.2922  0.6029
22135W        W37944  11.160  13.179  14.695  0.0916  0.2309 -0.0178
22136W        W37945   3.807   8.629   4.591  0.3500 -0.0586  0.2055
22137W        W37946   0.948   2.304   2.517  0.1159 -0.1731  0.1652
22138W        W37947   3.523  10.922   0.611 -0.0740  0.0954 -0.0278
22139W        W37948  13.908  11.608  12.528  0.0439 -0.1018  0.1695
22140W        W37949  12.478   5.266   4.352  0.1053  0.3677 -0.1121
22141W        W37950  16.035  17.597   5.325  0.1370  0.0311  0.1546
22142W        W37951   3.951   5.681   2.200 -0.0569  0.0246 -0.0473
22143W        W37952  16.527   1.801   0.355 -0.0485 -0.0594  0.3106
22144W        W37953  13.220   9.586  15.573  0.0180  0.1405  0.1745
22145W        W37954  15.332   7.375   3.701  0.2090 -0.0299  0.1828
22146W        W37955  15.102  11.541   5.221  0.2620 -0.1413  0.2757
22147W        W37956   0.123   4.148   6.087  0.1813 -0.1490  0.1033
22148W        W37957   9.017  13.212  11.272  0.2777  0.1581  0.0041
22149W        W37958  17.283   4.926  13.301  0.3220  0.3490  0.1687
22150W        W37959  14.941   7.888   0.171  0.2161 -0.1899 -0.0685
22151W        W37960  13.491   2.820  15.147 -0.0356 -0.1197  0.2576
22152W        W37961   5.678   7.759  11.823 -0.0522 -0.0548 -0.1892
22153W        W37962  17.645   2.935   3.785 -0.0616 -0.2922  0.0503
22154W        W37963   7.657  14.225   3.439  0.2539  0.2798 -0.0391
22155W        W37964  11.430   9.473  11.768  0.1111  0.0936 -0.0423
22156W        W37965   4.681  10.660   1.843 -0.1867  0.0873 -0.1224
22157W        W37966   3.561   3.671  12.230  0.1738 -0.0459 -0.3482
22158W        W37967  16.643   7.249   3.084 -0.0634  0.2884 -0.2406
22159W        W37968  13.147  13.295  11.433 -0.1075 -0.1966 -0.0947
22160W        W37969   2.303  14.443  13.632  0.1056 -0.4569  0.2092
22161W        W37970   4.901  12.252  12.172  0.1113 -0.0544  0.1404
22162W        W37971  17.881   6.405   1.515 -0.0191  0.1758 -0.1130
22163W        W37972   6.040  15.729  12.156 -0.1432 -0.4007 -0.0260
22164W        W37973  16.065   2.696  12.213  0.3139  0.0602 -0.1652
22165W        W37974   6.453  17.282   0.660 -0.1842  0.3468 -0.1119
22166W        W37975  16.438  16.238   5.023  0.0851  0.0714 -0.1937
22167W        W37976  14.771   9.921  10.748  0.1459  0.1148 -0.0807
22168W        W37977  17.755  11.552   6.247  0.2206 -0.1294 -0.2955
22169W        W37978  12.924  14.920  13.835  0.0410 -0.1948  0.1531
22170W        W37979   4.416  17.132  11.426 -0.0362 -0.3439  0.1970
22171W        W37980   2.277  10.487   0.889 -0.0331 -0.0066  0.2370
22172W        W37981  12.979   8.697   2.592  0.1013  0.1067 -0.1477
22173W        W37982   7.103   5.506   1.282 -0.0153 -0.0300  0.2603
22174W        W37983  16.743   2.560   2.887 -0.2998  0.1675 -0.1215
22175W        W37984  17.197   8.491   2.446 -0.1241 -0.0942  0.0391
22176W        W37985   6.092  17.891   0.954 -0.1354  0.2009  0.0107
22177W        W37986  17.355   5.544   3.952  0.1271  0.2144  0.0188
22178W        W37987   7.205  12.092   2.356 -0.1200  0.1124  0.0833
22179W        W37988   7.865  11.962   0.795  0.2280  0.0060 -0.0803
22180W        W37989   1.976  10.023  12.782  0.2737  0.1106  0.1973
22181W        W37990  11.548   6.391  13.495 -0.2366  0.2008 -0.3281
22182W        W37991  14.287  18.076   0.824 -0.1053  0.1433 -0.0398
22183W        W37992   9.971   6.832  15.815  0.1072 -0.3035 -0.2093
22184W        W37993  12.672   4.218   5.825  0.2910 -0.4628  0.0170
22185W        W37994  17.406   3.555  14.868 -0.1418  0.1230  0.0278
22186W        W37995   9.072   4.924  15.136  0.2475  0.0137  0.0017
22187W        W37996   8.548   0.266   0.720  0.1331 -0.0858  0.4031
22188W        W37997  15.043   7.054   1.580 -0.2204  0.0277  0.0416
22189W        W37998  12.654   1.220   4.762 -0.4383  0.0162 -0.1242
22190W        W37999   0.251  14.268   1.989  0.0895  0.0592 -0.1073
22191W        W38000   9.186  11.694   0.859 -0.1243  0.2792 -0.0378
22192W        W38001   0.802  11.410   0.715  0.2723 -0.1471  0.1070
22193W        W38002  16.864  15.872  11.933 -0.0497 -0.0462 -0.0181
22194W        W38003   5.781   5.994   4.591 -0.1742  0.4599  0.0207
22195W        W38004   9.570   0.966  16.187 -0.0303 -0.0752 -0.2005
22196W        W38005  15.744  15.048   1.131  0.3050 -0.0752 -0.0390
22197W        W38006  17.889  11.151  14.520  0.1123  0.0853  0.0528
22198W        W38007  13.582   9.851  15.812 -0.0341 -0.1136 -0.2391
22199W        W38008  16.364   3.897  13.623 -0.0356 -0.3357 -0.0536
22200W        W38009  17.181   8.065   2.719 -0.1370 -0.0418 -0.0966
22201W        W38010  10.132   8.898  12.688 -0.0312 -0.0625 -0.1186
22202W        W38011  10.673  15.207  15.377  0.1663 -0.2038  0.0418
22203W        W38012   1.818   7.781  12.869 -0.0420 -0.0864 -0.0373
22204W        W38013   6.368   0.850  13.505 -0.0151  0.0009 -0.0826
22205W        W38014   4.097   8.460  13.592 -0.1653 -0.0954  0.2921
22206W        W38015   0.684   1.069   0.212  0.0627 -0.1166  0.2473
22207W        W38016   5.036   8.371   5.641 -0.1471  0.0682 -0.0200
22208W        W38017  16.574   1.637  14.733 -0.1255  0.2596  0.0697
22209W        W38018  11.350  11.214   1.923 -0.3402 -0.0093 -0.2255
22210W        W38019   2.273   5.859   4.665 -0.1012 -0.1406  0.0473
22211W        W38020  18.066  10.483  12.195 -0.0847 -0.0070  0.2661
22212W        W38021   1.964  16.400   3.213 -0.3215 -0.0106 -0.1533
22213W        W38022   1.239  12.824  12.171 -0.0905 -0.2195  0.3109
22214W        W38023   3.961   6.170  13.511 -0.0386  0.1435 -0.2118
22215W        W38024  13.407   2.853  14.073  0.0541 -0.0001  0.0626
22216W        W38025   3.492  13.806   5.029  0.2702  0.1434 -0.5385
22217W        W38026   0.177   0.340   5.457 -0.0912  0.2537 -0.2122
22218W        W38027   9.053  10.486  13.811  0.0691 -0.2094  0.1716
22219W        W38028   4.119   5.714  16.350 -0.1423 -0.0900 -0.2098
22220W        W38029  16.825   3.589   5.451 -0.0764 -0.1001 -0.0432
22221W        W38030   4.813  10.049   2.488 -0.0577 -0.2808  0.1299
22222W        W38031  11.671  11.877  15.458 -0.0764 -0.5720 -0.1059
22223W        W38032  12.628   8.610   4.792  0.0928 -0.0648 -0.0169
22224W        W38033   1.374  16.392  14.848 -0.3113 -0.1014  0.0470
22225W        W38034  16.952  12.985  15.700  0.3598 -0.1813 -0.1040
22226W        W38035   8.883  15.475   2.980 -0.2545 -0.2200  0.0424
22227W        W38036  16.507  11.195   5.225 -0.1559  0.1543 -0.1745
22228W        W38037   2.802  10.311  11.895  0.2644 -0.0239  0.1830
22229W        W38038  11.756   5.658   4.670  0.0533  0.1156 -0.1414
22230W        W38039  16.813  16.667   0.357  0.0039 -0.2441  0.0706
22231W        W38040  17.996  16.401  11.482  0.0563  0.1143  0.0966
22232W        W38041   3.981   9.135   1.120  0.0757 -0.0243  0.0832
22233W        W38042   3.594   6.798   6.379  0.2346 -0.0297 -0.4244
22234W        W38043   9.432   8.062  14.196 -0.2879  0.0126  0.0370
22235W        W38044  11.757   2.651  12.688  0.0858  0.1595  0.1294
22236W        W38045  11.818   0.999  13.596  0.0681 -0.0281 -0.0778
22237W        W38046  11.841  10.301  12.329 -0.2110  0.1842  0.1864
22238W        W38047  11.755   7.640  13.239  0.2172 -0.1793 -0.2386
22239W        W38048  12.387  15.604  14.391  0.0418  0.0670 -0.0441
22240W        W38049   7.444   6.308   2.390 -0.0684  0.2505 -0.1622
22241W        W38050   3.617  10.538   4.930  0.0751 -0.0275 -0.3630
22242W        W38051  12.404  13.066   1.445 -0.1597  0.0415 -0.0666
22243W        W38052   2.010  17.594   0.894  0.2102 -0.4005  0.0320
22244W        W38053   2.705  16.369  13.640 -0.2020  0.0163 -0.1471
22245W        W38054  17.419   4.881   2.687 -0.4467 -0.0530 -0.2447
22246W        W38055  16.610  17.693  14.303  0.1839 -0.2726  0.0155
22247W        W38056  18.110  17.295   4.141 -0.0379 -0.0938  0.1204
22248W        W38057  10.448   1.606  12.634 -0.0874 -0.0536  0.3752
22249W        W38058  11.654   1.813  13.208  0.1143  0.2396 -0.2752
22250W        W38059  10.916  11.548   0.413 -0.1074 -0.0609 -0.2478
22251W        W38060  11.795   1.942   0.885  0.0871  0.1630 -0.2071
22252W        W38061  13.862  16.687   3.372  0.1878  0.2987  0.0318
22253W        W38062   0.647   5.650   4.192 -0.0848 -0.0491 -0.3262
22254W        W38063  12.957   2.236  11.059  0.2701 -0.0015  0.0220
22255W        W38064  14.157   7.384  14.287  0.3395 -0.2479 -0.2663
22256W        W38065   4.958   4.416   3.953  0.1547  0.0758 -0.3140
22257W        W38066  17.145  17.206   4.239  0.1211  0.1312  0.1744
22258W        W38067   3.429  11.311   3.966  0.0947 -0.0149 -0.0915
22259W        W38068   6.426  17.103  13.151 -0.0996  0.1693  0.0555
22260W        W38069  16.536   3.139   3.093 -0.1193  0.0577 -0.0144
22261W        W38070  12.385  16.440   2.890 -0.2647  0.1173 -0.0053
22262W        W38071   9.346  16.448   2.071 -0.0589  0.1677  0.0077
22263W        W38072   0.657  12.815   1.180  0.0582  0.2505  0.0264
22264W        W38073   8.829  12.196  14.694  0.0108 -0.1846 -0.1210
22265W        W38074   3.880   3.186   1.338 -0.0225 -0.1498  0.1249
22266W        W38075  11.456  10.541   3.173 -0.3472 -0.1729 -0.3286
22267W        W38076   8.567   0.181   2.446  0.0281  0.6437 -0.0865
22268W        W38077   0.083   2.760   2.366 -0.1631  0.5099  0.2450
22269W        W38078   6.056   4.778   2.048  0.0469 -0.3164 -0.0386
22270W        W38079   7.473  11.772  11.683  0.0759  0.0615 -0.0881
22271W        W38080  13.206   8.679   0.581 -0.1259 -0.3308 -0.3477
22272W        W38081   7.256   6.291  15.212 -0.0442 -0.1342  0.0794
22273W        W38082  13.446  17.928  12.564  0.1469 -0.0848  0.2012
22274W        W38083  11.098   8.256  16.237  0.3150 -0.2354  0.0497
22275W        W38084   1.444   8.624   5.784  0.1055  0.1114 -0.0486
22276W        W38085  10.370  12.316  14.043  0.1277  0.1516  0.5874
22277W        W38086   4.570   8.030   1.876  0.1507  0.1042  0.2456
22278W        W38087   2.086  17.745   4.693 -0.0080  0.3498  0.1886
22279W        W38088  10.430  13.477   6.422  0.1734  0.0087 -0.1409
22280W        W38089   3.718   4.888  15.239 -0.0584 -0.0463  0.1081
22281W        W38090   1.938  15.497  10.960  0.1033  0.0512  0.1258
22282W        W38091   6.866   0.772   1.646  0.3660  0.1413  0.0771
22283W        W38092  12.707   8.326  15.733 -0.1598 -0.2629 -0.2113
22284W        W38093   2.616  18.147  12.504 -0.1700  0.1400  0.3564
22285W        W38094  16.374   0.559   5.394 -0.0894 -0.0127  0.4174
22286W        W38095  14.028   8.283   4.598 -0.5198  0.0294 -0.2201
22287W        W38096   2.158   4.115   2.726  0.1743  0.0586  0.0851
22288W        W38097  12.303   8.980   4.895  0.2425  0.1010 -0.0653
22289W        W38098   5.118   6.415   4.631 -0.2054  0.0398  0.0847
22290W        W38099  17.082  15.588   0.968 -0.0208  0.2398 -0.0704
22291W        W38100  16.779   6.373   1.027  0.2508  0.0809  0.1046
22292W        W38101   4.158   0.479  13.086  0.2346 -0.0084 -0.2592
22293W        W38102   3.223   1.996   5.624  0.0364  0.3309  0.1905
22294W        W38103  13.512  12.483   5.053  0.2432  0.0324 -0.0335
22295W        W38104  17.641  15.860   6.018 -0.1824  0.0656 -0.0612
22296W        W38105   9.072  13.619   1.841  0.0550 -0.1208  0.1752
22297W        W38106  11.020   9.786   2.853  0.1377  0.1618  0.3773
22298W        W38107  10.223  15.822   5.235 -0.1543  0.1071  0.1823
22299W        W38108  16.466  14.302   2.456 -0.0189 -0.1098 -0.0428
22300W        W38109   2.435  18.044   1.315 -0.5253 -0.0225 -0.2273
22301W        W38110  15.581  14.712  12.740  0.1353  0.0039  0.3373
22302W        W38111  17.887  15.211   5.316 -0.1777 -0.3846  0.0069
22303W        W38112   4.332   4.172  12.510  0.2612  0.1055 -0.2503
22304W        W38113   9.409  10.397   1.855 -0.0789 -0.1828 -0.1054
22305W        W38114  14.555   7.994   4.693  0.3185  0.0401  0.0929
22306W        W38115   3.148  11.209   0.965 -0.0974  0.1041 -0.0100
22307W        W38116   1.230   9.303   2.159  0.1988  0.0822 -0.1004
22308W        W38117  15.379   5.638  13.352  0.1623 -0.1176 -0.1337
22309W        W38118  12.358  17.325  15.144  0.1135 -0.2511  0.0059
22310W        W38119   3.583  15.255  15.014 -0.1687  0.0101 -0.2494
22311W        W38120   3.620   0.971  11.006  0.2837  0.0793  0.3593
22312W        W38121   7.760  15.476   5.087 -0.1709  0.1900  0.0052
22313W        W38122  16.522  14.835  15.314  0.0928 -0.3361  0.0385
22314W        W38123   3.362   8.379   4.642 -0.1708 -0.0863  0.1427
22315W        W38124  11.380  10.163  15.432  0.0391 -0.0563  0.0661
22316W        W38125  17.450   5.401   3.089  0.1440  0.0415 -0.0945
22317W        W38126   0.711  15.872  15.442  0.0567 -0.0296  0.0370
22318W        W38127  13.546   1.009   1.976 -0.2046 -0.3487  0.1607
22319W        W38128  13.170   4.621   1.003  0.1019 -0.1088 -0.0540
22320W        W38129   6.357   6.253   5.247 -0.0247 -0.0285 -0.4821
22321W        W38130   8.925  14.203   1.215  0.0743  0.0735  0.0925
22322W        W38131   8.203  12.001  13.613 -0.0655 -0.0730  0.3053
22323W        W38132   7.121  15.353  16.037 -0.2002  0.2211  0.3759
22324W        W38133   7.388   1.102   2.322 -0.0767 -0.1548  0.0461
22325W        W38134   3.197   8.843  14.000 -0.0782 -0.0432 -0.1547
22326W        W38135   9.875   3.500   4.805 -0.0594  0.4930 -0.0574
22327W        W38136   7.648  13.840  13.767 -0.0494  0.1552  0.2459
22328W        W38137   1.821  15.957  15.066 -0.0170  0.2387 -0.2688
22329W        W38138   7.069   8.567  12.603 -0.2135  0.2028 -0.2052
22330W        W38139   5.991  15.892   3.188  0.0449 -0.0401  0.1248
22331W        W38140  14.632  11.558   3.846 -0.0437 -0.0591 -0.2729
22332W        W38141  16.852   3.019  11.908 -0.0444  0.0597  0.0424
22333W        W38142   3.508   5.706  15.613  0.2499 -0.0533  0.0653
22334W        W38143  14.399  15.799  13.096 -0.0091  0.0294 -0.1636
22335W        W38144  15.798  16.961   1.731  0.0786  0.0130 -0.3097
22336W        W38145  16.995   2.308  15.574  0.3129  0.2652  0.0173
22337W        W38146   1.981   7.200   1.309 -0.2475 -0.0913  0.0922
22338W        W38147  10.697  14.462   3.078 -0.0940 -0.3441  0.1505
22339W        W38148   7.638   8.030   2.490 -0.1549  0.0613  0.1922
22340W        W38149  16.504   7.735  13.121 -0.0781 -0.2414  0.2081
22341W        W38150  13.075  12.233   4.858 -0.0086 -0.0457  0.1230
22342W        W38151   7.059   5.172  15.563  0.1664  0.1255  0.1100
22343W        W38152   1.832   4.549   2.709  0.0294 -0.2374 -0.2751
22344W        W38153   5.160  12.108   2.412 -0.0386 -0.1543  0.0801
22345W        W38154  12.146  17.631   3.688 -0.0762  0.2627  0.4175
22346W        W38155  13.467  16.723   4.651 -0.1726  0.1133  0.2524
22347W        W38156   5.680  12.612   0.322  0.1756 -0.1324 -0.2215
22348W        W38157   9.834  14.048   0.254 -0.0054  0.1466  0.3034
22349W        W38158   7.259   8.127  12.765  0.4202  0.0473  0.1642
22350W        W38159   3.106  15.275   4.447  0.2570 -0.3934  0.2646
22351W        W38160   7.535  17.486   2.683  0.2689 -0.0447 -0.1805
22352W        W38161  14.708   2.250  15.847  0.2049 -0.3290 -0.1940
22353W        W38162  17.390   6.098  15.794  0.2157  0.0095  0.0780
22354W        W38163   8.730   3.111   2.774  0.0213 -0.0016  0.0271
22355W        W38164  12.884   1.791   1.183 -0.3207 -0.1249 -0.1187
22356W        W38165   0.859   0.853   5.593 -0.2020 -0.3805 -0.0046
22357W        W38166   8.850   9.432   1.318  0.2088 -0.1355  0.4063
22358W        W38167   7.212   7.773   2.480  0.0313 -0.1577 -0.3003
22359W        W38168  12.004  13.561   5.693  0.0154  0.0134  0.0130
22360W        W38169   1.639  10.933   1.971  0.3664 -0.0513 -0.2132
22361W        W38170   8.897   0.369   1.106 -0.2406 -0.1712  0.0338
22362W        W38171  12.025  16.632  12.405 -0.2245  0.2427  0.2916
22363W        W38172  12.007   5.203  10.822  0.2202  0.0248  0.0834
22364W        W38173  14.647  14.972   0.623  0.0249  0.0928  0.2768
22365W        W38174   8.942  17.957  16.210 -0.1752  0.2679 -0.0691
22366W        W38175   6.475   2.759  13.522 -0.0082  0.0685 -0.0513
22367W        W38176   5.218  13.060  15.566  0.0329 -0.0120  0.1390
22368W        W38177  14.162   9.712   0.270  0.0340  0.1521 -0.2928
22369W        W38178   7.996  17.102   2.662 -0.0538 -0.0249 -0.0681
22370W        W38179   3.084  15.588  16.075  0.1401  0.1433  0.0075
22371W        W38180   4.979  13.057   2.603 -0.3049  0.2200  0.0066
22372W        W38181  17.439   6.254  14.606  0.3017 -0.1722 -0.0515
22373W        W38182   9.924  13.600  14.200  0.0508  0.0130  0.2830
22374W        W38183  10.688  14.500   0.154 -0.0219  0.0503  0.3943
22375W        W38184  10.585   0.587  13.828 -0.0381  0.0016  0.5170
22376W        W38185   9.208  12.408  15.132  0.1617  0.2916  0.2644
22377W        W38186   3.030   9.005  12.858 -0.2752  0.2765  0.0986
22378W        W38187   2.473   5.528   2.154 -0.4993  0.2854  0.2629
22379W        W38188  13.932  13.519  11.948  0.0583  0.1554 -0.2927
22380W        W38189  12.023   4.272   2.281  0.2404 -0.0421  0.0363
22381W        W38190   7.467   1.158   6.177  0.0488 -0.4713  0.2394
22382W        W38191  16.753   0.170   2.112  0.1438  0.1055  0.0470
22383W        W38192   0.301   6.888   2.557 -0.0085  0.2341 -0.3102
22384W        W38193   0.285  10.551   3.091  0.0020  0.0273 -0.1138
22385W        W38194  14.970  12.790   2.021 -0.1315 -0.0545  0.0739
22386W        W38195   7.971  18.116  12.671  0.3513  0.1116 -0.1521
22387W        W38196  17.879  16.902   5.699 -0.0108  0.0486  0.0758
22388W        W38197  10.556  13.489   2.965  0.1713  0.0983  0.1756
22389W        W38198  12.434   3.889  11.199  0.3852  0.3510  0.0099
22390W        W38199   4.899   5.635   3.779  0.0526  0.1936  0.3122
22391W        W38200   4.551   2.027  10.313 -0.0317  0.0744 -0.1202
22392W        W38201   9.798   9.113   2.120 -0.1509 -0.1127 -0.1592
22393W        W38202   7.397   0.746   0.149  0.0646  0.0543 -0.1317
22394W        W38203  15.221  10.727  11.249 -0.0057 -0.1254  0.1317
22395W        W38204  11.013  17.572  12.544  0.1155  0.0773  0.0859
22396W        W38205   2.582  11.581   5.905  0.1048  0.0842  0.1182
22397W        W38206   8.800  12.845   4.231  0.2515 -0.0684  0.0508
22398W        W38207  10.204  15.131  14.349 -0.1182  0.0988 -0.0347
22399W        W38208   9.005   7.919  13.596 -0.1321  0.1146 -0.1234
22400W        W38209  16.547   2.337   0.397 -0.2220  0.1004 -0.1293
22401W        W38210  15.770   8.697   4.954  0.1318 -0.1225 -0.0546
22402W        W38211   4.936   1.892   1.519  0.0513 -0.1301 -0.0461
22403W        W38212  14.551  11.498  14.664 -0.0339 -0.3551  0.3069
22404W        W38213   6.227  12.945   0.869 -0.2185 -0.0374  0.1803
22405W        W38214  16.967  16.087  14.861 -0.1425  0.2625 -0.0318
22406W        W38215  10.449   1.344   5.145  0.1411  0.1715  0.2956
22407W        W38216   4.848  10.424   5.331  0.1030 -0.2501 -0.1255
22408W        W38217  17.444   9.586   4.831  0.0771 -0.2906  0.1993
22409W        W38218  14.759  17.774  15.845 -0.0128  0.0604 -0.1058
22410W        W38219   7.376   9.070  13.693 -0.1768  0.0356  0.0891
22411W        W38220  12.675  16.544   0.440 -0.1198 -0.2595 -0.1737
22412W        W38221  13.658  17.167   1.493 -0.1388 -0.1347 -0.2286
22413W        W38222  12.964   3.457  16.320  0.4507  0.3102 -0.2530
22414W        W38223   7.845  15.312   4.612  0.3006 -0.0304  0.0779
22415W        W38224  14.918   7.686   3.894  0.2084 -0.0608 -0.3994
22416W        W38225   7.376  14.447  11.819  0.0562 -0.2781 -0.1176
22417W        W38226  14.352   7.240  14.941  0.1086 -0.2960  0.1207
22418W        W38227  14.227  12.107   1.408  0.0181 -0.1840 -0.1526
22419W        W38228  10.112   1.078   0.716  0.1379 -0.0250  0.2237
22420W        W38229   8.772   2.664  13.665  0.1114 -0.1319  0.1586
22421W        W38230  15.638  12.357   0.571  0.1153  0.1592 -0.2008
22422W        W38231   6.733   7.355  13.663 -0.2109 -0.0240 -0.1844
22423W        W38232   3.429  13.528  15.968 -0.0394 -0.1150  0.2498
22424W        W38233  10.222   2.208   2.117  0.1170 -0.1185  0.0911
22425W        W38234   8.001  15.992  15.069 -0.1093 -0.0265 -0.1902
22426W        W38235  14.891  13.887  15.171  0.0986  0.0098  0.2652
22427W        W38236  16.251   1.877  15.131 -0.0544 -0.1341  0.0636
22428W        W38237   4.310   3.257   0.451  0.0533  0.0098 -0.1768
22429W        W38238  14.173   4.698  10.556 -0.0403  0.1612 -0.1572
22430W        W38239  16.004  13.373   0.822 -0.0673 -0.2240 -0.2506
22431W        W38240  11.002   8.727   0.148  0.0552 -0.0944  0.2058
22432W        W38241  11.059  14.774   0.418  0.1512  0.0575 -0.0927
22433W        W38242  12.579   9.334  16.265  0.1470  0.0864  0.2490
22434W        W38243   3.295   1.577   2.488  0.0479 -0.0748 -0.0459
22435W        W38244   7.342  17.459  12.970 -0.0335 -0.3481  0.0394
22436W        W38245   5.877  13.501  12.049 -0.1424  0.1365  0.0042
22437W        W38246   5.049   8.102   1.482  0.0133  0.0310  0.1069
22438W        W38247   4.591   1.058  13.027 -0.0092  0.0251  0.5059
22439W        W38248   2.882   7.025   1.114  0.0675 -0.1787 -0.2648
22440W        W38249   0.028  10.527   1.456 -0.0140 -0.4530 -0.4047
22441W        W38250   9.782   5.886  12.469  0.1208  0.2223  0.0461
22442W        W38251  12.406  18.128   4.532 -0.1002 -0.0065  0.1493
22443W        W38252   8.883   5.770  15.303 -0.0181 -0.3025 -0.2019
22444W        W38253  12.207   5.820  12.949 -0.2925 -0.0310  0.2030
22445W        W38254   9.818  18.102   1.020 -0.0031  0.0003  0.1235
22446W        W38255  12.188   6.975  15.091  0.2443  0.3712 -0.1791
22447W        W38256  12.406  14.157  15.433  0.2671  0.1539 -0.2050
22448W        W38257   0.611  11.273   4.470 -0.1657  0.3707  0.0642
22449W        W38258   4.354   7.695  15.631 -0.1573 -0.2375  0.3336
22450W        W38259  11.490  18.071   2.086 -0.1607 -0.1198 -0.1248
22451W        W38260   2.627   7.192   4.761  0.2059 -0.2174  0.1115
22452W        W38261  13.102   0.859   4.664 -0.1120 -0.0647 -0.1688
22453W        W38262  11.620   9.811   1.540 -0.3303 -0.0990  0.3027
22454W        W38263   5.789  15.965   4.819 -0.1850 -0.0519 -0.0207
22455W        W38264   2.960   0.467   0.007  0.1040  0.1714 -0.1969
22456W        W38265   4.201   0.744   0.441 -0.3358 -0.0518  0.0985
22457W        W38266  11.464   9.547  16.089 -0.0468 -0.0246 -0.0386
22458W        W38267   0.711   5.045  10.823  0.1298  0.0625 -0.1811
22459W        W38268  12.157  10.127  13.284  0.1611  0.0055  0.0368
22460W        W38269  11.392  13.468   2.684  0.1001 -0.1637 -0.0285
22461W        W38270  16.365  15.367  14.578 -0.0150 -0.2449 -0.2766
22462W        W38271  17.139   2.363   1.141  0.1498  0.1232  0.2080
22463W        W38272   6.833   8.475  14.900  0.0567 -0.0620  0.0736
22464W        W38273   6.866   8.813   0.824  0.0191 -0.1713  0.0556
22465W        W38274   6.738  11.048   4.472  0.2805 -0.4236 -0.0258
22466W        W38275  13.948   4.283   4.280  0.2579 -0.0604 -0.0854
22467W        W38276  12.020   2.867   0.644  0.1855 -0.1829  0.5123
22468W        W38277  14.753   7.638  12.156 -0.1285 -0.0806  0.0659
22469W        W38278   2.685   7.246   0.678 -0.0564 -0.0138  0.1267
22470W        W38279  13.673  18.153  15.578 -0.1637 -0.1781  0.0294
22471W        W38280   9.370   5.185   3.265  0.1486  0.2233 -0.1656
22472W        W38281  17.038   0.993   0.441  0.1557 -0.0665 -0.2568
22473W        W38282   3.925  14.040  11.301 -0.1916  0.0649 -0.0041
22474W        W38283  15.637   6.452   2.001 -0.1378 -0.0967 -0.0210
22475W        W38284  12.678   7.181   3.802 -0.0836  0.0310  0.2288
22476W        W38285   6.994  15.527  10.910  0.0244 -0.2781  0.3759
22477W        W38286   5.168   3.872  14.267 -0.1083  0.0497 -0.4013
22478W        W38287   6.133   8.312  13.418  0.1573  0.1155  0.0066
22479W        W38288   8.841  17.687   2.332  0.0905 -0.1897  0.2028
22480W        W38289   6.835   7.178   4.539 -0.0587 -0.1763  0.1698
22481W        W38290   4.925   3.232   5.172 -0.3738 -0.4832 -0.3677
22482W        W38291  13.574  14.633  15.006  0.1060  0.1057  0.3886
22483W        W38292   0.248  10.425  13.607  0.1032  0.1384  0.1199
22484W        W38293   4.480   5.412   4.085  0.2050 -0.0481  0.1553
22485W        W38294  11.648   0.730   3.615  0.0259 -0.1538 -0.2323
22486W        W38295  15.232   6.661  15.156  0.1708 -0.1935  0.0349
22487W        W38296   2.306   7.655   2.423  0.1053  0.1792 -0.3540
22488W        W38297  16.873  15.718   2.689 -0.1837  0.1194  0.2542
22489W        W38298  16.441  16.211  16.290 -0.2957 -0.0749  0.3947
22490W        W38299  11.465   7.017  15.459  0.0914  0.2718  0.0600
22491W        W38300  15.934   9.470   1.910  0.1018  0.0885  0.2004
22492W        W38301  18.128  13.212   4.974 -0.0918  0.1968 -0.1588
22493W        W38302  16.486   3.853   0.419  0.0290  0.0956  0.2706
22494W        W38303  14.704  17.645   2.069  0.3690  0.1129  0.1723
22495W        W38304   8.191  15.283   4.066 -0.2439 -0.4987 -0.2184
22496W        W38305   2.038  12.446  11.151 -0.1572  0.1711 -0.0760
22497W        W38306  10.194   6.902  10.561  0.0831 -0.0421  0.2264
22498W        W38307  11.156  17.694   3.304 -0.3109  0.2536 -0.2029
22499W        W38308  10.048   9.622  11.425 -0.1587 -0.2961 -0.2538
22500W        W38309   6.366  14.110  14.823 -0.2961  0.4537 -0.3620
22501W        W38310  15.360   9.383  11.346 -0.1314  0.2369 -0.3255
22502W        W38311  10.859  17.921   5.322 -0.0961 -0.1805 -0.1296
22503W        W38312   4.351   6.286  16.265  0.1507  0.0863 -0.2729
22504W        W38313   4.159  14.395  12.975 -0.0848 -0.0025 -0.1543
22505W        W38314  17.523   8.073  12.147  0.1558 -0.3212 -0.0339
22506W        W38315   8.007   7.709  13.330  0.0950 -0.3884  0.1038
22507W        W38316   2.846   4.341  15.590 -0.1205  0.1295 -0.0936
22508W        W38317  18.034   8.031  12.074  0.0161 -0.0079 -0.0576
22509W        W38318   2.597  15.400   5.207  0.1382  0.0660  0.0729
22510W        W38319  10.719  15.663  14.948 -0.2359  0.0045 -0.2049
22511W        W38320  15.373  15.094   2.085  0.4695  0.0486  0.0149
22512W        W38321  15.657  11.610   1.291  0.0436 -0.0173 -0.2459
22513W        W38322   9.662  13.430   4.185 -0.0238 -0.3231 -0.1832
22514W        W38323  17.416   3.636   1.105 -0.0472  0.5275  0.2636
22515W        W38324   7.284   0.994   0.915  0.1842  0.3303  0.2790
22516W        W38325   9.365   5.725   0.008  0.0342  0.0156  0.0040
22517W        W38326   8.590   1.512  14.090 -0.0056  0.0670  0.0101
22518W        W38327   0.251   2.392   4.267 -0.0057  0.0458  0.1030
22519W        W38328   8.441   6.341   2.183 -0.1704  0.0574 -0.0859
22520W        W38329   3.858  10.086  12.501  0.2105  0.0088  0.0079
22521W        W38330   4.114  15.237  15.215 -0.4110 -0.0682  0.2756
22522W        W38331   7.554   3.770  16.314  0.0874 -0.0051 -0.0455
22523W        W38332   0.253   5.742  15.134  0.2940 -0.3079 -0.1301
22524W        W38333  13.749   8.473   1.995  0.1516 -0.0055  0.1263
22525W        W38334   5.104  13.086   0.867  0.0817 -0.1115  0.0725
22526W        W38335   7.420   7.875  13.949  0.2000  0.1122  0.1525
22527W        W38336  11.430   2.717   4.697  0.2283 -0.1459  0.2767
22528W        W38337   2.756   0.353   3.850 -0.0176 -0.1588  0.2380
22529W        W38338  17.508  10.665  15.802 -0.0688 -0.0340 -0.0776
22530W        W38339  14.653  13.794  13.594  0.2234  0.1076 -0.2436
22531W        W38340   7.062  10.829   2.757 -0.2660  0.0131  0.3364
22532W        W38341   4.814  14.465  12.435  0.2358  0.2002 -0.0737
22533W        W38342   2.021  15.468   4.099  0.2209  0.2083  0.0968
22534W        W38343  15.018   8.470  11.527  0.1234 -0.1169  0.2603
22535W        W38344   7.864  11.409  13.158 -0.0056 -0.0483  0.2069
22536W        W38345   2.309  15.098  15.137  0.0140 -0.1815 -0.1582
22537W        W38346  14.022  13.779   0.963 -0.1096  0.5346 -0.1064
22538W        W38347   7.097   1.029   5.259  0.3855 -0.0877 -0.0795
22539W        W38348  16.181  12.658  11.512  0.1082  0.1189  0.2835
22540W        W38349  17.983   2.234   4.973 -0.2107 -0.2344 -0.0569
22541W        W38350  16.212  10.944  13.949  0.1164 -0.0987  0.0236
22542W        W38351   6.701   3.799   1.549  0.0117  0.0319  0.2909
22543W        W38352   7.097   4.298   5.098  0.0340 -0.1228  0.0756
22544W        W38353   9.183   8.198  16.111 -0.1076  0.1874 -0.0860
22545W        W38354   3.590   8.285  15.085  0.0011 -0.1368 -0.0404
22546W        W38355   1.743   3.921  15.230 -0.1697  0.1902  0.0072
22547W        W38356   1.125  17.348   5.681 -0.1067  0.0830 -0.1692
22548W        W38357  11.524   4.730   3.629  0.2687  0.1228 -0.2759
22549W        W38358  12.451  14.766   4.303 -0.3182 -0.0289 -0.1120
22550W        W38359   4.728  12.001   5.654  0.2228  0.3899 -0.3023
22551W        W38360   2.371  17.447   3.610 -0.0492  0.1733 -0.2746
22552W        W38361  17.979   3.338  14.199  0.0037  0.0745 -0.3350
22553W        W38362   1.194   1.644  15.554  0.0583 -0.1229 -0.0280
22554W        W38363  10.923   9.283  12.215  0.0090  0.2243 -0.0249
22555W        W38364   2.589   8.176   1.214  0.1791 -0.2159  0.0085
22556W        W38365   6.187   3.505   3.510 -0.0494  0.1020  0.2232
22557W        W38366  10.805   5.837  10.991  0.2447  0.0028 -0.2318
22558W        W38367  12.694  14.784   3.889 -0.2224 -0.0794  0.2502
22559W        W38368   4.319  11.372   4.670  0.1390  0.3447  0.4258
22560W        W38369   2.001   7.149  12.993  0.0008  0.1371  0.0224
22561W        W38370  10.162   1.804  12.187 -0.0001  0.0066 -0.0659
22562W        W38371  10.654   5.554  14.710  0.0906  0.0593 -0.1460
22563W        W38372  11.926  16.401   1.857  0.2310  0.2380 -0.3549
22564W        W38373  14.533   5.311   2.668  0.0768  0.0959 -0.1579
22565W        W38374   4.654  14.275  11.997 -0.0426  0.0221  0.0673
22566W        W38375   4.156   4.352  16.102  0.0742 -0.0335  0.0518
22567W        W38376   7.297   9.083   1.017 -0.0604 -0.0235 -0.2531
22568W        W38377  14.129   7.738  11.509 -0.0125  0.1214  0.2090
22569W        W38378   3.216  17.308  13.711  0.1284  0.1668  0.3756
22570W        W38379   9.308  15.081   1.581 -0.1045 -0.0804 -0.0276
22571W        W38380   8.581  14.788   2.130 -0.0060 -0.0680 -0.2573
22572W        W38381  16.852   8.931  12.991 -0.0635 -0.1920  0.0646
22573W        W38382   0.236  16.493   4.883 -0.2869  0.2091 -0.2925
22574W        W38383   0.040   6.281  13.404  0.2988  0.1512 -0.0295
22575W        W38384   7.266  13.679  13.427  0.0042  0.1795  0.3151
22576W        W38385  11.624  15.443   1.783 -0.0821 -0.1969 -0.0997
22577W        W38386  10.033  14.068  16.173 -0.2296  0.1686 -0.1075
22578W        W38387  16.049   5.648  10.777 -0.1832 -0.0411 -0.1920
22579W        W38388   0.350   3.363   0.499 -0.3176 -0.0107 -0.1482
22580W        W38389   5.087   4.534   2.448  0.0400 -0.0589 -0.0709
22581W        W38390   9.912   5.434  12.203  0.1930 -0.0553 -0.4553
22582W        W38391   4.935  11.389   2.944 -0.0121 -0.1435 -0.4484
22583W        W38392   8.253  12.061   2.179  0.0048  0.3000  0.0133
22584W        W38393   7.998  11.004   0.615  0.1098  0.0485 -0.3519
22585W        W38394   5.270   5.767   0.197 -0.4661 -0.0200  0.1335
22586W        W38395   1.831   6.369  12.292 -0.3220 -0.1684  0.1935
22587W        W38396   6.549   4.512  14.621  0.0237  0.4209  0.0629
22588W        W38397  11.054  17.632  14.592  0.0061  0.1868 -0.4152
22589W        W38398  12.298   8.821  11.806 -0.1372 -0.1752  0.2179
22590W        W38399  12.525  16.032   2.633  0.1976  0.0096 -0.1811
22591W        W38400   6.061   2.404   9.768 -0.0803 -0.0465  0.1214
22592W        W38401   2.988  16.162  11.288 -0.0436 -0.0866  0.0668
22593W        W38402   4.502  11.895  15.827  0.0006  0.1282 -0.1264
22594W        W38403   6.561  11.286  14.340  0.1351  0.0878  0.0349
22595W        W38404   2.484  11.997  13.564  0.3249  0.0640 -0.2028
22596W        W38405   5.483  17.137   2.492  0.0821  0.1236  0.3119
22597W        W38406  16.112   0.030   1.171  0.0610 -0.0278 -0.1840
22598W        W38407  10.722  13.721   5.527 -0.2702  0.1551  0.2803
22599W        W38408  15.563   6.104   1.591  0.2302  0.1742  0.0108
22600W        W38409  10.398   9.779  14.011 -0.1788  0.0320 -0.1547
22601W        W38410  12.355  15.751  12.895  0.1139 -0.5383 -0.2120
22602W        W38411  12.110  11.951   3.268 -0.0527  0.0603  0.0781
22603W        W38412  15.664   5.425   5.447  0.1777  0.3408 -0.1035
22604W        W38413   9.963   6.289   3.699  0.0513  0.0512 -0.1875
22605W        W38414   2.888   9.229   5.351 -0.0632 -0.0846  0.0285
22606W        W38415  12.569   2.759   5.451 -0.0457 -0.1955 -0.2377
22607W        W38416  14.992   4.019   1.543  0.0615  0.2425 -0.0581
22608W        W38417   5.369   7.265  13.185 -0.1292  0.2967  0.2389
22609W        W38418   6.626  11.404   1.474 -0.0066  0.0049  0.0983
22610W        W38419   9.709  15.656  12.261 -0.0267 -0.2619 -0.2347
22611W        W38420  16.347   8.900   0.531 -0.0989 -0.1302  0.2906
22612W        W38421   1.045   3.592  13.063 -0.0044  0.0046 -0.0644
22613W        W38422   4.112   6.147  15.086 -0.0458 -0.3106 -0.2490
22614W        W38423  15.302   4.276  14.282 -0.0024  0.0116  0.0271
22615W        W38424  17.793   1.785  14.441  0.0309  0.2156  0.2973
22616W        W38425   9.099   7.692   5.334 -0.0182  0.0567  0.5271
22617W        W38426   3.412  10.098   3.607  0.1238 -0.6912 -0.0925
22618W        W38427   2.486   8.099   5.997 -0.1995  0.0350 -0.0621
22619W        W38428   4.897  12.861  13.994  0.2620 -0.2198 -0.2065
22620W        W38429   4.184   9.606   0.371 -0.0416 -0.3382  0.1340
22621W        W38430  12.217   4.103  13.734  0.0062  0.1100  0.2523
22622W        W38431   0.496   5.395   1.998  0.1639 -0.0868 -0.1283
22623W        W38432   4.844   3.695  15.766  0.4807  0.2101  0.0476
22624W        W38433   2.662   9.567  13.794 -0.1882 -0.0349 -0.0234
22625W        W38434   0.466   1.945  14.917 -0.2608 -0.0389  0.1670
22626W        W38435   9.674   6.633   4.277  0.0488  0.3388  0.1800
22627W        W38436   7.779   7.894   4.971  0.1377 -0.4864  0.2344
22628W        W38437  15.353   2.772  12.455  0.0677  0.2910  0.0049
22629W        W38438  13.391  14.296   2.865 -0.0272  0.0343 -0.1649
22630W        W38439   3.674   0.523  10.734 -0.3659 -0.3671  0.1882
22631W        W38440   8.292   9.574  16.211  0.1045  0.0766 -0.1196
22632W        W38441   7.145   6.914  15.142 -0.3059 -0.3360 -0.0584
22633W        W38442   2.156   9.035   4.117  0.0301  0.1153 -0.0874
22634W        W38443   5.085   8.781   1.149  0.3515  0.0228 -0.0320
22635W        W38444  18.104  11.257   4.456 -0.1291  0.1786  0.3559
22636W        W38445   9.422   2.302  14.839  0.1540 -0.3141  0.2074
22637W        W38446   1.197  14.346   2.994  0.0345 -0.2557 -0.0350
22638W        W38447   7.776  12.900   0.926 -0.2906  0.3099  0.0207
22639W        W38448   7.908   3.863   3.297 -0.2603  0.1716  0.0032
22640W        W38449   5.773   8.002  11.357  0.3469  0.0402  0.0136
22641W        W38450   2.331   0.565  16.226  0.2644  0.1040 -0.1485
22642W        W38451   0.228   7.684   0.803  0.3018  0.0910 -0.3465
22643W        W38452  14.750   6.553  15.346  0.0649  0.1027  0.1762
22644W        W38453   2.699  18.049  15.804 -0.0963 -0.0828  0.2734
22645W        W38454   6.416   5.803   1.977 -0.1779  0.1295 -0.0784
22646W        W38455   1.385   7.610   2.613  0.1517 -0.1150  0.3984
22647W        W38456  16.173   9.406   2.881 -0.1707 -0.1918  0.3187
22648W        W38457   6.901   2.994   2.600 -0.1603 -0.0069 -0.1119
22649W        W38458   4.405   4.428  13.050 -0.2515  0.0747 -0.0909
22650W        W38459   2.406  16.136   4.678  0.1871  0.2817  0.1003
22651W        W38460  10.054   3.679  11.443 -0.0013 -0.1057  0.0086
22652W        W38461   0.370  14.108  12.426  0.0969  0.0406  0.0543
22653W        W38462   9.832  14.090  12.993 -0.0941  0.1186 -0.0082
22654W        W38463   1.737   4.514   1.385  0.1302 -0.1188 -0.2875
22655W        W38464   1.951   5.524   1.165  0.2292  0.0789  0.2764
22656W        W38465   2.262  14.395   3.058 -0.1668 -0.2486  0.0522
22657W        W38466  15.770  12.230   0.049  0.1196 -0.0739  0.0188
22658W        W38467   8.471   2.704   0.181 -0.1099 -0.0121  0.2708
22659W        W38468   3.025  13.241  12.281  0.2063  0.1150 -0.1210
22660W        W38469  13.683   9.722  10.781  0.0044 -0.1216  0.0622
22661W        W38470   5.237  11.729  13.283 -0.0920 -0.2582 -0.0422
22662W        W38471  10.140   0.856   4.742 -0.0600  0.0684  0.0367
22663W        W38472   8.095  16.483  15.039  0.1093  0.0095  0.0671
22664W        W38473  16.241   1.950  11.444 -0.0752  0.1966 -0.3159
22665W        W38474   1.476   5.250  15.135 -0.0525 -0.0385 -0.0568
22666W        W38475   2.602  11.767  15.948  0.0033 -0.2172  0.2674
22667W        W38476  12.333  11.091   2.595  0.1560  0.1896 -0.0571
22668W        W38477  13.669  17.476   2.412 -0.0367  0.1338  0.0587
22669W        W38478  17.646   2.227  15.055 -0.0284  0.1187  0.2722
22670W        W38479   8.919  12.302  15.742  0.3370  0.1661  0.1142
22671W        W38480  17.807   5.377   5.014  0.1042 -0.1321  0.0885
22672W        W38481   5.263   7.899   4.963  0.1895  0.3116  0.1668
22673W        W38482   7.131   7.405   4.107 -0.0268  0.0214  0.2652
22674W        W38483   2.829   0.224  15.422  0.1674  0.0193  0.0375
22675W        W38484   5.525   2.433   3.993 -0.1865 -0.0699 -0.0136
22676W        W38485   5.942  10.876   3.963 -0.1097  0.3224  0.2715
22677W        W38486  14.586   1.089   2.884  0.0967  0.1786 -0.1074
22678W        W38487  17.273  11.081  15.761 -0.0373  0.4198  0.3844
22679W        W38488   8.722   2.343  15.674  0.0430  0.0731 -0.0128
22680W        W38489   9.825   5.102  11.702  0.0457 -0.1040  0.0110
22681W        W38490   8.858   8.803  14.697  0.0531 -0.0885 -0.2705
22682W        W38491   7.422   9.751  13.870  0.0206 -0.1913 -0.2238
22683W        W38492  12.249   1.138  12.879 -0.0519  0.0739 -0.0453
22684W        W38493  17.780   0.025  12.949 -0.2268  0.0592 -0.0165
22685W        W38494  11.741   8.142  11.531  0.2780 -0.0945 -0.1878
22686W        W38495  13.104   6.153   2.925 -0.0015  0.0210  0.0415
22687W        W38496   5.649  11.487   2.247  0.1495 -0.1663  0.1497
22688W        W38497   4.694   6.696  12.787 -0.0021  0.1029 -0.2436
22689W        W38498  10.826   2.889  11.313  0.0480  0.0363 -0.0443
22690W        W38499  17.421  15.751  11.781  0.0340  0.0699 -0.4024
22691W        W38500   4.922  16.643   2.601  0.0303  0.1567 -0.3818
22692W        W38501  15.198  13.333   5.720  0.0026  0.0220 -0.0215
22693W        W38502   7.613   7.072  15.112  0.2134 -0.0352  0.1920
22694W        W38503  16.165  15.698   1.177 -0.0113 -0.3705 -0.1236
22695W        W38504   6.915   5.238   4.647 -0.3759 -0.1418 -0.0801
22696W        W38505  11.035   3.719   3.019 -0.3910  0.1328  0.2294
22697W        W38506  16.341  13.912  14.762 -0.0497  0.0740 -0.0447
22698W        W38507   6.291   3.297  13.522  0.0080 -0.1906  0.2321
22699W        W38508   7.652   2.172  10.504 -0.3407 -0.1724 -0.3062
22700W        W38509  15.297   1.475   4.201 -0.3029  0.0839 -0.1839
22701W        W38510  13.337  12.736   3.060  0.1876  0.1725 -0.1360
22702W        W38511   5.365  11.383  15.497  0.2770 -0.0297 -0.0267
22703W        W38512   2.790   8.900   0.117  0.1752  0.0556 -0.0219
22704W        W38513  17.033  14.993   3.723  0.1058  0.2992 -0.1868
22705W        W38514  10.351  12.522  15.797  0.1243  0.2924 -0.0072
22706W        W38515  13.382  15.851   0.058 -0.1298  0.1833  0.1213
22707W        W38516   9.890   6.476   2.605 -0.0995 -0.3979 -0.3459
22708W        W38517   7.906   4.172   4.223  0.0133 -0.4102  0.1414
22709W        W38518   9.287  17.609   3.344 -0.1052  0.0145 -0.0958
22710W        W38519   0.016  11.338  15.854 -0.0211  0.0304  0.1772
22711W        W38520  17.522   1.863   3.623 -0.1437 -0.0808 -0.0194
22712W        W38521  12.928  12.505   1.183 -0.0187 -0.0819 -0.0106
22713W        W38522   9.667   6.141  16.284 -0.1079 -0.2298 -0.0769
22714W        W38523   4.046   5.265   1.933  0.1464  0.1273  0.1401
22715W        W38524   8.654   0.827  16.267 -0.0768 -0.1442 -0.0446
22716W        W38525  14.673   0.137   1.187 -0.1941  0.0968  0.3984
22717W        W38526  13.465   1.424  13.810 -0.0720  0.1626  0.2631
22718W        W38527   6.003   3.021  12.167  0.1091 -0.0092  0.0764
22719W        W38528   0.588   1.492   0.974 -0.0190  0.0316  0.5010
22720W        W38529  10.574   8.383  16.299 -0.0487  0.1516 -0.1575
22721W        W38530  15.452   9.836  11.382 -0.1687  0.0112 -0.0185
22722W        W38531  12.042  12.622   3.907 -0.0996 -0.0821  0.1402
22723W        W38532   7.516  15.023   1.474 -0.0758 -0.4012 -0.2072
22724W        W38533  12.311  11.859   2.331 -0.0292 -0.1198 -0.3258
22725W        W38534  14.867  11.590  15.846 -0.3839 -0.3046 -0.4718
22726W        W38535  15.224   4.169   3.740  0.2200  0.0752 -0.2107
22727W        W38536  13.972  17.188   3.463 -0.0899 -0.1726 -0.0503
22728W        W38537   4.994  10.843   0.603 -0.3661  0.1799  0.1261
22729W        W38538  18.043  14.720   4.794 -0.0515 -0.3237  0.0779
22730W        W38539  13.846   9.501  13.835  0.1679  0.0178 -0.0390
22731W        W38540  14.298  14.205  16.074 -0.0272  0.0886  0.0414
22732W        W38541   7.569  15.268  14.683  0.1030  0.2969 -0.0942
22733W        W38542  10.012   6.380   1.654  0.0665  0.3058 -0.2803
22734W        W38543   7.826  11.851  14.995 -0.1960 -0.2136 -0.0606
22735W        W38544   0.351  13.726   3.811  0.0815 -0.1003  0.0781
22736W        W38545  11.547  17.950  13.286 -0.2457 -0.2329 -0.2536
22737W        W38546  12.206   9.133   4.030 -0.0482  0.0475 -0.2614
22738W        W38547  13.383   7.452  15.032  0.0176 -0.4788 -0.0696
22739W        W38548   4.491  10.906  15.702 -0.3069  0.0802 -0.1728
22740W        W38549   3.517   1.336  12.508 -0.2245 -0.4135  0.2268
22741W        W38550   2.278  10.759   1.357  0.0311  0.3956  0.3347
22742W        W38551   5.958   9.392  12.239 -0.2981 -0.1636 -0.0046
22743W        W38552   8.879   1.739   5.280 -0.2394 -0.0014 -0.1419
22744W        W38553  13.228  17.595   4.554 -0.1016  0.2010 -0.0130
22745W        W38554  12.120   3.053   1.619  0.0513  0.3145 -0.0865
22746W        W38555   7.373  14.834   0.376  0.0081  0.2372 -0.1031
22747W        W38556   0.228  15.591  15.190 -0.2196 -0.3033  0.0157
22748W        W38557  14.820   3.668   3.102 -0.1666 -0.1623 -0.1004
22749W        W38558  12.506   7.037   2.840 -0.1099  0.2327  0.0115
22750W        W38559  11.600  15.757   5.335 -0.1567  0.3225 -0.1936
22751W        W38560  16.429   4.472  15.774  0.1457 -0.1542  0.0556
22752W        W38561   9.243   4.360   9.915 -0.0721 -0.1564  0.0979
22753W        W38562   0.565  14.377  15.492 -0.1517 -0.0332 -0.0736
22754W        W38563  12.891  17.741  11.698  0.1052 -0.0187 -0.1530
22755W        W38564   3.212  17.511  12.991  0.0924  0.1794  0.0055
22756W        W38565  10.830   8.823   5.160  0.0479 -0.0263  0.0227
22757W        W38566   3.563  15.279  11.818 -0.0496  0.1197  0.2696
22758W        W38567  15.285   5.144  16.055  0.2907  0.2091  0.1127
22759W        W38568  17.351   0.097  16.132  0.3932  0.1434 -0.0156
22760W        W38569   5.593   5.661  15.297  0.0289  0.0598  0.0944
22761W        W38570  13.610  11.778  14.855 -0.0406  0.3064 -0.0174
22762W        W38571  10.529   5.138   1.489 -0.0768  0.1821 -0.0854
22763W        W38572  14.129  12.982   1.822 -0.1249  0.1150  0.1927
22764W        W38573   4.487   2.825  11.535 -0.0036  0.2058 -0.1051
22765W        W38574   5.575   6.783   4.953  0.0612  0.0340  0.0862
22766W        W38575   7.202  15.596   5.614  0.0325  0.0477 -0.0398
22767W        W38576  13.848  13.623   0.378  0.1037  0.2069 -0.0025
22768W        W38577  17.568   4.551   2.290  0.0180 -0.3057  0.0793
22769W        W38578   0.164   2.263   2.768 -0.2439 -0.1240  0.2208
22770W        W38579   5.005   4.395  11.482  0.1479 -0.0713  0.3313
22771W        W38580   4.329   8.263   0.570 -0.2875 -0.0116 -0.1494
22772W        W38581   2.879  13.895   2.293 -0.1010  0.1020  0.0743
22773W        W38582  15.804   6.920  15.498 -0.1542  0.1658 -0.1101
22774W        W38583  14.336  16.965   5.581 -0.1487 -0.2549  0.0082
22775W        W38584   6.361  14.041   4.776 -0.0881  0.0245 -0.2446
22776W        W38585  15.211  12.960   1.114 -0.0157  0.1422 -0.1816
22777W        W38586  11.489   2.913   2.087 -0.2286 -0.1213 -0.3339
22778W        W38587   8.627   8.150  13.868  0.1365 -0.0049  0.4624
22779W        W38588  12.992   1.728  13.594  0.0774  0.0761 -0.1813
22780W        W38589   6.193  14.971   4.882 -0.0941  0.4826  0.1622
22781W        W38590   1.454  12.464   3.375  0.1701  0.1244 -0.0686
22782W        W38591   0.414   0.992  15.613 -0.0477 -0.1717  0.3524
22783W        W38592  10.348   8.079  13.119  0.0446  0.0577  0.1000
22784W        W38593   6.498  17.833  14.604  0.1071  0.0830 -0.0728
22785W        W38594  14.221   4.155   4.745  0.0487 -0.0318  0.0106
22786W        W38595  17.144  11.490   1.651  0.0813 -0.0454  0.2906
22787W        W38596   2.473  17.973  13.392 -0.2304 -0.0465  0.1235
22788W        W38597  17.523   9.488   1.383 -0.0265 -0.0166  0.0917
22789W        W38598  16.098   1.821   4.730  0.2675  0.0117  0.1259
22790W        W38599   5.570   3.228   0.076 -0.1167 -0.1320  0.1162
22791W        W38600  15.440   2.924  14.182  0.1798  0.2282 -0.2166
22792W        W38601   9.877  10.751   2.926 -0.1687 -0.0637  0.0280
22793W        W38602   8.978  11.277   2.354 -0.4127 -0.1369 -0.1841
22794W        W38603   5.407  16.398  13.325  0.0795  0.0646  0.1579
22795W        W38604   1.390  10.422  13.750  0.4089  0.0183 -0.1110
22796W        W38605   2.263   7.671  12.226  0.1081  0.0358 -0.3015
22797W        W38606   5.959   9.440  13.826  0.2508  0.1781  0.1542
22798W        W38607   6.633  16.900   1.525 -0.2371  0.2079 -0.1829
22799W        W38608   1.889  10.237  10.900 -0.1624 -0.3231 -0.1416
22800W        W38609   8.904  11.517  16.027  0.0734 -0.1305  0.0369
22801W        W38610  14.414   8.109  11.362 -0.2021 -0.1975 -0.1458
22802W        W38611  14.988  10.772   0.595 -0.0094 -0.1488 -0.0869
22803W        W38612  16.808   2.534   5.623 -0.1682 -0.2345  0.2213
22804W        W38613  15.654   5.755  12.188 -0.0082 -0.2517 -0.5041
22805W        W38614  12.107   9.203  15.413 -0.1387 -0.1792 -0.1425
22806W        W38615   3.644  17.154  15.675 -0.1966 -0.2082 -0.1901
22807W        W38616  11.431   5.866   1.411  0.0025  0.1001 -0.0407
22808W        W38617   4.867   5.446  12.912  0.0751 -0.0410 -0.0986
22809W        W38618  16.442  11.317  11.700 -0.1100  0.4593  0.1880
22810W        W38619  13.924   9.812   3.592  0.5578  0.0196  0.0693
22811W        W38620   0.103  12.443  12.988 -0.3055 -0.0321  0.1770
22812W        W38621   7.711   6.781   1.635  0.0665  0.1352 -0.2916
22813W        W38622   4.720  15.036   1.692 -0.0222 -0.1716 -0.0595
22814W        W38623  12.144  10.115  14.983 -0.2781 -0.0975 -0.2540
22815W        W38624   3.085   4.680  13.965  0.1769 -0.3472  0.1191
22816W        W38625   6.075  14.998   1.264 -0.0263  0.2655 -0.1740
22817W        W38626   5.166   8.613  12.266 -0.1458 -0.1219 -0.0799
22818W        W38627   0.128  12.516   4.324 -0.0034  0.2830 -0.2511
22819W        W38628  17.487  14.742  15.732  0.3395  0.0729  0.0601
22820W        W38629   3.993   1.223  11.704 -0.0167  0.2182 -0.1386
22821W        W38630   7.079   0.072  15.396  0.1732  0.1898 -0.2070
22822W        W38631   9.278   3.134   1.350 -0.0611 -0.2778 -0.0497
22823W        W38632   1.739  16.899  11.536  0.2792  0.0369  0.2002
22824W        W38633  10.609   1.619   3.841  0.1939 -0.1900 -0.0497
22825W        W38634   6.246  13.534  11.598  0.2427 -0.0047  0.3322
22826W        W38635  15.874  12.870   5.192  0.2481  0.4127  0.1891
22827W        W38636  14.663   9.775  15.350 -0.0037  0.2053 -0.0678
22828W        W38637   2.218   7.543  15.427 -0.0612  0.0230  0.0228
22829W        W38638  12.771  13.381   2.204  0.0280 -0.0836 -0.0887
22830W        W38639  17.587  10.209  13.684  0.1646  0.2311  0.1131
22831W        W38640   1.690   0.544  12.054 -0.0167  0.3955  0.0560
22832W        W38641  14.600   0.808  14.604  0.1918 -0.0824  0.0485
22833W        W38642  18.207  14.279   5.582  0.1621  0.2380  0.0727
22834W        W38643  16.896   3.500   1.423  0.1002 -0.1955  0.2360
22835W        W38644   4.157  14.441  12.120  0.1393  0.1818 -0.1042
22836W        W38645   6.661  13.426   2.831  0.0330 -0.2698  0.1246
22837W        W38646   6.318  11.121  15.608  0.1327  0.3361 -0.1639
22838W        W38647  18.095   8.200   4.179 -0.3060 -0.1509  0.3373
22839W        W38648  10.202  10.381  15.888 -0.1525  0.0310 -0.0512
22840W        W38649   1.128   3.549   0.248 -0.0610 -0.4119 -0.1334
22841W        W38650   9.653  15.469   2.454 -0.2751 -0.0524 -0.2280
22842W        W38651   5.085  12.735   4.780 -0.0632  0.1223 -0.0357
22843W        W38652  15.211  11.356  12.885  0.3930 -0.1449 -0.2573
22844W        W38653   8.903  13.932  11.583  0.1197 -0.1078  0.0999
22845W        W38654   0.152  14.399   5.011  0.0083 -0.1801  0.0559
22846W        W38655  12.563   7.468   2.463 -0.2701  0.2334  0.1230
22847W        W38656   3.545   7.217   5.350  0.1480  0.1872 -0.2866
22848W        W38657   8.467   4.178   4.334  0.1432  0.1544 -0.0668
22849W        W38658  16.384  14.543   5.098 -0.3467  0.2198  0.0198
22850W        W38659  13.372   4.234   3.555 -0.0570 -0.2366 -0.2200
22851W        W38660   9.913   4.623   2.740 -0.0424  0.0761 -0.0821
22852W        W38661  13.073   6.506  11.598  0.1808 -0.1052  0.0878
22853W        W38662   9.600  13.052  12.143 -0.0010  0.0936 -0.3280
22854W        W38663   6.872   9.115   2.061  0.0777  0.1494  0.0575
22855W        W38664   6.853   0.486   4.631  0.1172  0.0042  0.2176
22856W        W38665   7.193   9.259  15.212  0.2266 -0.0897 -0.0876
22857W        W38666  11.181   2.548   0.877  0.0145 -0.1800  0.0045
22858W        W38667   7.691   3.126  13.204  0.1107  0.1636 -0.2183
22859W        W38668   9.304   4.351   1.387  0.0573 -0.5068 -0.1076
22860W        W38669  14.432   8.673  13.927  0.1328  0.0181 -0.0534
22861W        W38670   9.466   5.170   1.354 -0.3992 -0.1230 -0.1215
22862W        W38671   8.554   9.397   4.575 -0.0045 -0.0194 -0.1865
22863W        W38672  17.476  10.287  12.252  0.2058 -0.0309  0.0769
22864W        W38673   2.822  10.795  14.372 -0.2598  0.2246 -0.0943
22865W        W38674   1.370   3.144   4.912  0.0519  0.2050 -0.4576
22866W        W38675   3.276  10.972  12.906 -0.1190 -0.1029  0.1212
22867W        W38676  17.879  10.445   2.304 -0.0738  0.4192 -0.1079
22868W        W38677   8.326   5.445  13.466 -0.1365  0.1642 -0.0450
22869W        W38678  15.459   2.442   4.202  0.0854 -0.0835  0.0561
22870W        W38679   4.004   0.934  15.580 -0.0381 -0.1073 -0.2290
22871W        W38680  17.506   2.609   0.251  0.0375  0.4292 -0.0531
22872W        W38681  12.020  12.237   1.850  0.1621  0.1851 -0.2178
22873W        W38682  11.641  13.764   5.466  0.2013 -0.2787  0.2499
22874W        W38683  12.337  16.525  13.536  0.3032  0.3214  0.2173
22875W        W38684   2.041   8.037  15.312 -0.2166 -0.3856 -0.5847
22876W        W38685  15.619   0.714   2.769 -0.2386 -0.4181 -0.0221
22877W        W38686   0.601  10.615   1.278  0.1358  0.0074 -0.2910
22878W        W38687   1.858  11.966   1.257 -0.1087 -0.0644  0.0016
22879W        W38688   3.503  12.077  13.615  0.2726  0.1207  0.1374
22880W        W38689  17.964  12.129  13.431 -0.1944  0.3716  0.0781
22881W        W38690   5.789   6.421  14.862  0.1509 -0.0884  0.0276
22882W        W38691   5.751  15.113  10.229 -0.0329  0.2786  0.0342
22883W        W38692   5.383   2.164  11.254 -0.0559  0.0641  0.0155
22884W        W38693   8.703   6.908   0.270  0.0897  0.1387  0.0798
22885W        W38694   5.787  15.159   3.484  0.3071  0.1018  0.2054
22886W        W38695   7.245  16.150   5.372 -0.2910 -0.2561  0.1192
22887W        W38696  16.927  14.902  12.981 -0.1369 -0.2463 -0.0542
22888W        W38697   5.151   5.789   6.289  0.0613  0.2404 -0.0449
22889W        W38698   1.095   2.741  11.799 -0.1379  0.1816 -0.0625
22890W        W38699   8.136   6.127  16.019 -0.1578 -0.3567 -0.3055
22891W        W38700  15.570  13.605  16.263  0.0582  0.1668 -0.0285
22892W        W38701   1.570  16.509  15.977  0.0628  0.0088 -0.3016
22893W        W38702   9.835   5.549   0.454  0.0801  0.1894 -0.1344
22894W        W38703  12.123  14.146   5.105 -0.1291  0.2690 -0.1065
22895W        W38704  13.712   3.743  13.522 -0.0597  0.0389 -0.1371
22896W        W38705   1.340   4.785  15.444  0.1604 -0.1763 -0.2217
22897W        W38706  11.267   1.514   2.452 -0.1245  0.0129  0.0744
22898W        W38707  10.930   3.057  13.607  0.2516  0.2438 -0.0382
22899W        W38708   9.356   4.806  13.753  0.1074 -0.2344  0.0487
22900W        W38709   8.578   9.341  13.683 -0.0888  0.1179  0.0842
22901W        W38710  10.450   5.934   1.041 -0.0641  0.0443 -0.2657
22902W        W38711   1.030  17.820   5.983 -0.0521 -0.1233 -0.1307
22903W        W38712   8.242   8.729   4.062  0.1422  0.2776 -0.0846
22904W        W38713  13.977  10.387   3.108  0.2208 -0.0740 -0.1909
22905W        W38714   2.336   5.967   1.650 -0.2651  0.1041 -0.2366
22906W        W38715  15.096  13.607  12.789  0.1916 -0.0485  0.1166
22907W        W38716   2.565   2.238  12.324 -0.1828 -0.2710  0.1438
22908W        W38717  13.384   6.608  12.474 -0.0158 -0.2598  0.0372
22909W        W38718   9.590  14.662   3.713  0.0776  0.2010  0.2383
22910W        W38719  16.110   4.859  15.353 -0.2367 -0.3322 -0.1452
22911W        W38720   0.682   4.204   5.813 -0.3567  0.2663 -0.1010
22912W        W38721  13.451   4.039   0.282  0.0133  0.0057  0.1402
22913W        W38722   3.762   9.136  16.169  0.1147  0.0169  0.0934
22914W        W38723   7.584  16.699   6.025 -0.1908  0.1520 -0.2516
22915W        W38724   0.653  12.863  14.532 -0.0714  0.3930 -0.1625
22916W        W38725  11.834   1.262  11.456  0.0791  0.1821  0.0983
22917W        W38726  12.929  15.187  11.010 -0.1053  0.0292 -0.1361
22918W        W38727  14.269   4.405  12.988 -0.1513  0.2781 -0.1997
22919W        W38728  11.350   5.492   9.863  0.2434 -0.1238 -0.4035
22920W        W38729  16.443   3.336  14.974  0.2166 -0.0063 -0.1353
22921W        W38730   9.407   3.954   0.179  0.2732  0.1827 -0.0057
22922W        W38731  13.055   6.324   1.398 -0.1511  0.1486 -0.3056
22923W        W38732   5.247  16.815   4.551  0.1637 -0.0487  0.0244
22924W        W38733   9.465  10.187   3.928  0.2361 -0.0308 -0.5498
22925W        W38734   8.946  15.698  11.462  0.4563  0.0909 -0.2176
22926W        W38735   2.792  12.759   3.045 -0.0656 -0.1847 -0.3053
22927W        W38736  11.960  15.536  15.309 -0.0864 -0.1162  0.0003
22928W        W38737   7.014  10.537  13.983 -0.1680  0.2360  0.1085
22929W        W38738   2.770  12.412  14.892 -0.2343  0.2629 -0.1287
22930W        W38739  10.869   5.936  14.936  0.1001 -0.3418 -0.3383
22931W        W38740  10.067  12.952  11.854  0.0587  0.1947  0.0755
22932W        W38741  11.013  11.773  12.334  0.0154  0.1624 -0.2616
22933W        W38742  14.560   1.274  11.572 -0.2881 -0.0301 -0.1300
22934W        W38743  10.174  12.073   2.824  0.4027 -0.0733 -0.0404
22935W        W38744   9.567  17.247  13.205  0.0248 -0.1458 -0.3569
22936W        W38745   8.068   8.519   1.655 -0.1255 -0.0159 -0.0785
22937W        W38746  11.923   6.963  11.526  0.0971 -0.1482 -0.0224
22938W        W38747   7.981   2.452  13.224  0.2866 -0.0135  0.2640
22939W        W38748   5.998   5.313   0.642  0.2623 -0.4050 -0.0279
22940W        W38749  10.123   6.336  12.241 -0.0081  0.0634 -0.1451
22941W        W38750   6.232   5.915   0.754 -0.0872  0.1577 -0.1959
22942W        W38751  10.091  16.471  15.462  0.0856  0.0626 -0.0601
22943W        W38752   9.889   7.854  15.650  0.2197 -0.2189  0.0308
22944W        W38753  14.843  14.501   5.881 -0.3399 -0.1009  0.1349
22945W        W38754   8.119   0.720  12.768  0.1137  0.1087 -0.0404
22946W        W38755  17.169   8.297   4.906  0.1211 -0.2148 -0.0295
22947W        W38756  13.198   6.573   4.465 -0.1997 -0.0017 -0.1194
22948W        W38757   0.559  15.946   5.367 -0.0350 -0.3549  0.0591
22949W        W38758  13.172   1.135   0.079  0.0430  0.2395  0.0315
22950W        W38759   4.072  11.746   3.038 -0.1475  0.1792 -0.1443
22951W        W38760   7.983  16.642   0.757  0.2940  0.3113 -0.0661
22952W        W38761  15.718  10.685   4.102  0.3684  0.1800  0.1649
22953W        W38762   4.015   6.658  11.862 -0.0990 -0.0731 -0.2086
22954W        W38763  10.752  12.852  14.985 -0.0360  0.1564  0.0907
22955W        W38764  13.505  10.981  10.220  0.1571  0.0087 -0.2995
22956W        W38765   4.298  10.140   0.628 -0.1948 -0.3064  0.1013
22957W        W38766   3.331   1.566   4.640 -0.2364 -0.0472  0.0900
22958W        W38767  17.226  13.329  13.686  0.1003  0.0416  0.2270
22959W        W38768  14.554  18.041   0.334  0.0424  0.1432  0.2653
22960W        W38769   0.055  16.329   1.804 -0.4613 -0.0039 -0.1382
22961W        W38770  17.219  18.211  12.687  0.3119  0.1382 -0.0608
22962W        W38771   2.751   2.137  14.894  0.1732 -0.1420 -0.1187
22963W        W38772   1.125   5.149   0.841 -0.0405 -0.1380  0.2033
22964W        W38773   1.279  12.189   0.792  0.1802  0.1655 -0.0263
22965W        W38774   5.063  16.045  14.625 -0.0144  0.0572 -0.1699
22966W        W38775   7.729   1.108  12.851 -0.1362 -0.1778 -0.0668
22967W        W38776   4.676  13.339  14.019  0.0564 -0.1289 -0.1509
22968W        W38777   2.443   6.778   5.010 -0.1033 -0.0337  0.3378
22969W        W38778   3.442   1.622  13.669  0.2986 -0.1146 -0.0230
22970W        W38779   3.295   3.881   2.164  0.2231 -0.1846  0.1080
22971W        W38780   7.041   4.498   0.908  0.1118 -0.0810 -0.0829
22972W        W38781   0.404   6.064   1.367  0.2271 -0.1529 -0.2531
22973W        W38782  14.717   0.771   5.602 -0.2058  0.2548  0.0901
22974W        W38783   2.967  15.422   1.129  0.3959 -0.4462  0.0652
22975W        W38784   6.940   4.793  14.481 -0.3547 -0.1333 -0.2818
22976W        W38785   7.312   9.124   2.280 -0.0725 -0.0881 -0.1036
22977W        W38786  15.291  14.454  13.424 -0.0356 -0.2130 -0.2186
22978W        W38787  11.873   3.866  11.970  0.2275  0.0371  0.1755
22979W        W38788  12.110  18.143  13.684 -0.1822  0.1091 -0.1342
22980W        W38789  14.219   0.327  12.178  0.1066  0.1270  0.2227
22981W        W38790   3.316  10.118  13.411 -0.1156 -0.1770  0.2359
22982W        W38791   2.452   2.198  15.338  0.1358  0.0555 -0.0657
22983W        W38792   0.062   0.583   3.535 -0.2713 -0.0381 -0.2300
22984W        W38793  13.060   9.607  15.030 -0.1858  0.0404 -0.2132
22985W        W38794   5.048   6.553   3.124  0.0934  0.2436 -0.2493
22986W        W38795  17.681   3.109   0.662  0.0153  0.2371 -0.0523
22987W        W38796   0.409  15.735   1.931 -0.2647  0.2939 -0.0564
22988W        W38797   3.868   1.540   2.129  0.2281 -0.1055 -0.3707
22989W        W38798   4.811   5.087  11.096 -0.1378 -0.2619  0.1129
22990W        W38799  11.045   0.759  10.941 -0.0356  0.1330 -0.0074
22991W        W38800  11.088  17.863  14.142 -0.1202  0.1479 -0.0152
22992W        W38801   3.245  12.230   2.352  0.1579  0.0798 -0.3155
22993W        W38802  16.648   5.720  14.305 -0.0444 -0.4048  0.0682
22994W        W38803  15.341  16.950  14.864 -0.2032  0.2283  0.0784
22995W        W38804   1.118   5.737  12.912 -0.1380 -0.0166  0.1345
22996W        W38805  13.823   0.038  12.357  0.2390 -0.0075 -0.0418
22997W        W38806   6.482   2.709   4.015  0.0096  0.0976 -0.0926
22998W        W38807  10.642  17.343  11.787  0.3150  0.2450  0.0340
22999W        W38808  12.756  14.274  13.056  0.1016 -0.0905 -0.0445
23000W        W38809   9.420   1.360  12.472  0.2600 -0.1882  0.0118
23001W        W38810  17.419   5.310   1.256 -0.0806 -0.1778 -0.0679
23002W        W38811  15.371   0.426   0.999  0.1163  0.1597 -0.1227
23003W        W38812   4.805  14.484   4.135  0.1065  0.0901 -0.0057
23004W        W38813  12.690   6.656   4.548  0.1098 -0.1177 -0.0452
23005W        W38814  11.138   7.015   0.310  0.1144 -0.3619  0.1443
23006W        W38815   5.775   5.875  16.125  0.0997  0.0495 -0.0799
23007W        W38816   0.153   3.872   2.245 -0.0431 -0.2130 -0.1799
23008W        W38817   2.600   5.781   3.074 -0.1455 -0.2603  0.0514
23009W        W38818   5.248   2.547  14.430  0.0227  0.2831  0.0494
23010W        W38819   9.576   2.627   4.440  0.0782 -0.1055 -0.0082
23011W        W38820   7.291  15.915  13.827 -0.1083  0.1248 -0.1888
23012W        W38821  11.123   3.516   0.398  0.2136  0.0284  0.0526
23013W        W38822   3.299   7.951  12.041  0.0585  0.1250 -0.1260
23014W        W38823  17.160   3.968   0.019 -0.2349 -0.0431  0.1442
23015W        W38824  12.015  13.998   0.610  0.2243  0.0055 -0.0594
23016W        W38825  13.972   6.001  15.212 -0.0396 -0.0723 -0.0494
23017W        W38826   4.545  10.650  13.581  0.0891  0.0155 -0.0448
23018W        W38827  11.742   1.153   0.140  0.0058  0.3272  0.2370
23019W        W38828  15.685  16.648  15.880  0.2029 -0.0996 -0.1591
23020W        W38829   5.385  15.187   4.979 -0.1396  0.1542  0.1807
23021W        W38830  10.421   8.200  13.989  0.0309  0.2530  0.1747
23022W        W38831   9.184  13.309   4.124 -0.0654 -0.1279  0.0163
23023W        W38832  13.277  17.925   3.833 -0.1718  0.2133 -0.0442
23024W        W38833   7.023  17.622  14.804 -0.2904  0.1335  0.0182
23025W        W38834  14.619  15.567   2.310 -0.1326  0.0206 -0.1897
23026W        W38835  10.252   0.133  14.350 -0.1073  0.1741 -0.1169
23027W        W38836   7.455  16.899  13.995 -0.2120  0.2051  0.5462
23028W        W38837   6.555  13.808   0.024 -0.1884 -0.2220  0.4074
23029W        W38838   5.015  16.418   1.485 -0.1629  0.3530 -0.3684
23030W        W38839  12.601   5.782   5.034  0.2202  0.1169  0.0701
23031W        W38840   9.520   1.901  14.233  0.0567 -0.2879  0.0705
23032W        W38841   4.675   2.931   4.297 -0.0755 -0.0463  0.1193
23033W        W38842   6.384   4.880   4.035 -0.1952  0.1347 -0.1317
23034W        W38843   4.080   1.677  12.219 -0.0501  0.0368 -0.1331
23035W        W38844   1.636   5.715  12.709 -0.0613 -0.3826 -0.0840
23036W        W38845  15.021   3.087  13.249 -0.1455  0.1647 -0.0841
23037W        W38846   3.514  17.596  15.828  0.0234 -0.0075  0.0165
23038W        W38847  15.956  14.226  11.637  0.0436 -0.0971 -0.0078
23039W        W38848  11.660  10.065   3.695  0.1086  0.1964  0.1927
23040W        W38849   2.759   3.661   4.900  0.0369 -0.2234  0.1008
23041W        W38850   1.420   7.630  12.569  0.3118 -0.1976  0.0017
23042W        W38851   7.482   5.930   4.668  0.2437  0.2770  0.0884
23043W        W38852   9.302  16.448   4.161  0.0796 -0.0642 -0.0658
23044W        W38853  17.991  16.395   0.530  0.2849 -0.1204  0.2570
23045W        W38854   9.375  16.849   1.113  0.2514  0.1503 -0.1896
23046W        W38855   7.775   1.631  10.596  0.0802 -0.2082  0.1396
23047W        W38856   1.117   2.290   0.853  0.0776 -0.2671 -0.0903
23048W        W38857  17.409  13.497   3.056  0.3467 -0.0469  0.2367
23049W        W38858  15.026  15.573  16.031 -0.1929  0.1285  0.0129
23050W        W38859   8.156   3.297  10.863  0.1863 -0.0698  0.3404
23051W        W38860  18.199  14.170   0.411  0.1760  0.3972  0.0298
23052W        W38861  17.817   7.139   1.340  0.0287  0.0914 -0.0153
23053W        W38862   8.207  12.286  14.036  0.0938 -0.0851 -0.2809
23054W        W38863   6.190  12.711   3.107 -0.0484 -0.2069  0.1098
23055W        W38864   1.651   4.083   2.720  0.1830  0.1350 -0.0005
23056W        W38865  11.262   1.928  11.597 -0.0898 -0.5450  0.2340
23057W        W38866  11.010   8.989   2.235 -0.1984 -0.0316 -0.1783
23058W        W38867  17.275   6.105   5.049  0.2558 -0.2142 -0.2219
23059W        W38868  10.385   2.870  14.186 -0.0793  0.3524 -0.2005
23060W        W38869  16.039   0.486   5.890 -0.0062  0.1863  0.1280
23061W        W38870  11.815  14.497   6.063 -0.2349 -0.1118  0.0755
23062W        W38871   9.726   0.452  13.988 -0.1953 -0.1767  0.2475
23063W        W38872  10.763   1.883  13.141 -0.0630  0.0739  0.1445
23064W        W38873   5.342   8.003   6.449  0.1066 -0.0022 -0.0159
23065W        W38874  15.096  12.036   5.205 -0.2143 -0.2521  0.3469
23066W        W38875  17.809   8.625   4.386  0.0062 -0.0359  0.2377
23067W        W38876   1.002  16.370  16.024 -0.2891  0.0258 -0.0235
23068W        W38877   4.798  14.466  15.566  0.2048  0.0709  0.1619
23069W        W38878  14.759  17.206   0.122  0.0858  0.4347  0.0237
23070W        W38879  14.236  15.289   1.461  0.2681  0.1036  0.3710
23071W        W38880   4.039   1.019   4.768  0.1165 -0.1271  0.2368
23072W        W38881  17.315  11.527  11.943 -0.3027  0.1068  0.0979
23073W        W38882  13.526   5.832  15.888 -0.1701 -0.2057  0.0960
23074W        W38883   7.806   6.149   3.425  0.0102 -0.0327  0.1556
23075W        W38884   2.168   8.813  13.244 -0.1856 -0.2884  0.1378
23076W        W38885  17.725  13.712   2.092  0.0118  0.1685 -0.0223
23077W        W38886   3.900   7.133  16.095 -0.1365 -0.1883  0.0404
23078W        W38887   9.266  15.297  15.584  0.0207 -0.3135 -0.2670
23079W        W38888  18.142   1.196   2.672 -0.0665  0.1251  0.1011
23080W        W38889  10.382   1.167  12.737  0.4878  0.2424 -0.0146
23081W        W38890  13.755  11.344   1.369 -0.0274  0.1949 -0.2498
23082W        W38891  12.629  17.747   5.903 -0.2907 -0.1463 -0.0834
23083W        W38892   4.638   3.524  13.902 -0.2762  0.0387  0.4326
23084W        W38893  11.946   2.058  14.447  0.0789  0.0845 -0.0914
23085W        W38894   9.735   6.523  11.798 -0.0641 -0.0365  0.0677
23086W        W38895  13.680  13.965  13.895 -0.1039 -0.3372 -0.3025
23087W        W38896   9.677   3.896  12.277  0.2568 -0.1273  0.1553
23088W        W38897   7.767   8.257  16.120 -0.0736 -0.1531 -0.0355
23089W        W38898   8.040   9.504   1.595  0.0364  0.2340 -0.2706
23090W        W38899   2.089  10.542   3.825 -0.1228  0.4141  0.1322
23091W        W38900   0.495   1.696   1.996 -0.2300  0.1850 -0.2361
23092W        W38901  16.126   2.143   0.260 -0.0397 -0.0163 -0.2138
23093W        W38902   5.320  17.362   4.684  0.0958 -0.0862 -0.0937
23094W        W38903  14.759   8.103  13.644 -0.2033 -0.2185  0.0309
23095W        W38904   9.570  16.585  16.141 -0.2293 -0.2912 -0.1500
23096W        W38905  11.300  14.265  11.927  0.0651 -0.0348 -0.1777
23097W        W38906   8.480  12.692  13.907 -0.0014 -0.1416  0.0982
23098W        W38907   1.344   0.954   3.871 -0.2315  0.0558  0.1558
23099W        W38908  17.621   2.584  13.016 -0.2392 -0.0887 -0.0306
23100W        W38909  14.804  14.707   2.332  0.1181  0.1109  0.2075
23101W        W38910  17.591  15.506   1.878 -0.1038 -0.0847 -0.0014
23102W        W38911  14.805   3.415  12.697  0.0786 -0.0828  0.1237
23103W        W38912  10.805  11.210  11.673  0.2518  0.0252  0.0669
23104W        W38913  12.197  15.251   0.422 -0.1040  0.0239 -0.0779
23105W        W38914  17.599   4.905   3.655 -0.0647 -0.2744 -0.0242
23106W        W38915   9.996  10.799   5.886 -0.0347 -0.0603  0.2059
23107W        W38916  11.043   2.181  15.940  0.2410  0.0166  0.0476
23108W        W38917   2.118   9.987  14.844 -0.3583  0.2926 -0.1673
23109W        W38918   4.426   8.549   2.657  0.2566  0.1522  0.1414
23110W        W38919  10.371   4.231  12.922  0.3955  0.2299  0.3198
23111W        W38920  11.293   0.908  13.816  0.0306  0.0296  0.1540
23112W        W38921  15.509  15.619  15.714  0.1111 -0.1843 -0.0844
23113W        W38922  12.768   3.218   5.547  0.1476 -0.2337 -0.1394
23114W        W38923  10.092   0.542  11.015  0.1462 -0.0548  0.0888
23115W        W38924  12.760  12.543  16.122  0.2049  0.1632 -0.0079
23116W        W38925   5.264  15.204  15.408 -0.0102 -0.0627  0.0053
23117W        W38926   1.693  15.961  10.886  0.2181 -0.3002  0.0788
23118W        W38927  18.185  18.211  14.903 -0.1433  0.1418 -0.0488
23119W        W38928   3.145  16.168  15.263 -0.0414  0.1237  0.0711
23120W        W38929   9.210   5.867   3.969 -0.1672 -0.1224 -0.2932
23121W        W38930  15.693  11.104   1.081  0.3731 -0.2955 -0.0282
23122W        W38931   3.703   9.091  15.544 -0.0430  0.0621  0.2267
23123W        W38932   2.731   3.281  14.140 -0.0386  0.3401 -0.0141
23124W        W38933   9.249  16.309   2.545 -0.4285  0.0093 -0.0635
23125W        W38934   2.305   1.519   0.574 -0.1834  0.0476  0.1096
23126W        W38935   6.935  16.859  13.848  0.0279  0.1226  0.2463
23127W        W38936   3.950   6.625   2.606 -0.0804  0.0879 -0.0207
23128W        W38937   9.650   7.267   0.557  0.0521  0.0772  0.2194
23129W        W38938   1.913   1.357   1.379 -0.0697  0.1754  0.1252
23130W        W38939   8.890  11.711  13.832  0.1066  0.0544  0.0397
23131W        W38940   7.377   1.392  12.606  0.0921  0.1479  0.3844
23132W        W38941   1.337   1.209  15.814  0.0305 -0.0119  0.1592
23133W        W38942   4.594   1.668  16.109  0.3485  0.0925 -0.1049
23134W        W38943   4.047   8.630   3.841 -0.0769 -0.0496 -0.0042
23135W        W38944  14.276   0.848   2.550  0.1034  0.0251 -0.0726
23136W        W38945   7.671  13.635   5.128  0.0569  0.3985 -0.2745
23137W        W38946   9.034  17.241   4.548  0.1943 -0.1532 -0.0054
23138W        W38947   7.376   7.430   4.942 -0.0636  0.1580  0.1990
23139W        W38948  15.225   6.340   1.298  0.1365 -0.0396 -0.2735
23140W        W38949   1.417   9.164  11.453 -0.2854  0.3456 -0.3756
23141W        W38950  13.006   8.935   1.006 -0.0403  0.0955 -0.0307
23142W        W38951  17.684   3.437   3.614 -0.0590  0.2884  0.0236
23143W        W38952  13.270  16.530   2.527 -0.1318 -0.3883  0.0462
23144W        W38953  11.304   9.794  10.281  0.0677 -0.0039 -0.0485
23145W        W38954  17.363  15.389   0.515 -0.0832  0.0375 -0.3705
23146W        W38955   2.014  12.315   4.743  0.0883 -0.0156 -0.0420
23147W        W38956   0.755   8.967   3.534  0.0100 -0.0571  0.0720
23148W        W38957   6.945   0.799   3.142 -0.3141  0.1127  0.1876
23149W        W38958   5.485   0.588   2.510  0.2149  0.1438 -0.2376
23150W        W38959   4.850   4.579   1.732  0.2219  0.0705 -0.0639
23151W        W38960   2.983   7.626  15.159 -0.3050 -0.2219  0.0579
23152W        W38961   2.152   9.250  14.517  0.1073 -0.2106 -0.1989
23153W        W38962   5.427   9.514  11.135 -0.2396 -0.1144 -0.0783
23154W        W38963   2.350  17.895  12.884 -0.3045 -0.0247  0.2311
23155W        W38964  10.517  11.776   0.066  0.3758  0.1603  0.0325
23156W        W38965  16.234   0.237  11.845  0.1390  0.1915 -0.2821
23157W        W38966  16.140  11.352  13.654  0.0649 -0.3291 -0.0992
23158W        W38967   8.712   8.512   0.978  0.1819  0.1042 -0.0905
23159W        W38968  16.033   0.754  16.360  0.1516 -0.2663  0.0089
23160W        W38969  17.981  10.689  14.356  0.0823 -0.2930 -0.2606
23161W        W38970   5.377   2.590  11.492 -0.0329 -0.2181  0.0423
23162W        W38971  15.530  15.517   1.227  0.0355  0.0898 -0.0176
23163W        W38972   7.797   9.729   2.048 -0.2798  0.1524 -0.2262
23164W        W38973  10.121   4.655  15.269 -0.2264  0.3435  0.2080
23165W        W38974  11.967  18.178   4.322 -0.2700 -0.1902  0.1086
23166W        W38975   8.270  17.522   3.484  0.2327 -0.0205 -0.0029
23167W        W38976  14.451   9.635  14.738 -0.2377 -0.2794 -0.0644
23168W        W38977  11.030   0.958   0.399  0.0268 -0.0717  0.1688
23169W        W38978  14.507  14.010   1.811 -0.1753 -0.2528 -0.0069
23170W        W38979  15.952   4.130   4.100 -0.1547  0.1474 -0.1202
23171W        W38980   5.009  13.857   0.566 -0.0592  0.2037  0.1445
23172W        W38981  10.048  14.081  13.974  0.1288 -0.1446  0.2093
23173W        W38982  10.900   6.834  15.452 -0.0798 -0.0147 -0.2048
23174W        W38983   2.390   4.236   1.572 -0.0379  0.1724  0.1456
23175W        W38984   7.632  13.403   2.615  0.0301 -0.2011  0.1399
23176W        W38985  17.977   1.348  14.972  0.0295 -0.1203 -0.1474
23177W        W38986  17.148   9.081   1.318  0.0949 -0.0667  0.1380
23178W        W38987  12.817  13.036  13.654 -0.0283 -0.3341 -0.1472
23179W        W38988   4.975   5.352  11.533  0.0309  0.0541  0.2994
23180W        W38989  14.122   5.390   5.286  0.2012  0.0123 -0.0480
23181W        W38990  15.710   3.815   5.125 -0.1229 -0.2310 -0.0148
23182W        W38991   4.704  12.750  12.222 -0.3581 -0.2558  0.1461
23183W        W38992  13.030   0.284  11.785 -0.2031  0.1216 -0.0755
23184W        W38993   8.956  11.439   3.263  0.1595 -0.1025 -0.0865
23185W        W38994  10.634  12.250  13.520  0.1399  0.3566  0.0401
23186W        W38995  14.384   4.946   2.932 -0.0687  0.0525  0.0801
23187W        W38996  10.102   7.667  14.814  0.0409 -0.1343 -0.2052
23188W        W38997  10.842   5.900  12.111  0.2471 -0.2882  0.2493
23189W        W38998  11.500  16.557   4.224 -0.0796 -0.1281  0.0697
23190W        W38999   6.970   1.060  15.100 -0.0222  0.1007 -0.1772
23191W        W39000   0.722  14.887  12.376 -0.0236 -0.1749  0.0207
23192W        W39001  16.101   8.177   4.775 -0.2142 -0.0609  0.2716
23193W        W39002   5.005  14.168  15.908 -0.0421 -0.0082 -0.0510
23194W        W39003   3.039  12.374   5.362 -0.1607  0.0522  0.1427
23195W        W39004   2.315  11.535  14.350 -0.0596  0.0822  0.1126
23196W        W39005   5.694   6.375   2.672 -0.2746 -0.1678  0.1993
23197W        W39006  15.871   7.795  12.736 -0.1765  0.3415 -0.0499
23198W        W39007   2.503   6.571  15.279  0.1375 -0.0749 -0.0129
23199W        W39008   3.429  14.390   5.062  0.1336 -0.0164 -0.0681
23200W        W39009  12.854  11.065   0.537  0.2612  0.2681  0.0326
23201W        W39010   5.267   9.615  16.161 -0.1170 -0.1294  0.1353
23202W        W39011   8.948   2.144   4.316 -0.3144 -0.1565  0.1020
23203W        W39012   0.287  13.086   1.389 -0.0726 -0.0358  0.0980
23204W        W39013  11.111  10.547  12.983  0.2173 -0.0411 -0.2256
23205W        W39014   5.606   5.936  11.247  0.2309  0.1961  0.2800
23206W        W39015   0.414   0.584   2.916 -0.0349  0.0236  0.3108
23207W        W39016   8.809   6.862  13.391  0.0079  0.0930 -0.2195
23208W        W39017  17.463   2.574  14.657  0.1103 -0.3130  0.0071
23209W        W39018  14.615  13.589   1.168 -0.1960 -0.0258 -0.1455
23210W        W39019  15.534  17.800   6.210  0.1801 -0.1509  0.1118
23211W        W39020   2.222   6.234  14.831 -0.0823  0.1032  0.1059
23212W        W39021  10.513  16.340   5.469 -0.1842  0.0124 -0.0942
23213W        W39022   6.602   7.221  14.357  0.1829  0.0899  0.0992
23214W        W39023  14.915   2.786   5.014 -0.0541  0.0247  0.0058
23215W        W39024   0.822   3.240   5.142  0.0279 -0.2441  0.3199
23216W        W39025  14.303   8.779  14.515 -0.0617  0.0767  0.1599
23217W        W39026   4.287  14.282   3.126  0.0433 -0.0445  0.3047
23218W        W39027  13.660   0.798  12.956  0.2422 -0.0424 -0.1395
23219W        W39028   4.783  16.965   0.142  0.1044 -0.1910  0.0320
23220W        W39029   1.731  10.105  11.402 -0.1489  0.2984  0.1232
23221W        W39030   1.057   8.484   1.869  0.1159  0.0735  0.0809
23222W        W39031  17.618   9.611  13.820  0.2496 -0.1486  0.2227
23223W        W39032   6.274   6.982   2.982  0.0696  0.3956  0.0086
23224W        W39033   4.826   7.957  11.436  0.0078  0.0500 -0.0590
23225W        W39034   0.135   3.558   1.848  0.2663  0.0071 -0.0855
23226W        W39035   5.215  12.583  15.128  0.1870  0.2512 -0.1882
23227W        W39036  14.562   4.120   1.886  0.0228  0.1218  0.2073
23228W        W39037   0.081  13.812  15.806  0.1620 -0.4652  0.1403
23229W        W39038   4.408  17.457   4.465 -0.4234 -0.0297 -0.1020
23230W        W39039  17.128   9.951   0.943  0.1731  0.0731  0.0556
23231W        W39040  15.430  17.778  15.060  0.4881 -0.0235  0.0131
23232W        W39041   3.126   7.146  15.491 -0.1730  0.4645 -0.0482
23233W        W39042  12.217   2.554   4.706  0.3468 -0.2198 -0.0606
23234W        W39043  13.131  16.740  13.485  0.0138 -0.1087  0.0468
23235W        W39044   8.042   6.351   5.138 -0.2739 -0.2563  0.1155
23236W        W39045   9.487  11.335   4.802  0.1045 -0.1438  0.0858
23237W        W39046  12.108   4.976   0.740 -0.3518 -0.0559 -0.4308
23238W        W39047   8.581   9.556  11.960 -0.0764 -0.0320  0.0878
23239W        W39048  16.896   3.797  11.633 -0.1251  0.0894  0.0696
23240W        W39049  10.709  12.559  16.188  0.2912  0.0602 -0.0619
23241W        W39050  17.395   8.951  12.173  0.0715 -0.0376 -0.1456
23242W        W39051   0.716   9.282  12.346 -0.3653  0.2343 -0.1402
23243W        W39052  14.334  15.357   4.377 -0.0363 -0.1570  0.2570
23244W        W39053  12.012   7.152  13.092 -0.2792 -0.1462 -0.0151
23245W        W39054   5.018   6.875  13.188  0.2301 -0.0594 -0.0808
23246W        W39055  17.651  10.965   0.539  0.1078 -0.1451 -0.1476
23247W        W39056   0.978   1.532  12.678 -0.2441 -0.1361 -0.2691
23248W        W39057  10.234   0.238  13.237 -0.1889 -0.1154 -0.2393
23249W        W39058   7.154  13.193   0.481 -0.2344 -0.1294  0.2387
23250W        W39059  15.124  13.270   3.851  0.0675  0.1125  0.1751
23251W        W39060  13.884  15.196   4.309 -0.2981 -0.2575 -0.3360
23252W        W39061   5.900   6.437   5.077 -0.1479  0.1089  0.2782
23253W        W39062  16.435   7.261   3.977 -0.0801 -0.1285  0.0942
23254W        W39063   1.656  13.958   0.096  0.1592  0.2192  0.2375
23255W        W39064  16.126   6.368   1.728  0.2831 -0.0450 -0.0203
23256W        W39065  13.629   9.937   1.519 -0.2100  0.1093  0.0913
23257W        W39066   7.105  14.845  13.993 -0.0313  0.3072  0.1837
23258W        W39067   1.842   1.540   2.325  0.4219 -0.1649  0.1714
23259W        W39068  10.136  17.579  11.686  0.2455 -0.0848 -0.1654
23260W        W39069   1.907  18.178  13.841 -0.0139  0.4257  0.0526
23261W        W39070   3.532  11.997  14.493  0.4107 -0.3701 -0.0823
23262W        W39071   7.198  16.753   0.157 -0.1877 -0.0019 -0.0390
23263W        W39072   7.197   4.582   2.517 -0.0697 -0.0833  0.1614
23264W        W39073  13.913   1.879  15.094 -0.0672  0.4860 -0.0509
23265W        W39074   4.066  14.683   1.442 -0.2326 -0.0022  0.0206
23266W        W39075  12.607   2.142   4.137  0.2383  0.2862 -0.0389
23267W        W39076  17.125   5.185   3.610 -0.1595 -0.1948 -0.1447
23268W        W39077   8.955   3.180   3.579  0.0688 -0.4111 -0.0170
23269W        W39078   0.065  12.955   3.108 -0.0413  0.0389 -0.0929
23270W        W39079   8.938  10.662   1.951  0.0366 -0.0729  0.3962
23271W        W39080  18.098   7.727   1.964 -0.0968  0.0880 -0.0156
23272W        W39081  11.693   7.688   0.094  0.2837  0.0655  0.2571
23273W        W39082   2.834   0.590   4.933 -0.1657  0.2181  0.3113
23274W        W39083  12.843   5.310  10.875  0.1839 -0.1395 -0.1345
23275W        W39084   9.463   9.141   3.596  0.2645  0.1673 -0.2632
23276W        W39085   1.378   8.543   1.490 -0.2460 -0.2015  0.0014
23277W        W39086   8.139   3.489  13.176 -0.1085 -0.1058 -0.0100
23278W        W39087  10.960  14.918  16.280  0.1556 -0.3183 -0.1516
23279W        W39088   3.520  10.312  13.866  0.2825  0.5221  0.0517
23280W        W39089  14.888  13.977   2.780 -0.0764  0.1186 -0.1893
23281W        W39090   5.085  10.368   1.521 -0.3967 -0.0912 -0.2916
23282W        W39091  13.440  15.269  11.017 -0.3439  0.2258 -0.1597
23283W        W39092   3.928  10.186   5.253  0.2867 -0.0766  0.0452
23284W        W39093  17.079   0.214  15.680 -0.1132 -0.3743  0.2287
23285W        W39094   4.060  13.128  11.436  0.0919  0.0644 -0.1841
23286W        W39095   0.570   9.148  13.956  0.2742  0.2149 -0.0091
23287W        W39096   1.557   0.666  13.924 -0.0518  0.0439 -0.0640
23288W        W39097  10.326  12.753  13.785  0.2294 -0.1152 -0.0447
23289W        W39098  11.312   6.636   2.772 -0.1223 -0.1066 -0.2216
23290W        W39099  10.103  17.822  12.129 -0.1828 -0.3133 -0.1361
23291W        W39100   0.014  15.393   3.632 -0.3917  0.1234 -0.2250
23292W        W39101   5.248   5.223   3.311 -0.1049  0.2015  0.1499
23293W        W39102  15.318   8.710  16.338 -0.1647  0.0398 -0.3666
23294W        W39103   2.022  16.087   5.009  0.1759 -0.1454 -0.0154
23295W        W39104   6.160   5.344   5.634  0.0579  0.1309  0.1143
23296W        W39105   1.298  11.190  13.373  0.1282  0.0434 -0.1856
23297W        W39106  12.938   7.310  13.453  0.0952 -0.1058 -0.3943
23298W        W39107   4.906  11.671   4.767  0.1171 -0.1881 -0.2918
23299W        W39108   1.102   1.368  14.520  0.0126 -0.0527  0.2564
23300W        W39109   1.584   1.987  15.408 -0.2013 -0.2919  0.0446
23301W        W39110  16.711  12.626  11.760  0.0005 -0.1530  0.0187
23302W        W39111   1.564   5.965  16.234  0.0573  0.1356  0.2834
23303W        W39112  15.695   3.549   2.104  0.0492  0.0473  0.3741
23304W        W39113   1.040   7.805  13.314  0.0146 -0.0164 -0.0261
23305W        W39114  16.769   1.289   3.886 -0.1452  0.1669 -0.4215
23306W        W39115  12.069  11.103   3.271 -0.0828  0.1744  0.0114
23307W        W39116  17.862  16.207   2.511 -0.0407 -0.0245  0.3586
23308W        W39117   0.957  12.710   3.772  0.2925 -0.0997  0.2669
23309W        W39118   4.815  12.381   0.930 -0.0372  0.0077  0.1097
23310W        W39119  12.425   8.029  11.062 -0.1024 -0.1178  0.1070
23311W        W39120   8.577  17.126   2.017 -0.0493  0.0528  0.1996
23312W        W39121   5.099   4.200   3.551 -0.2098  0.3196 -0.2468
23313W        W39122   6.542  17.045   4.485  0.1924 -0.1774  0.0120
23314W        W39123   6.957   4.440   2.026  0.1055 -0.2255  0.1450
23315W        W39124   3.667  17.583  13.302  0.1299  0.2512  0.0968
23316W        W39125   7.059  10.242   5.061  0.0822  0.0578 -0.0092
23317W        W39126   2.225   2.837  11.598 -0.1188  0.0574 -0.1768
23318W        W39127  17.551  17.167  12.130 -0.1087  0.1591  0.0961
23319W        W39128  17.654   1.687   5.014  0.1142  0.0675  0.1176
23320W        W39129   2.536  10.115   3.554  0.0016  0.0577 -0.2588
23321W        W39130   6.553   5.032  15.422  0.0305 -0.0629  0.3792
23322W        W39131  13.737  10.562   4.172 -0.0359  0.1094  0.1423
23323W        W39132  13.448  17.918   4.275 -0.1601  0.4937 -0.3552
23324W        W39133  11.984   9.862  10.953 -0.2343  0.0915 -0.2253
23325W        W39134   1.487   5.031   3.515 -0.3144  0.0160 -0.1204
23326W        W39135   6.251   1.865  14.962 -0.1476  0.0107 -0.0145
23327W        W39136   4.246   0.464   0.957  0.2133  0.0013  0.2287
23328W        W39137  10.373  14.794   3.322  0.0276  0.1150 -0.4383
23329W        W39138  14.498  17.552   2.543 -0.1075 -0.3273 -0.2383
23330W        W39139   4.200   1.030  13.927 -0.0765 -0.0782 -0.1250
23331W        W39140   3.660  12.558  15.982  0.0291 -0.0979 -0.2381
23332W        W39141   9.486  14.072  15.010  0.1892 -0.0537 -0.0175
23333W        W39142   6.223  13.465   0.861  0.0244 -0.0630 -0.0874
23334W        W39143   9.892   9.082  13.095 -0.3020 -0.0508 -0.1243
23335W        W39144  15.677  17.715  15.513 -0.2145 -0.1645 -0.2976
23336W        W39145  13.513   2.265   5.180 -0.0513 -0.1782 -0.1113
23337W        W39146  12.761   5.717   4.396 -0.2450 -0.0127 -0.0611
23338W        W39147   1.792   1.264  12.817 -0.0394 -0.2116  0.0123
23339W        W39148   3.095   7.585  16.022  0.0911 -0.1499 -0.0776
23340W        W39149   7.599  11.015   3.433 -0.1553  0.3209  0.3532
23341W        W39150   7.312  11.629   2.237  0.2535 -0.0581  0.3155
23342W        W39151   0.941   1.849   1.187  0.2756 -0.2513  0.0406
23343W        W39152   2.931   0.039   3.499 -0.0323  0.0576 -0.0166
23344W        W39153   5.513   0.579  13.155 -0.1517  0.2038 -0.1363
23345W        W39154   2.396   0.785   2.661  0.1577 -0.3090  0.0261
23346W        W39155  10.273  13.827   2.609  0.3102 -0.1823  0.0207
23347W        W39156   8.432  10.415  15.825 -0.2801 -0.4310 -0.0321
23348W        W39157  14.991  17.390  14.979 -0.0202  0.0534 -0.0539
23349W        W39158  10.376  15.419   0.370  0.1662  0.1488  0.0165
23350W        W39159  15.170   2.417  12.800  0.2074  0.1222  0.2406
23351W        W39160   0.488  16.205   2.292 -0.0659  0.1119  0.0510
23352W        W39161   0.667  17.847  11.778 -0.1860  0.0734 -0.2561
23353W        W39162  11.605  10.485   0.594 -0.0256 -0.1165 -0.1287
23354W        W39163  11.758   3.740  13.202 -0.1112  0.1986  0.0673
23355W        W39164  12.934  15.243   0.644 -0.0321  0.0607 -0.0052
23356W        W39165   3.331   9.506  14.599 -0.1814 -0.3344 -0.2998
23357W        W39166   7.492  13.976   1.900  0.2509 -0.0470  0.1475
23358W        W39167  11.987  13.336   4.744 -0.1042 -0.0790 -0.0473
23359W        W39168  17.586   6.025   3.375  0.1383 -0.1278  0.2148
23360W        W39169  15.992  16.852   0.342 -0.2442 -0.0903 -0.4002
23361W        W39170   7.060   5.912  16.268  0.0378  0.1702 -0.1048
23362W        W39171  15.093   6.678   5.465 -0.1962  0.3185 -0.0094
23363W        W39172  15.580   3.627   0.810  0.0989 -0.0102 -0.2185
23364W        W39173   8.536  10.236   0.368 -0.1468  0.1016 -0.1500
23365W        W39174   4.524   2.332   3.689 -0.1996  0.2725  0.1045
23366W        W39175  15.250   5.431   4.035  0.0526 -0.0616  0.2639
23367W        W39176  13.343  15.242   4.472 -0.1103  0.0861  0.2020
23368W        W39177  13.898  14.271   1.364  0.1700 -0.0151  0.3830
23369W        W39178   1.803  11.158   4.418  0.0413  0.1008  0.1351
23370W        W39179   6.810   5.562  14.559 -0.0927  0.3117 -0.0127
23371W        W39180  10.236  12.377   3.543  0.0161  0.1645  0.0203
23372W        W39181   7.386   6.659   3.456 -0.1310 -0.1873  0.2485
23373W        W39182  10.061   7.058  11.016 -0.0582  0.0987 -0.1232
23374W        W39183   4.977   8.784  13.980  0.1130 -0.1007  0.0271
23375W        W39184   6.321  13.236   3.136 -0.0881 -0.5099  0.2349
23376W        W39185   3.443   9.808   0.860 -0.0241 -0.1677 -0.1457
23377W        W39186  12.549  16.814  15.111 -0.2761 -0.2636  0.0946
23378W        W39187  16.018   9.835  14.597  0.0126  0.0090  0.4911
23379W        W39188   5.970   2.674   4.042  0.1357 -0.0391 -0.2014
23380W        W39189   7.095  12.827   5.242 -0.1172  0.0545 -0.0804
23381W        W39190   7.642  14.028   2.914 -0.2419  0.0597 -0.0194
23382W        W39191   6.615  11.605   4.639  0.0396  0.0994  0.2570
23383W        W39192  11.847   9.858   2.001  0.0158 -0.0523  0.2021
23384W        W39193   8.276   5.980   1.210 -0.2737 -0.0859 -0.0551
23385W        W39194  15.027   2.293  11.268 -0.3357  0.3410 -0.1807
23386W        W39195   7.000   7.977  14.907 -0.1029  0.1745 -0.1247
23387W        W39196  12.557   0.694  11.786 -0.1495  0.2144  0.1322
23388W        W39197   9.976   6.152  13.704 -0.1804  0.0645 -0.2832
23389W        W39198  12.438   8.919   1.666  0.0640  0.1542 -0.1153
23390W        W39199   0.743  12.022   0.598  0.3483 -0.1525 -0.1744
23391W        W39200   0.547  16.973   3.343 -0.1264  0.2331 -0.0863
23392W        W39201   8.075  12.494   1.606  0.0457 -0.1613  0.1245
23393W        W39202   5.462  10.855  15.442 -0.1110  0.0848 -0.1818
23394W        W39203   9.313   2.458   3.070  0.0567  0.1749  0.3559
23395W        W39204   7.747   4.660  15.762 -0.0440  0.1465 -0.0691
23396W        W39205   0.077  10.673   2.666 -0.3441  0.1204 -0.1262
23397W        W39206   7.722  10.371   3.902  0.0712  0.1417  0.0850
23398W        W39207   5.663  16.302   1.314  0.0515 -0.0246 -0.0798
23399W        W39208  15.225   7.959   0.559 -0.1640 -0.0863  0.0228
23400W        W39209   8.966  11.458   0.285  0.0981 -0.0929 -0.1538
23401W        W39210  12.206  13.173  14.404 -0.1425  0.2102 -0.0757
23402W        W39211  17.825   6.294   3.004  0.1752  0.0393  0.0074
23403W        W39212   6.982  13.533   3.237 -0.0511  0.3084  0.0401
23404W        W39213   2.871   4.384   2.872 -0.0188  0.0842 -0.0632
23405W        W39214   8.942   5.201  16.017  0.1477 -0.4455 -0.0801
23406W        W39215   6.206   0.616  14.409  0.4105  0.0471  0.0252
23407W        W39216   9.095   4.077  13.481 -0.0121 -0.1787  0.0816
23408W        W39217   4.889   0.451  15.623  0.1029  0.1050  0.0333
23409W        W39218   5.238   0.104   0.960 -0.2235  0.1073 -0.1774
23410W        W39219   3.182   4.025   0.424  0.2925 -0.1912  0.0412
23411W        W39220  16.877  14.255  16.092 -0.1945  0.3051  0.0336
23412W        W39221   9.679   5.357  11.157 -0.0844 -0.1320 -0.1112
23413W        W39222   6.415   2.908   2.127 -0.1126  0.0655 -0.1248
23414W        W39223   8.028  16.483   3.186 -0.2349  0.0043 -0.3349
23415W        W39224   3.137  11.765   1.395 -0.3537  0.4169 -0.2463
23416W        W39225  14.315  14.420   1.595 -0.0836  0.0962 -0.3656
23417W        W39226  17.181   4.559  13.719 -0.0667  0.1795 -0.1609
23418W        W39227  12.153   5.551  14.980  0.1463  0.0197 -0.0389
23419W        W39228  15.789  14.849   2.147 -0.2060 -0.2398  0.1043
23420W        W39229  16.850  10.515  12.825 -0.1622  0.0973 -0.2102
23421W        W39230   0.011  13.809   0.011  0.0486  0.0616  0.1752
23422W        W39231   7.850   4.977  16.219  0.0450 -0.1027 -0.1019
23423W        W39232   8.951   3.564   5.587 -0.1578  0.0009 -0.0522
23424W        W39233  11.487  17.570  14.878 -0.1369  0.1904 -0.2737
23425W        W39234   3.494   4.516   3.967  0.2851  0.1308 -0.1511
23426W        W39235   4.173   6.234  13.954  0.2483 -0.1518 -0.2217
23427W        W39236  14.163   3.173  15.633 -0.1703 -0.1532 -0.0319
23428W        W39237   9.099   4.873   0.255  0.2825 -0.3380 -0.0584
23429W        W39238   2.813   2.429   1.820  0.0967 -0.0098  0.0046
23430W        W39239  10.779   4.775   5.432 -0.0905 -0.0256  0.2431
23431W        W39240  16.994   8.901   2.878  0.1358 -0.3640 -0.1689
23432W        W39241  17.663  17.050   5.227 -0.0409 -0.4722  0.2126
23433W        W39242  10.701  16.942  13.466 -0.0235  0.1174  0.0752
23434W        W39243  16.129   4.263  14.859  0.3660 -0.1142 -0.1956
23435W        W39244  16.251  14.239  13.924  0.1426 -0.1067 -0.4379
23436W        W39245   3.963  13.659  14.883  0.3931 -0.1125  0.2889
23437W        W39246   6.140  17.199   5.260 -0.1574 -0.4351  0.1998
23438W        W39247  15.388  13.766  12.357 -0.1115 -0.0024 -0.0156
23439W        W39248   3.844   2.049   1.949 -0.0297  0.2538  0.2566
23440W        W39249  10.501   5.376   1.044  0.1980 -0.2254  0.3039
23441W        W39250   6.929   2.721  14.167 -0.0632 -0.4354 -0.2034
23442W        W39251  11.431  10.828  11.133  0.1725 -0.0855  0.0671
23443W        W39252  12.723   4.397   1.531 -0.0185 -0.1735 -0.1518
23444W        W39253   3.406  13.150  15.354  0.0591 -0.0725 -0.0124
23445W        W39254   4.201  16.449   3.058 -0.1164 -0.1382 -0.2539
23446W        W39255   6.853   9.517  16.166 -0.1502  0.0940  0.0706
23447W        W39256  15.186   9.259   3.585  0.1989  0.4336  0.1671
23448W        W39257  13.613   7.509   3.665 -0.2064 -0.0918 -0.0344
23449W        W39258  15.441  12.831   4.892  0.2073  0.0836 -0.2361
23450W        W39259  11.565   1.375  14.986  0.0010 -0.3776  0.1664
23451W        W39260   8.621   4.273   5.607  0.1617 -0.1343  0.1176
23452W        W39261   1.280  11.960  10.894  0.2459  0.0664  0.0860
23453W        W39262   5.008   7.375   5.238  0.4241 -0.1751  0.1311
23454W        W39263   5.743   8.071   4.478 -0.2598  0.1376  0.0726
23455W        W39264  14.342   2.242  13.112  0.0941 -0.0695 -0.0726
23456W        W39265  12.893   9.699  14.553 -0.0576 -0.1547 -0.1142
23457W        W39266   4.734   3.778  16.256 -0.1943  0.0934 -0.3113
23458W        W39267   5.621   5.125   2.839  0.1231  0.2136 -0.2277
23459W        W39268  14.830  17.078   4.434 -0.0890 -0.4474 -0.0906
23460W        W39269  15.854  10.715   3.525 -0.1348 -0.0063  0.3277
23461W        W39270  16.464   8.152   2.121 -0.0111 -0.2186  0.3127
23462W        W39271   7.960  10.705   4.922 -0.1781 -0.1036  0.2182
23463W        W39272   5.209  11.507  10.936 -0.0644 -0.2243 -0.0191
23464W        W39273  14.938   6.740   1.198  0.3963 -0.1296 -0.0117
23465W        W39274   7.968   6.668  15.174 -0.2817 -0.1592 -0.1177
23466W        W39275  15.493  10.425  10.877 -0.0157 -0.1310  0.3035
23467W        W39276   1.486  17.400   4.241 -0.0766  0.0936 -0.0794
23468W        W39277  18.058  12.714  13.284 -0.0467 -0.1553 -0.3443
23469W        W39278  15.042   4.283  16.363 -0.2152 -0.1799  0.1452
23470W        W39279   7.929  14.161   0.375 -0.1136 -0.1965 -0.2941
23471W        W39280  15.815   0.003   2.215  0.0284 -0.1307 -0.1099
23472W        W39281   7.682  16.169  11.245 -0.1835  0.2496  0.0010
23473W        W39282  17.224   8.568  10.948  0.0977  0.4016  0.0384
23474W        W39283  14.655  11.074  15.041 -0.0114  0.2585  0.1478
23475W        W39284   3.733   0.903   0.533 -0.2047  0.1338  0.0926
23476W        W39285   5.411   8.830  13.307 -0.2827  0.2114 -0.0939
23477W        W39286   6.933   0.657   1.111 -0.2515  0.2542  0.0268
23478W        W39287  14.902   5.785   4.077  0.2481 -0.1231 -0.1923
23479W        W39288  15.963  14.405   3.686 -0.4012 -0.1094  0.0634
23480W        W39289   9.637   8.468   4.429 -0.0420 -0.0589  0.1213
23481W        W39290  17.888   3.083   4.713  0.1910  0.3044 -0.2097
23482W        W39291  15.851   8.070   2.961  0.1116 -0.2504  0.0123
23483W        W39292  12.943   4.818   3.499  0.1897 -0.1428  0.0054
23484W        W39293  10.556  15.276  16.296 -0.0229 -0.3181  0.0867
23485W        W39294   6.737  12.789  15.508  0.0059 -0.0859 -0.0896
23486W        W39295  14.688  11.075   0.787  0.1377  0.2208  0.1236
23487W        W39296   0.041   5.960   4.506 -0.0450  0.0246  0.5361
23488W        W39297  13.158   2.350  13.791  0.0592  0.1152  0.0390
23489W        W39298   5.530  17.872   1.964 -0.1098 -0.0002  0.2014
23490W        W39299   0.008   7.608  12.317 -0.2246 -0.2439 -0.0074
23491W        W39300  14.343   3.256  11.013  0.2995  0.1904  0.2082
23492W        W39301   9.998   4.608  11.750  0.0134  0.0808  0.2309
23493W        W39302   1.130  17.410   5.093  0.1395  0.3842 -0.0799
23494W        W39303   2.211   8.508  13.630  0.0313  0.2516 -0.0968
23495W        W39304   4.775   4.121   0.391 -0.4464 -0.1946 -0.1918
23496W        W39305   6.807   2.569   4.402  0.0495 -0.1398  0.1238
23497W        W39306   0.778   4.453   0.309  0.1680  0.2721 -0.3743
23498W        W39307  17.614   8.121  13.283 -0.1015  0.0132 -0.0633
23499W        W39308  14.449   3.296   1.363  0.0421 -0.1905 -0.2792
23500W        W39309   5.562   2.955   4.964  0.0840  0.0637  0.1011
23501W        W39310   4.720  10.484   4.429 -0.0935  0.0293 -0.2155
23502W        W39311   1.043   3.617   3.268  0.0952 -0.1289  0.1078
23503W        W39312   7.217  12.772   4.762 -0.3097 -0.1406 -0.1244
23504W        W39313  16.178  15.979  12.939 -0.0422 -0.0016 -0.3285
23505W        W39314  16.817  15.716  13.239  0.0043  0.2312 -0.2154
23506W        W39315  10.789   8.656  12.249  0.1114 -0.1843  0.0251
23507W        W39316  15.777   5.727  11.205  0.1970 -0.0701 -0.2328
23508W        W39317  17.975   5.860   1.869  0.1387 -0.5545  0.0828
23509W        W39318  14.134   9.300  13.444 -0.0470 -0.2626  0.1494
23510W        W39319   9.911  10.593  11.888  0.1156  0.2459 -0.4383
23511W        W39320   3.056  11.759  13.057 -0.0813  0.0440  0.0805
23512W        W39321   9.426   4.177  13.043  0.0661 -0.0857  0.1635
23513W        W39322  14.362   2.075  15.443 -0.3129  0.3927  0.2959
23514W        W39323   8.167  11.394   5.100 -0.1306  0.0734 -0.1670
23515W        W39324  16.814   2.643  14.465  0.2268 -0.2709 -0.1441
23516W        W39325   9.912   5.866  11.425 -0.0702 -0.0400 -0.2932
23517W        W39326  18.042   8.113  16.156 -0.1854 -0.0631  0.0735
23518W        W39327  16.681   4.924   3.788 -0.0356  0.2420  0.0296
23519W        W39328  13.219  12.947   4.378 -0.1967 -0.0405 -0.0880
23520W        W39329  10.624  14.878   0.710 -0.0358 -0.1064  0.0477
23521W        W39330  12.115  11.372  13.797  0.0799 -0.0845 -0.2542
23522W        W39331  15.634   3.917   3.235  0.1709 -0.2120  0.1758
23523W        W39332  17.776  10.424  16.160  0.0777 -0.0180  0.0880
23524W        W39333   4.925   8.624   2.927  0.0679  0.0003 -0.2400
23525W        W39334   4.786   9.478   5.392  0.0590  0.2286  0.0598
23526W        W39335  14.529  11.244  14.000 -0.0387  0.1751  0.3849
23527W        W39336  11.492  16.206   5.433 -0.0344  0.0380  0.0806
23528W        W39337   9.865   6.163   4.170  0.1103 -0.1772 -0.0223
23529W        W39338   4.997   8.745   0.261 -0.0374 -0.3352  0.2646
23530W        W39339   6.960   9.704  15.122  0.3822  0.1477  0.1783
23531W        W39340  13.007   9.673   3.969  0.1255 -0.0514  0.0328
23532W        W39341   7.270  12.526  14.214  0.0939  0.1425  0.1566
23533W        W39342   7.438   6.564  13.338 -0.3766  0.0824 -0.0115
23534W        W39343   8.488  17.354  15.926 -0.1462  0.0110  0.1965
23535W        W39344   0.218   7.374   4.548  0.2361 -0.4348 -0.1096
23536W        W39345  17.818   7.219   3.389  0.2373  0.0572 -0.0654
23537W        W39346  16.052   9.689   1.066  0.2158  0.2326  0.2260
23538W        W39347   0.582   2.511  12.572  0.1651  0.0465  0.1219
23539W        W39348  10.182  12.320   4.502  0.0833 -0.1927  0.1211
23540W        W39349   3.849  10.051  13.039  0.1630 -0.4774  0.0083
23541W        W39350   4.496  15.575  12.278 -0.1216  0.5101 -0.0595
23542W        W39351  11.129   0.379  15.120 -0.0580 -0.1551  0.0775
23543W        W39352   7.367   3.154   0.800 -0.1810  0.1586  0.1572
23544W        W39353   1.855  11.337  13.773  0.0943 -0.2360 -0.3499
23545W        W39354  11.067  17.292   5.528 -0.0738  0.1756 -0.0767
23546W        W39355   0.256   0.626   0.837  0.0156 -0.0339 -0.0091
23547W        W39356   5.421   8.856   2.410 -0.1927 -0.2773  0.3009
23548W        W39357   1.790   7.412  12.369 -0.0976  0.1147 -0.0451
23549W        W39358  15.496   6.203   4.675 -0.2940  0.1806  0.1064
23550W        W39359  13.002   4.443   5.320 -0.3242 -0.0568 -0.0996
23551W        W39360  13.259  17.217  14.565 -0.1159 -0.0392  0.2635
23552W        W39361   4.140   2.986   4.247 -0.0659  0.2874  0.2422
23553W        W39362   3.580   3.259   3.951 -0.1774 -0.0483 -0.2282
23554W        W39363  11.766  16.712  14.489 -0.1912  0.2094 -0.0183
23555W        W39364   6.192   8.825  12.807 -0.2331 -0.0628 -0.1209
23556W        W39365  16.520   4.353  12.952  0.2266  0.4658  0.0756
23557W        W39366  10.371   3.149  16.114 -0.0674 -0.1704  0.2284
23558W        W39367  11.691   1.779  15.365 -0.0053  0.1924  0.1147
23559W        W39368   1.746  13.052   2.859  0.1597  0.1227  0.0004
23560W        W39369  13.779   1.790  12.512  0.1791  0.2896  0.0445
23561W        W39370   6.402  12.569   3.627  0.2640  0.2011  0.1949
23562W        W39371  15.040   2.738   0.796  0.1779  0.2272 -0.0124
23563W        W39372   1.040  11.221  15.230  0.0493 -0.2109 -0.0061
23564W        W39373  16.844  15.153   0.767 -0.2050 -0.0241  0.1278
23565W        W39374  14.411  10.371   5.378  0.1723  0.3471 -0.1389
23566W        W39375  11.692   6.615  15.854  0.1109 -0.0790  0.0126
23567W        W39376  14.551  13.785   4.969  0.0111 -0.0832  0.3618
23568W        W39377  10.155   0.083   0.753  0.3983  0.0060  0.0107
23569W        W39378   8.922  10.765   3.185 -0.1553  0.0725  0.2801
23570W        W39379   8.331   0.107  15.716 -0.1752  0.1742  0.1483
23571W        W39380  12.280  15.081   3.697  0.3849 -0.3699 -0.0806
23572W        W39381   2.748   2.896   5.548 -0.2144 -0.0805 -0.0300
23573W        W39382   3.692   0.638  15.901  0.0955 -0.0485 -0.1985
23574W        W39383  15.840   6.263  12.576 -0.1721  0.0814  0.0562
23575W        W39384   0.714   7.023  15.998  0.1751 -0.0234  0.1901
23576W        W39385   6.057   7.098  12.444  0.0443  0.2194  0.0950
23577W        W39386  14.879   4.921  13.628 -0.1882 -0.3776  0.1238
23578W        W39387   3.490   5.616   1.472 -0.1819  0.1679 -0.0952
23579W        W39388  11.962   5.577  11.235  0.3110 -0.0351  0.0061
23580W        W39389  12.588   7.001   2.290  0.2376  0.0581  0.4282
23581W        W39390   3.153  15.016  12.315  0.1430 -0.0727  0.2399
23582W        W39391   1.188   9.922   0.808 -0.0063  0.4173 -0.2927
23583W        W39392  17.437  10.793   1.868 -0.1529 -0.0594  0.2328
23584W        W39393  16.111   5.664  13.001  0.0717 -0.0635  0.2303
23585W        W39394   2.510  15.367  13.806  0.2343 -0.3100  0.1477
23586W        W39395   5.513  17.645   0.446  0.0939 -0.0393  0.1605
23587W        W39396   4.723  12.441   0.431  0.0272 -0.0334 -0.0119
23588W        W39397  11.888  17.937  14.252 -0.4177  0.1567 -0.1964
23589W        W39398  10.825  17.552  10.985 -0.1019  0.0346  0.0711
23590W        W39399   1.155  12.744  11.086 -0.0894 -0.1046 -0.3793
23591W        W39400  17.802  12.902  16.195  0.1303  0.2017  0.5553
23592W        W39401   0.838  15.093   3.281 -0.0091  0.0748 -0.0350
23593W        W39402   8.974  10.600   2.719 -0.0107  0.0927  0.0285
23594W        W39403  17.076   5.983   1.475 -0.1902 -0.0815 -0.1499
23595W        W39404  16.965   7.240  13.203  0.0781  0.1735 -0.2329
23596W        W39405   0.748  17.926   2.909  0.0883  0.2744  0.0419
23597W        W39406   7.470  14.060   3.907  0.0374 -0.0213  0.3359
23598W        W39407   6.274   6.688  14.939  0.1657 -0.1507 -0.0402
23599W        W39408   8.498  10.605  13.876 -0.0892  0.0145  0.0415
23600W        W39409  16.786   1.618  16.285 -0.1172 -0.1746 -0.2172
23601W        W39410   0.398  10.149  14.988 -0.0742  0.0321  0.1759
23602W        W39411  11.977   9.609  14.894  0.0626 -0.1834 -0.1645
23603W        W39412  10.898  13.408  11.468  0.0458  0.0701  0.1025
23604W        W39413   1.520   4.817  14.296  0.1348  0.0234  0.2625
23605W        W39414   3.504   1.279   6.014 -0.4637 -0.0400  0.0389
23606W        W39415  15.541   1.352   5.885  0.0445  0.0950  0.2390
23607W        W39416   8.289   0.158   0.335  0.2131  0.2390 -0.3938
23608W        W39417   7.614  12.617   1.366  0.1115  0.0355  0.0692
23609W        W39418   4.662   1.559   3.417 -0.1617 -0.2466  0.0021
23610W        W39419   5.479  11.540   4.087  0.0857  0.4658  0.0382
23611W        W39420  15.901   6.255   5.914  0.1699 -0.2081  0.2386
23612W        W39421  13.805   5.460   0.130  0.2076 -0.2804  0.2430
23613W        W39422   1.413   1.600  12.990  0.2336  0.0167  0.1806
23614W        W39423  16.558   6.710   1.762 -0.3069 -0.1076  0.0723
23615W        W39424   5.877  11.240  15.354 -0.4612 -0.0614 -0.3005
23616W        W39425   2.711  10.779  11.877 -0.0466 -0.2601 -0.4026
23617W        W39426  14.357   4.050   4.061 -0.0135  0.0258  0.3878
23618W        W39427  18.104  11.867   0.358 -0.0155  0.2211  0.2599
23619W        W39428  18.180   0.356   3.060  0.3197  0.2115 -0.1089
23620W        W39429   2.347  16.695  15.798 -0.0350  0.1266  0.0003
23621W        W39430  16.503   1.486  15.280 -0.0791  0.0031  0.0341
23622W        W39431   4.881  16.439  15.685 -0.2694  0.1797  0.1521
23623W        W39432   0.830   3.573  13.507 -0.2632  0.1270 -0.0909
23624W        W39433   5.238  12.090  11.626 -0.1060  0.3394  0.0594
23625W        W39434  10.141   9.410  10.881  0.1029 -0.0003  0.0755
23626W        W39435  12.928  13.981  12.228 -0.3226 -0.4043 -0.0084
23627W        W39436   4.528  17.156   3.355  0.1009  0.3335  0.0840
23628W        W39437   0.636   2.070   1.574 -0.1406  0.2071  0.4268
23629W        W39438  10.526   6.256   2.028 -0.0113 -0.1976 -0.1720
23630W        W39439   6.148  10.546   1.193 -0.6265 -0.0979 -0.4208
23631W        W39440  16.953  11.942   1.828  0.2985  0.3885 -0.0941
23632W        W39441   4.394  12.834   0.715 -0.1052  0.0244  0.2663
23633W        W39442  14.764  15.321  11.860  0.1991 -0.3049 -0.3742
23634W        W39443  15.860  11.267   0.452  0.0521  0.3358  0.0577
23635W        W39444  17.353   8.774   2.087  0.3097  0.1874 -0.0314
23636W        W39445   8.674   7.175   2.427  0.1633 -0.0160  0.0373
23637W        W39446  15.496  10.491   0.150  0.1059  0.0965 -0.0477
23638W        W39447  10.765   3.327  15.866 -0.1836  0.0369  0.2455
23639W        W39448  13.076   7.476   3.468 -0.4034 -0.1268  0.1272
23640W        W39449  14.861  17.976   4.798  0.0344 -0.1553  0.2694
23641W        W39450   8.728  11.338   5.234  0.1405  0.2711  0.0367
23642W        W39451  11.117   4.190   5.331 -0.2661  0.1663 -0.1363
23643W        W39452  11.346  13.060   2.334  0.1640 -0.0080 -0.0904
23644W        W39453  11.453  17.898  14.533  0.2215  0.4020  0.1781
23645W        W39454  10.959  16.817   3.460 -0.3505 -0.1393  0.0360
23646W        W39455   8.887   3.885   1.318 -0.0033  0.0918  0.0636
23647W        W39456  12.527   8.128  12.327  0.2712 -0.0307 -0.1495
23648W        W39457  11.345  15.594  16.098 -0.0955  0.2691 -0.3179
23649W        W39458   1.818   2.839   3.164  0.1887  0.0429  0.0022
23650W        W39459  15.402  10.001   5.412  0.2191 -0.3916  0.0628
23651W        W39460   8.336  16.220   1.500  0.0181  0.0760 -0.0207
23652W        W39461  12.871  11.424  14.862 -0.0401 -0.2143 -0.3570
23653W        W39462   7.042   1.598   2.215 -0.1138  0.2772  0.1365
23654W        W39463   3.587   3.246   5.456 -0.1413  0.0917 -0.0048
23655W        W39464  13.926  11.764   1.921 -0.1901 -0.3798 -0.2293
23656W        W39465   4.675  14.462  13.677 -0.0708 -0.1245  0.0108
23657W        W39466   4.555  17.741  14.788  0.3808  0.0386  0.0796
23658W        W39467  12.300   2.654  15.342 -0.2178 -0.2096  0.0054
23659W        W39468  14.059  11.351  15.620  0.0251  0.1922 -0.0676
23660W        W39469   9.862  12.622  12.400  0.3825 -0.2154  0.1044
23661W        W39470  17.721   8.748  15.963 -0.3002 -0.0106 -0.2389
23662W        W39471  18.065  11.624  12.177  0.0422  0.3436  0.1617
23663W        W39472   5.771   3.094   3.629  0.1607  0.1934 -0.0602
23664W        W39473   8.276   1.786   5.099 -0.3483  0.0707  0.3782
23665W        W39474   2.276  13.900   1.693 -0.0324 -0.2382  0.1887
23666W        W39475  10.565   4.547  11.456 -0.3082  0.3248  0.1905
23667W        W39476   6.128   4.709  10.940 -0.0024  0.0501 -0.2072
23668W        W39477   7.862  11.480   0.640  0.0984  0.3982 -0.1030
23669W        W39478   8.795   5.517  13.400 -0.2501 -0.0970 -0.1669
23670W        W39479  11.940  11.598  12.303  0.2432 -0.2737  0.2962
23671W        W39480   0.551   7.579   0.410 -0.0770  0.0978 -0.1689
23672W        W39481   3.757   0.359  12.665  0.1231 -0.3811 -0.2020
23673W        W39482  15.834   5.514   3.079 -0.0243 -0.1216 -0.1039
23674W        W39483  14.470  15.059   2.562 -0.2714 -0.0738  0.0087
23675W        W39484  17.826  15.675   3.405  0.1590  0.0476 -0.2968
23676W        W39485   8.543   6.865   4.689 -0.2112  0.1937 -0.2938
23677W        W39486   1.611  14.778   5.938  0.0832  0.0852 -0.0540
23678W        W39487  11.679   4.759   3.124  0.1504  0.1077 -0.4846
23679W        W39488   6.535   9.404   4.428  0.0478 -0.0698 -0.0326
23680W        W39489   5.893  10.741   4.451 -0.1542 -0.2331  0.0592
23681W        W39490   1.266   6.720   5.111  0.2426  0.0788 -0.0469
23682W        W39491   4.250   1.870   0.738  0.0146 -0.0478 -0.1459
23683W        W39492  12.067   7.416   4.508 -0.0704 -0.0794 -0.0991
23684W        W39493   8.999   6.433   0.035 -0.1106  0.0836  0.3120
23685W        W39494   2.998  17.436   6.126  0.0530 -0.0127 -0.2449
23686W        W39495   0.695   2.239  13.650  0.1794  0.0376 -0.0567
23687W        W39496   5.149  12.539  12.567  0.4790 -0.2208 -0.1740
23688W        W39497   1.478  11.272   2.343 -0.0387  0.1614  0.1456
23689W        W39498  15.802   1.613   3.577 -0.0174  0.1133 -0.1539
23690W        W39499   5.011   2.042  11.589 -0.1144  0.1562  0.1925
23691W        W39500   1.825  10.051   1.070  0.2543 -0.0668 -0.2314
23692W        W39501  17.535   1.985   4.155  0.1051 -0.2073 -0.1337
23693W        W39502   0.216   4.116  13.044 -0.1805 -0.4025 -0.1236
23694W        W39503   2.785  14.442   3.760  0.0631 -0.3320  0.1436
23695W        W39504   7.579  17.623   1.076 -0.1627  0.5012 -0.0001
23696W        W39505   3.310  12.710  12.962 -0.2938 -0.0574  0.0485
23697W        W39506  11.222   3.653  14.993  0.1063 -0.0847 -0.1498
23698W        W39507   0.590   0.621   1.425 -0.2039 -0.1722 -0.1773
23699W        W39508   8.373   4.625  14.011  0.1420 -0.3894 -0.1176
23700W        W39509   5.511   7.567  14.155  0.3748 -0.0028 -0.1846
23701W        W39510  13.454   1.167   4.415 -0.2471 -0.2006 -0.0608
23702W        W39511   0.094  16.950  12.175 -0.1828 -0.2365 -0.1138
23703W        W39512  12.598  14.770  11.080 -0.3794 -0.1746  0.1706
23704W        W39513   5.963   8.809   4.026  0.0688  0.2032 -0.0797
23705W        W39514   3.190  11.872  15.351  0.1570 -0.2859  0.0960
23706W        W39515   5.064  13.944   2.382  0.2700 -0.1542 -0.0909
23707W        W39516  14.735  14.428  14.277 -0.2324  0.0440 -0.0450
23708W        W39517   8.582   1.318  11.259  0.0058  0.0457  0.0793
23709W        W39518   0.602   2.037   5.385  0.0613  0.0034 -0.1205
23710W        W39519   7.717   9.128  11.868  0.1795  0.1701 -0.1787
23711W        W39520   1.407   6.778  13.713 -0.1558 -0.1618 -0.0347
23712W        W39521   8.911   4.405  15.875  0.0253 -0.0788 -0.0165
23713W        W39522   7.296  17.754   3.101  0.0449 -0.0289  0.2461
23714W        W39523  14.124  14.648   0.600  0.5305 -0.1034 -0.1563
23715W        W39524   5.618  15.681   5.649 -0.3341  0.0856 -0.1886
23716W        W39525  14.043  11.989  15.632  0.0584  0.1364  0.1906
23717W        W39526  10.471  16.658   5.868 -0.1173 -0.0721 -0.3009
23718W        W39527  11.016  17.511  15.182  0.0207 -0.1190  0.1141
23719W        W39528  10.822  16.882   0.316  0.5318 -0.1338 -0.2587
23720W        W39529  18.209   3.228   5.037 -0.0711  0.2028 -0.1275
23721W        W39530  17.154  13.232  14.687  0.5804  0.1794  0.0853
23722W        W39531   4.943  14.084  13.399 -0.1057 -0.4163  0.0944
23723W        W39532   0.651  11.526  13.442  0.0279  0.0725 -0.0115
23724W        W39533  12.393  12.101   0.988 -0.2288  0.3134 -0.1449
23725W        W39534  15.446   5.509  15.769  0.2123 -0.2585 -0.3964
23726W        W39535   3.167   2.940   5.240  0.1546 -0.0591  0.1167
23727W        W39536  14.166  17.036   0.255  0.3941 -0.3470  0.1269
23728W        W39537   4.884   6.532  11.659 -0.0557 -0.1466  0.2319
23729W        W39538   5.344   3.809   3.267 -0.1907 -0.0810 -0.2768
23730W        W39539   1.402   7.153   3.356 -0.0748  0.2292  0.1088
23731W        W39540  17.699  16.011  11.367 -0.3142  0.4166 -0.1468
23732W        W39541   2.129  17.653  14.973  0.2268  0.1530 -0.2991
23733W        W39542  12.911   3.119  11.587 -0.1454  0.0562  0.1031
23734W        W39543  15.733   5.115  15.545 -0.1286 -0.2060  0.1141
23735W        W39544   9.921   1.594   1.604  0.0587  0.2475 -0.1205
23736W        W39545   7.458   9.553  12.263 -0.0123  0.1872  0.0105
23737W        W39546   5.751   6.854  10.727 -0.2890  0.3688  0.3412
23738W        W39547  11.514   6.807   5.131 -0.2072 -0.0912 -0.1393
23739W        W39548   9.572   3.354  12.324  0.1445  0.1522  0.2416
23740W        W39549  13.698  17.777  11.546 -0.0130 -0.0246  0.4457
23741W        W39550   1.679   3.005   3.632 -0.0147  0.2294  0.2576
23742W        W39551   7.865  17.003   3.101 -0.2341  0.1423  0.1548
23743W        W39552  10.494  11.252   1.709  0.1385 -0.0147  0.2418
23744W        W39553   2.646  11.676   1.379  0.1480  0.3769 -0.0171
23745W        W39554  14.966  17.940   2.440  0.0564  0.1856 -0.3723
23746W        W39555   6.237  11.325  13.070 -0.1742 -0.0554 -0.2008
23747W        W39556   9.650   2.455  15.804 -0.1028  0.1996  0.0328
23748W        W39557   4.397   5.953  12.239 -0.0727 -0.1789  0.1917
23749W        W39558   8.895   0.673   4.895 -0.4212 -0.0737 -0.2481
23750W        W39559   5.411   7.868   4.122 -0.0546 -0.2930 -0.2444
23751W        W39560  14.759   8.529  14.284 -0.0168  0.2903  0.0284
23752W        W39561   5.661  18.034   5.900 -0.0201 -0.0601  0.0575
23753W        W39562  10.269   2.481  13.878 -0.2372 -0.0841 -0.0614
23754W        W39563  16.961   6.694   4.471  0.0309  0.0513  0.1384
23755W        W39564   1.281   1.047  15.342  0.1235  0.1765  0.0770
23756W        W39565   7.120   1.509   4.418 -0.1250  0.0958 -0.0207
23757W        W39566   3.075  16.800  11.947  0.1476  0.1887 -0.1678
23758W        W39567  10.712   0.834  14.958  0.3138  0.2088  0.4245
23759W        W39568   4.127   9.687  10.881 -0.1041  0.0734  0.2501
23760W        W39569  16.734   5.980   2.471 -0.2710 -0.0025 -0.1712
23761W        W39570   9.206  10.767  14.488  0.1470 -0.2136  0.0812
23762W        W39571   6.721  13.736   4.621  0.0053 -0.1346 -0.1879
23763W        W39572   3.101   3.105   3.275 -0.2285  0.0251  0.3093
23764W        W39573   7.841  16.831  15.883 -0.1467  0.0027  0.0993
23765W        W39574   0.768   3.694   1.159  0.4094  0.0794 -0.0379
23766W        W39575   4.826   7.926   6.304  0.0334 -0.0675 -0.2148
23767W        W39576   9.832  11.434   0.092  0.0827  0.1227 -0.1789
23768W        W39577   5.079   4.792   1.023  0.0129  0.1632 -0.0366
23769W        W39578   6.900  15.576   6.067 -0.1194  0.1511 -0.0018
23770W        W39579  15.622   2.666   3.746  0.1940 -0.1622  0.1176
23771W        W39580   0.952   2.126   0.363 -0.2327  0.1447 -0.2149
23772W        W39581   6.742   1.763  14.135  0.1378 -0.0819  0.1135
23773W        W39582   4.914  13.299   5.085  0.1352 -0.1331  0.0397
23774W        W39583  11.578   6.187   0.289 -0.1357 -0.1742 -0.2480
23775W        W39584   1.741   9.663  15.153 -0.4523  0.1530  0.1045
23776W        W39585   8.611   4.524  11.570  0.0138 -0.1666  0.1699
23777W        W39586   5.053  13.575   2.743  0.3298  0.0320 -0.0119
23778W        W39587   1.763  16.278  14.570 -0.2665 -0.0177  0.0550
23779W        W39588   2.209   1.699  15.792 -0.1440  0.1383  0.2453
23780W        W39589   0.673  10.611   4.327 -0.1652 -0.1081 -0.2232
23781W        W39590   1.378  14.234  14.253 -0.1701  0.2628  0.3578
23782W        W39591  10.055  13.697   3.995  0.1246 -0.1657 -0.1309
23783W        W39592   3.666  11.554   1.777  0.0447  0.0999 -0.1639
23784W        W39593   1.242  10.665   2.845 -0.2104  0.0210  0.2979
23785W        W39594  16.308  15.104  11.808 -0.1403  0.0028 -0.2888
23786W        W39595  11.803   7.977   2.355  0.0291 -0.0273 -0.2051
23787W        W39596  14.843   8.022  11.807 -0.0445  0.1852 -0.1209
23788W        W39597   7.855  14.223   2.531  0.1064  0.0108 -0.0396
23789W        W39598   5.009  17.640  13.709  0.0538  0.0662  0.1880
23790W        W39599   6.661   7.956  11.632 -0.0285  0.0065 -0.0473
23791W        W39600   1.563  16.282   3.724 -0.0813 -0.0213 -0.0509
23792W        W39601   6.060   5.974   2.935 -0.1982  0.1205 -0.0943
23793W        W39602   6.301  11.733   3.333  0.0808  0.2275 -0.2737
23794W        W39603   4.455  15.117   4.530 -0.3018  0.4612  0.0417
23795W        W39604   1.770   1.580   5.823  0.3684 -0.1127  0.1458
23796W        W39605  13.017  16.874   4.433 -0.0425  0.1204 -0.2024
23797W        W39606  12.673  17.827  13.995  0.3038 -0.0666 -0.1275
23798W        W39607   3.923  16.759  13.866  0.1700  0.0366  0.0106
23799W        W39608   4.561   9.986   4.423 -0.0767 -0.0219  0.2500
23800W        W39609  11.756   6.629  13.117  0.1856 -0.3623 -0.0715
23801W        W39610  12.592   6.439  13.644  0.2066  0.0926  0.2464
23802W        W39611  11.076   7.885  13.636 -0.0119  0.0056 -0.2787
23803W        W39612  15.684  17.864  12.477 -0.3428 -0.1232  0.0477
23804W        W39613   0.679   5.834   2.043 -0.1416  0.0068 -0.0142
23805W        W39614  14.854   0.402   4.207  0.0696 -0.2265  0.0470
23806W        W39615   2.954   6.810   0.678 -0.2305  0.0212 -0.3860
23807W        W39616   6.877   6.348   5.359 -0.2459 -0.2501 -0.0218
23808W        W39617  16.030  13.166  16.209 -0.3401  0.2274 -0.0813
23809W        W39618  17.130  14.693   0.820 -0.1280 -0.0537  0.1068
23810W        W39619   4.620   5.568  11.235 -0.0972  0.1402  0.0086
23811W        W39620  17.975  13.474  14.633  0.0483  0.1033  0.0478
23812W        W39621   4.662  10.576  11.882  0.0549  0.0539  0.1995
23813W        W39622  11.908  14.059   2.095  0.2233 -0.1017 -0.1877
23814W        W39623   8.190   6.943   4.298  0.0125  0.0183 -0.0016
23815W        W39624  15.510   8.824   2.863 -0.0586 -0.0158 -0.0701
23816W        W39625  13.156   6.949  12.164  0.4800 -0.0305  0.3358
23817W        W39626   0.684  13.668   5.057 -0.3612 -0.1833  0.0091
23818W        W39627  14.175  14.657  11.500 -0.1859  0.2677 -0.1867
23819W        W39628  15.914  10.760  10.294 -0.0535  0.1652  0.0293
23820W        W39629  16.118   9.092  11.951  0.0441  0.2946 -0.0010
23821W        W39630   1.157  11.307   0.372 -0.1063  0.0733 -0.0487
23822W        W39631   9.309  11.028  15.843  0.2015 -0.0228  0.1228
23823W        W39632   7.742  12.313   0.357 -0.1334  0.0862 -0.0681
23824W        W39633   7.054   4.950  15.101 -0.1282  0.0201 -0.0004
23825W        W39634  12.232   3.817   0.862 -0.0586 -0.1701  0.1151
23826W        W39635   5.302  12.507  16.143  0.2992  0.1497 -0.3379
23827W        W39636   3.514   6.839   2.348 -0.2115 -0.2356 -0.0157
23828W        W39637   1.487   5.163  11.683  0.2569 -0.0111  0.2566
23829W        W39638   1.312   9.431  13.512  0.1092 -0.0893  0.3104
23830W        W39639   4.414   6.543  11.535  0.0547 -0.2198  0.0707
23831W        W39640  12.113  17.521  14.646 -0.2053  0.2199  0.0882
23832W        W39641   9.722  14.392   4.107  0.0721 -0.1632  0.1092
23833W        W39642   3.929   8.675  12.205  0.0484  0.1241 -0.1944
23834W        W39643  12.960  15.963  15.124  0.1066 -0.0359 -0.1459
23835W        W39644  14.240  15.021  13.792 -0.5007  0.0290  0.2561
23836W        W39645  12.457  17.549   1.397  0.0820 -0.0510 -0.2579
23837W        W39646  17.098   6.946   4.866 -0.1084 -0.2147 -0.1083
23838W        W39647  10.561  16.612   0.724  0.0348  0.0596 -0.0646
23839W        W39648  16.070  18.056  15.548  0.1573  0.0475  0.0408
23840W        W39649   6.028  14.507  10.301  0.0571  0.0377  0.2831
23841W        W39650   8.762   4.942   2.722 -0.4060 -0.0681  0.1283
23842W        W39651  17.815  14.237   1.264  0.0087  0.0714  0.0937
23843W        W39652  13.458   2.430   1.028  0.0878 -0.3070 -0.4203
23844W        W39653   1.684   6.663  13.140  0.1519 -0.0518  0.2981
23845W        W39654   9.054   1.751   2.704  0.2009  0.1976  0.1987
23846W        W39655   3.788  11.058  12.834 -0.0870  0.0179 -0.0422
23847W        W39656   7.279   4.055  13.146  0.0798  0.0803  0.1365
23848W        W39657  17.203   8.380   3.564 -0.0709  0.0611  0.1865
23849W        W39658   9.775   8.212   2.166 -0.0176 -0.0733  0.1979
23850W        W39659  17.706  17.921  11.276 -0.1890  0.0443  0.0182
23851W        W39660  17.433  14.822  14.171  0.2497  0.3126  0.2091
23852W        W39661   9.171   0.627   3.458 -0.0401 -0.3020 -0.0803
23853W        W39662  14.026   1.233  13.347  0.0483 -0.2245  0.1477
23854W        W39663   0.466  12.664  14.037  0.0922 -0.2527  0.1070
23855W        W39664  14.547   5.564   2.176  0.0353 -0.3595 -0.0654
23856W        W39665   0.703   6.055   3.749 -0.0447  0.1416  0.1107
23857W        W39666   4.542  17.702  11.940  0.1976  0.0705 -0.2425
23858W        W39667  10.760  12.498   3.577  0.3174  0.1364 -0.1137
23859W        W39668   4.039   2.762  12.598 -0.0467  0.0262  0.1214
23860W        W39669   5.498   7.698   3.609  0.1540  0.0012  0.1947
23861W        W39670   8.825   6.953  15.601 -0.0689  0.2814  0.0870
23862W        W39671   9.752   5.991  14.264 -0.3509  0.1534 -0.0283
23863W        W39672  15.547   7.525  11.946 -0.0191 -0.4442 -0.1091
23864W        W39673  11.730   2.474  14.102  0.0538 -0.1827 -0.1906
23865W        W39674  13.372  11.556  16.135 -0.1674  0.3380  0.1410
23866W        W39675   1.612  17.388   2.487  0.1353 -0.1893 -0.0542
23867W        W39676  12.493   6.274   5.041 -0.1489 -0.1652  0.1910
23868W        W39677  11.613   2.986  14.969 -0.1647  0.0257 -0.1706
23869W        W39678   2.714   3.240  11.585  0.2445 -0.1547 -0.0284
23870W        W39679   2.814  11.189   1.421 -0.0292 -0.0411 -0.0615
23871W        W39680  14.849  15.913   3.500  0.1028  0.0878  0.0269
23872W        W39681  14.066   9.841   4.755  0.0407 -0.2003 -0.2229
23873W        W39682  13.739  11.933   1.403  0.1090  0.2718 -0.0330
23874W        W39683   0.943  13.287   5.263  0.0974  0.0291 -0.0625
23875W        W39684   7.565  16.132  12.933  0.0711 -0.1151 -0.0956
23876W        W39685  10.511   2.248  10.644 -0.1715 -0.0313 -0.0173
23877W        W39686  13.604  13.504  13.248  0.3924 -0.0797 -0.0066
23878W        W39687  14.070   3.271  13.751  0.0265 -0.1185  0.4546
23879W        W39688  12.628  13.424  11.373  0.1769 -0.0066  0.0806
23880W        W39689   2.901  15.869   1.974  0.1574 -0.2097 -0.0766
23881W        W39690  12.805   2.902  13.367  0.3316  0.0257  0.0079
23882W        W39691   7.209  11.674  15.514  0.1059  0.1048  0.0570
23883W        W39692  11.590   0.402  15.338 -0.3630  0.0651  0.0347
23884W        W39693  13.512   0.299  12.009 -0.0197  0.0905 -0.1514
23885W        W39694  16.544  13.171  15.466 -0.0315  0.3196  0.1220
23886W        W39695   6.950   8.570   0.326 -0.0910 -0.0043 -0.1364
23887W        W39696   7.741  13.588   2.154  0.0845  0.3096  0.2037
23888W        W39697   9.343   3.303  11.845 -0.1720 -0.1014 -0.1571
23889W        W39698   5.266   9.121  12.463 -0.0938  0.1579  0.0834
23890W        W39699  15.067  14.101  11.578 -0.1110  0.2849 -0.0851
23891W        W39700   1.523  13.354  15.636  0.0258  0.1685 -0.0702
23892W        W39701   9.221  10.371  12.755 -0.0211  0.2081 -0.0883
23893W        W39702   5.953   4.572   4.967 -0.1437  0.3324  0.0038
23894W        W39703  14.565   9.645  13.450 -0.2064 -0.3239 -0.0196
23895W        W39704   5.892  15.943  14.929 -0.2307 -0.1322  0.0136
23896W        W39705  16.713   5.725  15.366  0.0758 -0.2616  0.0435
23897W        W39706   9.990   8.293   0.842 -0.3574 -0.1881 -0.0579
23898W        W39707   8.349   0.678  12.314 -0.0518 -0.0015  0.2156
23899W        W39708  16.403  14.066   0.530  0.2002  0.0609  0.0887
23900W        W39709  15.783  17.095   0.797  0.2625  0.0701  0.3392
23901W        W39710   7.894   6.300  14.833 -0.1227  0.5817 -0.1723
23902W        W39711   4.568   4.875  14.445 -0.0236  0.0375 -0.0759
23903W        W39712  13.032   6.859   2.656 -0.1455 -0.1500  0.2551
23904W        W39713   7.842  13.493  15.211 -0.1653  0.1402  0.4242
23905W        W39714   9.737   7.746   1.830 -0.0186  0.2614  0.3839
23906W        W39715  16.548   9.995  15.623  0.0598 -0.1212  0.3471
23907W        W39716   4.106  14.051   2.607 -0.0430  0.2136 -0.0965
23908W        W39717   3.858  10.556   0.383  0.0043 -0.3438  0.0479
23909W        W39718   9.021  13.046   3.688  0.0856 -0.1937  0.0149
23910W        W39719   9.510   1.867  12.593 -0.1082  0.0512  0.0897
23911W        W39720  17.551   5.179   4.222  0.0592  0.1101 -0.0843
23912W        W39721   4.844   1.931   3.792 -0.1943  0.2391 -0.2411
23913W        W39722  10.761  11.938  14.106  0.0919  0.0805  0.0576
23914W        W39723  15.286  17.424  14.474  0.2300  0.0115 -0.0026
23915W        W39724   3.559   7.208   3.627 -0.0665  0.0002 -0.0463
23916W        W39725   6.306   6.682  12.214  0.0052 -0.0089 -0.1270
23917W        W39726   9.526  17.060  15.404  0.0941  0.2352  0.2242
23918W        W39727   7.406   1.390   1.316  0.1434 -0.0229  0.0181
23919W        W39728   1.095  17.806   2.514 -0.1225  0.3987  0.0991
23920W        W39729  17.284  10.660  11.957 -0.1794 -0.2783 -0.2170
23921W        W39730  17.756  17.327   5.947  0.1103  0.0219 -0.1844
23922W        W39731   9.764  15.469   3.563 -0.0171  0.2750 -0.1665
23923W        W39732  12.264   0.804   4.747  0.2351  0.1388  0.1695
23924W        W39733   0.635   2.460   0.094 -0.0364  0.3524  0.2624
23925W        W39734  17.326  14.629  15.094 -0.1327  0.1863 -0.0604
23926W        W39735   0.835  11.881  13.722 -0.1193  0.3264 -0.2374
23927W        W39736  13.157  11.220  10.866  0.5021 -0.1539 -0.0024
23928W        W39737   1.395  14.121   5.426  0.1349 -0.1808 -0.1127
23929W        W39738   2.427  13.610   4.765  0.1753  0.1642  0.0369
23930W        W39739  13.428  16.104  14.372  0.3485 -0.1005 -0.0013
23931W        W39740   2.453  18.005   2.672  0.0193 -0.0180  0.2823
23932W        W39741   7.813   0.538  11.532  0.2578  0.0759  0.1583
23933W        W39742  17.706  14.290  13.806  0.0971  0.0248  0.0671
23934W        W39743  11.254   7.928  13.174  0.2517  0.5624  0.0137
23935W        W39744   1.829   9.092  15.901 -0.1628  0.0921  0.0031
23936W        W39745   7.021  12.127  14.356  0.2056  0.1196  0.1580
23937W        W39746   0.527  10.120  12.556  0.0442 -0.1700 -0.2118
23938W        W39747  17.502   3.018  14.029  0.1271 -0.2331  0.0319
23939W        W39748  10.287   7.350  14.471  0.1570 -0.1931 -0.0959
23940W        W39749   5.357  12.403  11.234 -0.0378  0.3650 -0.1490
23941W        W39750  14.735  18.127  13.480 -0.0127  0.0802  0.0176
23942W        W39751  16.026   0.933  14.576 -0.0312 -0.0458 -0.1753
23943W        W39752   6.771  13.473  11.686  0.1937  0.0988 -0.0692
23944W        W39753   3.285  10.938  14.487  0.0986  0.0112  0.0124
23945W        W39754  13.049  10.108  12.286 -0.1107 -0.0927 -0.2251
23946W        W39755   2.113  16.573  12.127  0.0435  0.0084 -0.0435
23947W        W39756  12.264   1.734   4.549 -0.0855 -0.1529 -0.0905
23948W        W39757   3.581  17.951   4.589  0.3607 -0.0388 -0.2114
23949W        W39758   6.419   7.053  13.500  0.6547 -0.0017  0.0809
23950W        W39759   1.158   6.853  16.082 -0.0482 -0.0341 -0.2736
23951W        W39760  17.958   3.376  13.354 -0.0301  0.1093 -0.0177
23952W        W39761   1.912  18.020  12.683 -0.0663 -0.0117 -0.0016
23953W        W39762  16.709   0.897   5.533 -0.4037  0.3207 -0.1652
23954W        W39763  11.623   6.863   0.003 -0.0886  0.1998 -0.3679
23955W        W39764   8.934  11.222   0.757  0.1999 -0.1650 -0.0997
23956W        W39765  13.660  10.586  11.157 -0.0152 -0.0201  0.0297
23957W        W39766  17.415  14.083   1.961  0.0713 -0.0985 -0.1261
23958W        W39767   9.475  12.768   2.008  0.0580  0.1445  0.2755
23959W        W39768   1.969   6.879   5.384  0.1227 -0.0089  0.3161
23960W        W39769   2.501   9.670   2.810  0.1124  0.1280 -0.0810
23961W        W39770   0.880   2.762   5.870 -0.3311  0.0571 -0.1005
23962W        W39771  12.948   5.896   3.387 -0.3218 -0.3304  0.2299
23963W        W39772   7.775   2.967   2.926 -0.0812 -0.2775  0.2200
23964W        W39773  17.892   2.451   1.222  0.0030  0.0694  0.0820
23965W        W39774   0.910   0.941  14.419 -0.0913  0.4864 -0.1074
23966W        W39775   7.926  13.837   5.604  0.2703 -0.0107  0.3039
23967W        W39776   4.209  16.775  13.111 -0.0260  0.0999 -0.0041
23968W        W39777   9.035  15.015   0.638  0.1566 -0.0316  0.2198
23969W        W39778  16.043   6.810  14.077 -0.1317 -0.1357  0.1108
23970W        W39779  15.139   7.196  12.133 -0.2833  0.0887 -0.3798
23971W        W39780  16.448  16.232   0.887  0.0485  0.0582  0.0562
23972W        W39781   6.821  16.303  14.421  0.0203 -0.1893  0.1852
23973W        W39782  17.107   1.047  14.258  0.5891  0.2682  0.0980
23974W        W39783  13.886   0.973   0.432  0.2338  0.1683  0.0156
23975W        W39784   0.386   3.856   0.401 -0.1557  0.2457 -0.3198
23976W        W39785  18.197  16.293   4.067 -0.2756  0.5269 -0.0620
23977W        W39786   5.814   3.503  12.227  0.1678 -0.1052  0.2645
23978W        W39787   9.753   0.504  15.208  0.0124  0.1534  0.0080
23979W        W39788   1.813   1.448  16.125 -0.0146 -0.1886  0.0177
23980W        W39789   6.957  10.307   3.656  0.1180  0.2188  0.3930
23981W        W39790  14.317   1.147   1.626  0.2503  0.2602 -0.1841
23982W        W39791   6.700  13.929   3.000  0.4714 -0.0193 -0.3009
23983W        W39792   0.452  11.429  14.619  0.1501 -0.3876 -0.2692
23984W        W39793  11.800  15.017  16.075 -0.0451 -0.0951  0.2958
23985W        W39794   0.792  17.365   1.646 -0.0281 -0.1509 -0.0503
23986W        W39795   1.526   4.365   0.922 -0.2538 -0.0254  0.2371
23987W        W39796   4.159   9.871  14.578 -0.1915  0.1841  0.0440
23988W        W39797  13.867   2.660  11.474  0.2249  0.0855  0.3765
23989W        W39798   7.159  11.406  15.953 -0.2908 -0.0409  0.1619
23990W        W39799   2.313  16.416  11.651  0.0728 -0.0645  0.1403
23991W        W39800   4.159   0.217   9.889  0.2733 -0.0908 -0.1873
23992W        W39801  11.960  16.403  14.014 -0.1064  0.3056 -0.0488
23993W        W39802  18.106   6.694  11.517 -0.1371 -0.0737  0.1408
23994W        W39803   0.750   2.192   2.074  0.2915 -0.1040  0.4923
23995W        W39804   2.027  17.414  12.093 -0.1070  0.1507 -0.0302
23996W        W39805   1.042   5.116  11.928 -0.0750  0.2242 -0.2893
23997W        W39806  11.759   4.569   0.045  0.1335  0.0432  0.0968
23998W        W39807  17.870  11.896  10.700  0.3232  0.0903  0.3925
23999W        W39808   6.100  12.653   1.780  0.0598 -0.2126  0.0175
24000W        W39809  15.635  13.707  13.508  0.1026  0.0904  0.0831
24001W        W39810  14.509   9.584   4.760 -0.0713  0.0976  0.0122
24002W        W39811   3.187  12.042   3.345 -0.0231 -0.2329 -0.0048
24003W        W39812  17.239  17.493   2.990  0.1302 -0.1235  0.1743
24004W        W39813   7.799  12.991   1.941  0.0794 -0.0446  0.1891
24005W        W39814  10.694  11.516   1.272  0.4520 -0.0272 -0.2329
24006W        W39815  17.822  12.105  14.773 -0.2092  0.2153  0.0618
24007W        W39816   3.599  17.355  15.220 -0.0549 -0.6757  0.0142
24008W        W39817   3.935  17.008  15.240 -0.0718 -0.3032  0.0655
24009W        W39818   6.558  16.925  11.549 -0.1810  0.0051 -0.6112
24010W        W39819   7.264  15.818   3.245 -0.2187  0.2182  0.2183
24011W        W39820   2.223   3.332  11.806  0.1266 -0.3328  0.2236
24012W        W39821   3.854  15.826   1.111  0.2112  0.0657 -0.2057
24013W        W39822   6.578  14.622   2.299 -0.1804 -0.2484 -0.1624
24014W        W39823  12.077   0.034  11.602 -0.0156 -0.0367 -0.1490
24015W        W39824  18.023   4.752   5.872 -0.1472  0.0427 -0.1158
24016W        W39825  13.825  11.282  11.592  0.0365  0.0052  0.0348
24017W        W39826  18.191   2.254  16.281 -0.0964 -0.1260 -0.2046
24018W        W39827   7.381   2.702   2.776  0.1053  0.2480  0.1446
24019W        W39828  16.822  16.164   4.498  0.2123 -0.0057  0.1542
24020W        W39829  15.129  13.660  13.592  0.0657  0.0259  0.0674
24021W        W39830   0.698   4.933   2.204  0.0194 -0.1005 -0.0136
24022W        W39831  17.737  10.537   0.296  0.0199  0.1651  0.0017
24023W        W39832  10.081   8.634   0.026  0.0802  0.2407  0.0765
24024W        W39833  18.105  12.591  11.945 -0.0600 -0.1262  0.0224
24025W        W39834  10.702  11.548   4.311 -0.0345  0.2438  0.1545
24026W        W39835  17.305   0.828  16.329 -0.2770 -0.1352 -0.0938
24027W        W39836   8.127   0.798  15.862  0.2776  0.3006 -0.3548
24028W        W39837  13.516  11.566   4.889 -0.0569 -0.2050  0.1444
24029W        W39838  14.968  15.194   2.390 -0.1000 -0.1013  0.0008
24030W        W39839   0.969   9.064  15.355 -0.1873 -0.0956  0.2010
24031W        W39840  17.926  15.371   2.613  0.0951 -0.1920  0.2498
24032W        W39841  12.047   6.811  16.195  0.1321  0.0559  0.0443
24033W        W39842  10.976  14.645  12.635 -0.2028  0.1850  0.1694
24034W        W39843   4.637   2.448   4.160 -0.1842  0.0207 -0.2531
24035W        W39844   6.331   7.125  11.472 -0.1240  0.3184  0.0013
24036W        W39845  11.149  17.805   5.724 -0.0480 -0.3330  0.0741
24037W        W39846   5.410  16.393   1.833 -0.1492 -0.2058 -0.1027
24038W        W39847   6.105  10.406   1.789 -0.1509  0.0142 -0.1993
24039W        W39848  11.869   6.728  13.680 -0.0053 -0.0265 -0.3413
24040W        W39849   3.413  16.082  13.096 -0.2277  0.0864  0.2247
24041W        W39850   9.978  10.831  12.788 -0.0095 -0.0247  0.0917
24042W        W39851  16.071   9.141   5.008  0.3673  0.1054  0.0432
24043W        W39852  10.236   4.734  15.820  0.2847  0.0411  0.0343
24044W        W39853  14.872   8.465   5.831 -0.5627  0.2247  0.1191
24045W        W39854   7.159   6.798   2.845  0.1885  0.2355 -0.2553
24046W        W39855  15.695   6.345   3.754  0.0390  0.2714  0.0111
24047W        W39856   2.698  11.235   5.537 -0.0545 -0.1209 -0.0791
24048W        W39857  10.039  15.776   5.809 -0.1561  0.0264  0.0805
24049W        W39858  16.823  11.338  12.939 -0.2110 -0.1214  0.1095
24050W        W39859  12.136   8.257   3.549  0.0220 -0.0686 -0.0486
24051W        W39860  16.594   5.330  12.044 -0.0403 -0.0023  0.0483
24052W        W39861   9.027  18.166  15.055  0.0247 -0.1046 -0.3488
24053W        W39862   1.764   6.265   2.223  0.1356 -0.2871  0.0199
24054W        W39863   4.269   3.324   2.373  0.1895  0.0588  0.2515
24055W        W39864  12.976   1.563   2.939 -0.0159 -0.0700  0.1495
24056W        W39865  15.008  12.353   4.333  0.0252 -0.3596  0.0089
24057W        W39866  14.635  18.036   5.711 -0.1710  0.1036  0.2021
24058W        W39867   3.985  12.594  11.321  0.2674  0.1141  0.1613
24059W        W39868  12.148   1.560  14.381 -0.3082 -0.3162 -0.3584
24060W        W39869  13.213  11.903  15.653  0.2426  0.0454 -0.0265
24061W        W39870  14.864  15.988  11.421  0.1110 -0.1199  0.1364
24062W        W39871  12.803   9.436   4.963  0.0474  0.0225 -0.2664
24063W        W39872  10.618  17.428  12.274 -0.0477  0.0746  0.0735
24064W        W39873   2.629  10.838  11.205 -0.4178  0.0602  0.1734
24065W        W39874   4.774   8.976  12.283  0.1120  0.2733  0.0729
24066W        W39875   6.902  13.893  15.259 -0.1545  0.1601 -0.0209
24067W        W39876   2.835  11.152   2.102  0.0980  0.0780  0.0432
24068W        W39877  18.029  10.450   6.231  0.1321 -0.3238 -0.3185
24069W        W39878   5.680  12.174  11.508  0.1975  0.0652 -0.3924
24070W        W39879  10.426   5.892  10.602  0.1930  0.0716  0.1469
24071W        W39880   9.518   7.357  15.578 -0.1636  0.1925  0.3938
24072W        W39881   8.699   5.500  12.880 -0.1625 -0.2030  0.3021
24073W        W39882  14.502   5.380  15.867  0.1752  0.1031  0.1153
24074W        W39883   8.999  12.596  13.797  0.2487 -0.3905 -0.3867
24075W        W39884  14.771  18.016  14.526  0.0469  0.0396  0.3419
24076W        W39885  14.537   3.233   3.302  0.2571  0.0850 -0.3198
24077W        W39886  10.044   6.472   5.666  0.0177 -0.2092  0.1044
24078W        W39887   7.311   4.565   3.691 -0.0341 -0.0975  0.1014
24079W        W39888   8.175   0.037   2.821 -0.0963  0.1886  0.2157
24080W        W39889   9.937   3.103  10.573  0.0080 -0.0863  0.2975
24081W        W39890  15.380   4.252  16.003  0.1203 -0.0130 -0.1160
24082W        W39891   1.508  14.631   5.357  0.1590 -0.0100  0.3379
24083W        W39892   4.671   3.703  13.193 -0.0541  0.2248 -0.0521
24084W        W39893   7.590   4.600   4.093  0.1496  0.5542 -0.0275
24085W        W39894  15.232   4.631   0.267  0.1969  0.0870 -0.3260
24086W        W39895   7.128  13.463   2.550  0.2069  0.1017 -0.1520
24087W        W39896   9.415   9.900   1.543  0.0378 -0.1489  0.1734
24088W        W39897  10.810  17.877  12.087  0.0725 -0.2431 -0.1594
24089W        W39898  15.725  11.017   3.139 -0.1520 -0.0148  0.0902
24090W        W39899  14.005   2.872  15.109  0.1100  0.0198  0.0605
24091W        W39900   5.618   6.866  11.582 -0.1514  0.0536  0.0690
24092W        W39901  13.949  10.892   0.583  0.1832 -0.1673 -0.2075
24093W        W39902   5.921  12.265   1.200  0.0590 -0.1208  0.0712
24094W        W39903   8.029  16.637   1.384  0.0165 -0.1091 -0.0785
24095W        W39904   7.229   7.185   3.355 -0.2908 -0.0747  0.1573
24096W        W39905  13.528  11.436  10.659  0.2545  0.0739  0.1271
24097W        W39906  15.099  15.331  15.562  0.1604 -0.1988 -0.1201
24098W        W39907  11.623  15.813  15.052 -0.0098 -0.1052  0.0905
24099W        W39908   4.585  15.168  11.057 -0.1242 -0.2183 -0.0919
24100W        W39909  16.748  15.568   4.030  0.1463 -0.0372 -0.2300
24101W        W39910  12.627   3.011  15.128  0.1551  0.0645  0.0371
24102W        W39911  10.114  10.661  10.574 -0.0623  0.0330  0.1585
24103W        W39912  13.949   5.151   4.826 -0.1136 -0.1264 -0.1954
24104W        W39913   1.028  13.840  14.266 -0.0741 -0.1119 -0.2899
24105W        W39914   0.700   9.407   3.789  0.0440  0.1530 -0.0472
24106W        W39915  15.610  15.190   4.904  0.1500  0.0946 -0.0091
24107W        W39916   1.233   6.781   3.608  0.0430  0.3598 -0.0552
24108W        W39917  13.099   4.975  13.424 -0.3250  0.1284  0.0746
24109W        W39918   1.717   1.080   1.908  0.3669  0.0642 -0.0417
24110W        W39919  17.015   8.549  14.745  0.2381 -0.2173 -0.0001
24111W        W39920   1.891   7.228   0.364  0.0011  0.0988  0.2264
24112W        W39921  11.874  17.501   4.152  0.3161 -0.0286  0.1971
24113W        W39922   9.172  10.037  16.204 -0.2631  0.0929  0.0773
24114W        W39923  16.036  16.636   3.027  0.0837 -0.3146  0.0686
24115W        W39924   0.016  10.959   5.531 -0.3219 -0.1201 -0.0914
24116W        W39925   9.744  16.281  15.771  0.3706 -0.1234 -0.3005
24117W        W39926   9.705  16.411   1.058 -0.1224  0.3257  0.0525
24118W        W39927   0.431  15.539   1.228  0.0715 -0.2090 -0.2428
24119W        W39928   8.268  14.177   6.464 -0.4690 -0.0291  0.2305
24120W        W39929  15.686   5.043   3.341  0.1656 -0.1836 -0.2645
24121W        W39930   9.609   1.230   0.653 -0.0872 -0.0854 -0.0891
24122W        W39931   8.908   8.020   4.580  0.0214 -0.1803  0.3016
24123W        W39932   0.240  15.239   0.685 -0.0466 -0.0919 -0.2544
24124W        W39933   0.699   9.086   0.423  0.1694 -0.0241 -0.0241
24125W        W39934   0.557  10.906   3.413 -0.1421  0.1736  0.0950
24126W        W39935  12.969   7.796   2.319  0.1973 -0.0480  0.0404
24127W        W39936   0.057  14.894   3.324 -0.1729 -0.1484  0.0031
24128W        W39937  14.929  16.615   4.069  0.0257  0.0131  0.1156
24129W        W39938   7.373  10.593   3.599 -0.1705  0.0077  0.0711
24130W        W39939  14.461  14.677  16.131  0.1917  0.3323  0.1467
24131W        W39940  11.582  11.777  13.027  0.1026  0.0561  0.1308
24132W        W39941  12.527   2.659  11.656 -0.1023 -0.0044  0.0538
24133W        W39942   7.553  16.354  13.771  0.1835  0.0618 -0.0390
24134W        W39943   1.016  13.591  15.660 -0.1661  0.0279 -0.0921
24135W        W39944   5.528   1.048  16.071  0.1765 -0.0442 -0.1427
24136W        W39945  16.735  13.886   0.951  0.0710  0.1280 -0.0489
24137W        W39946   3.692   9.205   4.616 -0.0808  0.0618 -0.2001
24138W        W39947  15.089   4.629  11.810  0.1591  0.0044 -0.0514
24139W        W39948  13.384  15.124  15.376  0.1883 -0.2353  0.0914
24140W        W39949   4.558   7.520   0.065  0.2308  0.0471 -0.0773
24141W        W39950  12.716   2.220   3.581  0.1630 -0.1346  0.0440
24142W        W39951   0.810   7.923  12.101  0.0182 -0.1614 -0.0976
24143W        W39952   3.433   9.278  12.583  0.3524  0.0503 -0.3240
24144W        W39953   8.087   8.835  12.971  0.2175 -0.0516 -0.0727
24145W        W39954   1.255  17.205   1.766 -0.0449 -0.1816  0.1303
24146W        W39955   3.006  13.052   0.358  0.0412  0.1647  0.1713
24147W        W39956  17.279   0.982  13.555  0.1025  0.1846 -0.4273
24148W        W39957   4.911   1.359  10.989  0.1312  0.2547 -0.2143
24149W        W39958  15.105   7.950  12.308  0.1084 -0.3848 -0.1426
24150W        W39959  13.104  16.153  12.960  0.0907  0.0904 -0.0279
24151W        W39960   9.493  17.900   4.582 -0.1492 -0.0584  0.1449
24152W        W39961  13.644   2.899   1.058  0.0872  0.2620 -0.1967
24153W        W39962   1.886   5.760   1.980 -0.2477 -0.3669  0.0224
24154W        W39963  15.182   5.582  16.275  0.2111 -0.0858  0.0538
24155W        W39964  11.888   8.916  11.190  0.1088  0.1621  0.0195
24156W        W39965   6.328  14.352  15.858 -0.0115  0.1013 -0.0203
24157W        W39966  12.342  17.775  11.569  0.0268  0.0528 -0.1464
24158W        W39967   9.913   0.109  15.806  0.1906 -0.0089 -0.1086
24159W        W39968  16.260  16.971   2.508  0.1345 -0.1297  0.1852
24160W        W39969   8.907   6.951  12.343  0.2187  0.1009  0.3045
24161W        W39970  10.418   1.516   1.444  0.2716 -0.0812 -0.2125
24162W        W39971  13.275   5.935   4.426 -0.0308  0.2118 -0.0245
24163W        W39972   0.109  12.928   1.808  0.1064  0.0433 -0.1584
24164W        W39973  17.662   0.266  12.464  0.1143  0.1988 -0.1662
24165W        W39974  17.270   1.579  15.791  0.2940 -0.1674 -0.1048
24166W        W39975   4.963  12.702   3.526  0.2113  0.0664 -0.1079
24167W        W39976  17.028   9.422  15.354 -0.0948  0.0049 -0.1477
24168W        W39977   9.318   6.642  10.600  0.2531  0.0405  0.1170
24169W        W39978  12.405  13.373  14.872  0.1410 -0.3268  0.0301
24170W        W39979   5.250  11.361   4.451  0.1790 -0.0925  0.1284
24171W        W39980  15.743  14.156  13.500 -0.1011  0.0074  0.0980
24172W        W39981   3.221   8.507  11.910  0.0210 -0.1809 -0.0962
24173W        W39982  14.848  11.976  14.067  0.0277  0.2606  0.2246
24174W        W39983   8.843   5.692   3.236  0.3167 -0.1602 -0.1284
24175W        W39984  13.443   1.875   0.299 -0.1097 -0.0723 -0.2654
24176W        W39985  16.941  14.143  14.038  0.1107 -0.1605  0.1581
24177W        W39986  15.971   5.036   5.532 -0.1614 -0.0899  0.1710
24178W        W39987   0.190   5.536  13.252  0.0772  0.4971  0.1990
24179W        W39988   6.672   3.862  16.218  0.2868  0.0339 -0.1458
24180W        W39989   8.073   2.047   4.160 -0.2008 -0.4684 -0.0605
24181W        W39990   3.936   7.598   2.365  0.5429 -0.1329 -0.2665
24182W        W39991   7.945   9.824  13.982  0.0497 -0.0460 -0.0365
24183W        W39992  16.286   9.785  15.086 -0.1408 -0.0559  0.0878
24184W        W39993   5.384  14.023   1.311 -0.0370 -0.3548  0.2286
24185W        W39994  14.150   5.262   2.040  0.5015 -0.1255 -0.0508
24186W        W39995  15.840  10.987   4.554  0.3096  0.3690 -0.4548
24187W        W39996   9.902   1.228  13.672  0.0217 -0.1534  0.0766
24188W        W39997   2.681   0.725  15.442  0.0870  0.0535  0.4112
24189W        W39998   2.475  12.654  14.133  0.1270  0.0834 -0.0728
24190W        W39999   1.201  15.453   1.359  0.0636  0.0479 -0.3371
24191W        W40000   3.745  15.073  16.079 -0.1279  0.0077  0.0283
24192W        W40001  17.934  13.660   0.382 -0.4029 -0.0047  0.3664
24193W        W40002   8.590   8.607   0.059 -0.2344  0.3121  0.1084
24194W        W40003   4.152  11.881  15.468 -0.0610 -0.1742  0.1617
24195W        W40004   1.918   1.474   4.589 -0.4235 -0.1061  0.1764
24196W        W40005  16.602   5.540   0.821  0.1129  0.0193  0.1283
24197W        W40006  10.693  11.389   3.847  0.0201  0.0169 -0.0819
24198W        W40007  12.533  15.193   1.889 -0.4063 -0.0110 -0.0281
24199W        W40008   5.662   6.812   0.309  0.2444  0.2184 -0.1181
24200W        W40009   1.642   4.704  11.783 -0.3397  0.1890 -0.2134
24201W        W40010  17.110   7.947  11.786  0.2007  0.0610  0.7738
24202W        W40011  10.377   2.906  15.620 -0.0766  0.1840  0.2193
24203W        W40012  11.344   6.024   0.831  0.1053 -0.1180  0.2807
24204W        W40013  10.193  11.133  15.746 -0.2080  0.2253  0.0734
24205W        W40014   6.173  10.801   3.031 -0.2388  0.3504  0.1086
24206W        W40015  13.438   8.528   5.100  0.1353  0.3171 -0.0382
24207W        W40016   4.670   6.074  11.683 -0.1200 -0.1978 -0.1031
24208W        W40017  12.935   1.307   5.811  0.3400  0.0251  0.0178
24209W        W40018   7.553  15.828   4.696  0.0423  0.0484 -0.1813
24210W        W40019   5.054   0.294   1.397  0.0637  0.1531 -0.0174
24211W        W40020  10.423   2.354   0.178 -0.0442  0.0536  0.2409
24212W        W40021   5.002   0.994   1.975  0.2142 -0.2564  0.0054
24213W        W40022   5.185   8.497  14.379  0.1072  0.1798  0.0917
24214W        W40023   2.428   6.794  14.350 -0.3654 -0.0893  0.0583
24215W        W40024  12.849   6.947   0.078 -0.1092  0.2431 -0.1490
24216W        W40025  13.702  16.566   1.790  0.0089  0.2434  0.2660
24217W        W40026   0.580  11.544  13.972 -0.6454 -0.1697  0.1024
24218W        W40027  10.471   0.234   0.127  0.1876  0.1984 -0.2341
24219W        W40028   7.228   9.759   2.779 -0.1254  0.2905  0.0732
24220W        W40029  13.357   5.952  10.768  0.0535  0.1683 -0.0450
24221W        W40030  14.367  10.098  12.520 -0.1808  0.1072 -0.2748
24222W        W40031   3.723  15.892   3.514  0.0999  0.0837  0.0585
24223W        W40032   8.848  12.082   1.964 -0.2636  0.0168 -0.2193
24224W        W40033  10.302  14.420  13.145 -0.1169 -0.2444  0.0310
24225W        W40034   1.245   6.169   5.153 -0.0668  0.1397 -0.0749
24226W        W40035  16.645   0.116  16.343 -0.2482 -0.0474 -0.0981
24227W        W40036   7.604  12.798   0.484 -0.2135  0.1827  0.0733
24228W        W40037  17.340   9.284  11.841 -0.1454  0.0562 -0.1185
24229W        W40038  10.259   5.594   1.527  0.0652 -0.3665 -0.2609
24230W        W40039  11.062   7.858   0.671  0.5094 -0.0439  0.1237
24231W        W40040   4.142   9.875   3.544  0.0217 -0.1213  0.5302
24232W        W40041   1.360   9.327  15.197 -0.1442  0.0474  0.1275
24233W        W40042   2.895   9.905  12.918 -0.0090  0.1744 -0.0133
24234W        W40043  13.519  17.103   2.031 -0.0970 -0.1862  0.0885
24235W        W40044   0.617   2.454   0.637  0.3839  0.4301 -0.1694
24236W        W40045   1.778  11.614   5.413 -0.2538  0.0714 -0.1712
24237W        W40046   1.760   7.231  15.535 -0.1842  0.0203  0.3497
24238W        W40047  14.675  11.423  12.896  0.1333  0.1317  0.0407
24239W        W40048   6.084   6.789   4.266 -0.0526 -0.0384  0.1264
24240W        W40049   0.148   4.592   5.386 -0.0661  0.1095  0.0878
24241W        W40050  12.585   8.516   2.312  0.1713 -0.0598 -0.0377
24242W        W40051   3.765   8.395   1.549  0.0664 -0.0284  0.3248
24243W        W40052  13.075  11.866   3.418 -0.2028 -0.1813  0.0731
24244W        W40053   6.964   6.723  14.645 -0.1468 -0.0495  0.0480
24245W        W40054   0.495   6.559  12.185  0.1033 -0.2941  0.1593
24246W        W40055  16.183  11.369   4.418 -0.1552  0.3845  0.0023
24247W        W40056   9.049   2.753  10.547  0.0520  0.4225  0.0647
24248W        W40057   8.161  17.686  15.371  0.1100 -0.0035 -0.1665
24249W        W40058  16.849  17.258   0.872 -0.1000 -0.0967 -0.0799
24250W        W40059  17.394   1.806   5.687 -0.0958 -0.1775  0.1602
24251W        W40060   9.515  15.431  11.432  0.0210  0.1412 -0.1237
24252W        W40061  13.539   2.362   1.706  0.0108 -0.0492 -0.2894
24253W        W40062  14.124  16.743   0.656 -0.0613  0.0686 -0.0250
24254W        W40063   2.393   8.105   1.658 -0.0606 -0.0594  0.0281
24255W        W40064  18.162   3.695  15.227  0.0308  0.3338  0.1353
24256W        W40065   3.861  13.040   1.558  0.1319  0.0153  0.1059
24257W        W40066  11.746   9.758  12.160 -0.0757 -0.0828 -0.0610
24258W        W40067   3.889   9.920   0.703  0.0856  0.2793 -0.2458
24259W        W40068   9.963   4.988  10.468 -0.0162  0.1466 -0.1194
24260W        W40069   8.960   1.150  12.506  0.2556 -0.0645 -0.0937
24261W        W40070   5.532  16.173   5.677 -0.3733  0.0999  0.2656
24262W        W40071   1.693   3.707   0.305  0.0441  0.1575 -0.1002
24263W        W40072  11.748  17.316   3.163 -0.0440  0.2094  0.1131
24264W        W40073   4.043   4.113   5.208  0.2576 -0.1158  0.2596
24265W        W40074  10.238   6.685  13.610  0.3565  0.1420  0.0913
24266W        W40075   5.935   0.416   1.099  0.3991  0.1252  0.1262
24267W        W40076  12.884  13.463   1.661  0.1376  0.2808  0.5666
24268W        W40077  10.272  14.489   0.850  0.1886 -0.1910 -0.2186
24269W        W40078   5.943  16.991   3.264  0.0534  0.1250  0.3389
24270W        W40079   5.900  16.741   3.782  0.0682 -0.0905  0.1529
24271W        W40080   7.214   6.077   3.608  0.3002  0.0723  0.1444
24272W        W40081   5.082  17.781   0.212  0.1680  0.0456 -0.0314
24273W        W40082  10.081   7.534  11.919 -0.2713  0.0147 -0.1319
24274W        W40083  17.988  15.781  15.186  0.0135 -0.0899  0.2819
24275W        W40084   9.129  13.413   5.626 -0.3136 -0.1995 -0.1356
24276W        W40085   3.358  13.358   2.816 -0.1441  0.0021 -0.5482
24277W        W40086   7.338  16.784   2.117 -0.0503 -0.0247 -0.1997
24278W        W40087  16.955   7.901   5.124 -0.0044 -0.1414 -0.3211
24279W        W40088  11.855  13.829   3.848 -0.1690 -0.3277  0.0804
24280W        W40089   8.741  18.034   4.075 -0.0403 -0.2234  0.0822
24281W        W40090  12.890   2.604   1.480  0.1343  0.0082 -0.2450
24282W        W40091   6.748  13.071  12.890  0.2137 -0.0376 -0.0303
24283W        W40092   0.834  12.743   1.842  0.3086 -0.3747  0.1597
24284W        W40093  15.173   5.361  10.760 -0.1569 -0.2094  0.1744
24285W        W40094  16.999   1.406   4.359 -0.4753  0.2978 -0.2717
24286W        W40095  13.719   0.646   4.680 -0.1907  0.5190 -0.1545
24287W        W40096  10.583  17.237   0.129 -0.1193  0.5186 -0.1436
24288W        W40097  11.237   8.842  15.688 -0.0556 -0.1020  0.2031
24289W        W40098   4.834  13.788  12.881 -0.1058 -0.1069 -0.1305
24290W        W40099  12.214  15.803  16.173 -0.0798 -0.0116  0.2732
24291W        W40100  11.077   4.517   1.788 -0.2794  0.0548 -0.2410
24292W        W40101  12.528  11.864   5.520  0.1157 -0.0336  0.1341
24293W        W40102  14.313  17.540   0.847  0.0089  0.2522  0.0495
24294W        W40103  17.181   7.035  12.237 -0.1359  0.2923  0.4197
24295W        W40104  13.331  10.411   1.800  0.1850  0.1744  0.5348
24296W        W40105  14.397   5.329   6.390 -0.0090 -0.1177 -0.1210
24297W        W40106  15.298  16.963   4.123 -0.0184 -0.1216  0.0667
24298W        W40107  17.262   8.001   3.243  0.0380 -0.2187 -0.0855
24299W        W40108   1.433   7.670   5.335 -0.3414 -0.0452 -0.2080
24300W        W40109   2.376   4.168   3.163  0.3229 -0.0144 -0.2001
24301W        W40110  15.330  10.011   2.306  0.1832 -0.2557  0.0541
24302W        W40111  14.399   4.110  12.114 -0.0600  0.0745 -0.0460
24303W        W40112  16.567  10.632  12.464  0.0249 -0.0088  0.0724
24304W        W40113  17.384  11.954   2.281  0.2681  0.0907  0.2490
24305W        W40114  13.594   4.072   2.190  0.1574 -0.0368 -0.0737
24306W        W40115  14.879   3.003   2.415 -0.1173 -0.2208  0.1983
24307W        W40116  10.372  13.002  15.959 -0.0878 -0.2947 -0.2917
24308W        W40117   3.994   6.619  14.777  0.2132  0.0105 -0.4347
24309W        W40118   3.425   4.938  11.376 -0.1555  0.0049 -0.2158
24310W        W40119   1.022   1.772  13.208  0.1674 -0.1710  0.1295
24311W        W40120   6.404   3.360   0.682  0.1244  0.0752  0.1508
24312W        W40121   0.457   3.142   3.516 -0.1695 -0.2707 -0.2163
24313W        W40122  14.997   8.556   0.602  0.2777  0.1017  0.0304
24314W        W40123   7.458  11.083   4.720  0.0775  0.0325  0.0115
24315W        W40124   1.112  14.114  15.649  0.5049 -0.1826  0.1543
24316W        W40125   6.750   0.366   3.172  0.0797  0.0435  0.1565
24317W        W40126  18.057   8.931  13.831 -0.0852 -0.0274  0.0550
24318W        W40127   8.371  17.381   2.415  0.2711 -0.0486  0.2191
24319W        W40128   4.704  17.471   0.358 -0.2729 -0.1176 -0.1782
24320W        W40129   5.584  13.288   4.447 -0.1800 -0.1143 -0.0003
24321W        W40130  17.614   7.138  14.895  0.0780 -0.1589  0.0809
24322W        W40131  13.516   8.956   4.462 -0.0540  0.0255 -0.2282
24323W        W40132   8.573   7.802  13.124  0.3039  0.1351 -0.0455
24324W        W40133  14.099  16.625  11.788 -0.1035  0.1415  0.3251
24325W        W40134  18.184  10.055   1.891 -0.3058  0.1342  0.1909
24326W        W40135  14.335  13.871  11.007 -0.3166  0.3221 -0.1042
24327W        W40136  16.066  13.870   5.967 -0.2136  0.2503  0.0864
24328W        W40137   2.593   6.278   4.990 -0.2438  0.0950  0.1124
24329W        W40138   0.165  13.189  14.551  0.2254  0.1077  0.0855
24330W        W40139   6.907  11.423  13.057  0.0690  0.3237  0.1507
24331W        W40140  11.217   1.555   3.353  0.1329 -0.0297  0.0547
24332W        W40141  14.130   8.266   0.301  0.1344 -0.0207 -0.2631
24333W        W40142   3.007   7.162  14.949  0.1542  0.0245  0.1686
24334W        W40143   8.919   2.273  11.081  0.1274  0.1307 -0.0225
24335W        W40144  11.631   9.175  13.333  0.0075  0.0567 -0.0595
24336W        W40145   6.434   1.481   9.970 -0.0129 -0.2472  0.1043
24337W        W40146   9.971  14.558  12.817  0.0100 -0.1295  0.0797
24338W        W40147  10.578   3.436  12.020  0.0178  0.0090 -0.0227
24339W        W40148   6.571   8.134  13.989 -0.0592 -0.1647  0.4024
24340W        W40149   6.479  11.565   5.683  0.1279  0.3724  0.0096
24341W        W40150   8.394   2.003  13.236 -0.1016 -0.0975 -0.3581
24342W        W40151  10.736  14.241  13.929 -0.3288 -0.0438 -0.1996
24343W        W40152   8.627  12.200   3.556  0.0247  0.0438 -0.2060
24344W        W40153  14.118   0.394  13.966 -0.0990 -0.0533 -0.2503
24345W        W40154  11.623  12.557   0.098  0.2676 -0.0533  0.1405
24346W        W40155   4.347  16.636   0.982  0.0723  0.1785 -0.0186
24347W        W40156  16.614   1.057  12.112 -0.3457 -0.2762  0.0727
24348W        W40157   9.357  12.747   0.137  0.3538 -0.0200 -0.0799
24349W        W40158   6.650  11.421   0.898  0.1944 -0.2710 -0.1009
24350W        W40159   3.306  14.816  16.125  0.2071  0.2566 -0.2818
24351W        W40160   2.259   4.528   3.504  0.1724  0.0841 -0.2876
24352W        W40161  14.520  18.097  11.965 -0.0870 -0.2142  0.1253
24353W        W40162   8.486  11.072  15.587 -0.3202 -0.0390 -0.2477
24354W        W40163  13.846  18.141   1.211  0.1545  0.0120  0.2636
24355W        W40164  15.631  15.401   4.454 -0.1029 -0.2393 -0.2450
24356W        W40165   5.525  11.264  14.628  0.0530  0.2982 -0.0664
24357W        W40166   6.661  13.837  10.773 -0.1341  0.0100 -0.1963
24358W        W40167   2.385  15.411   1.866  0.1676 -0.0510  0.0933
24359W        W40168   2.444  13.677  14.069  0.0140  0.0384 -0.1393
24360W        W40169   7.928   0.332   2.012  0.2835 -0.2192 -0.0489
24361W        W40170  16.171  10.864   1.458 -0.2254 -0.3326 -0.0349
24362W        W40171   2.470  12.755   3.746  0.0309  0.1804 -0.0551
24363W        W40172   2.740   7.425   2.652  0.0110 -0.0448 -0.1189
24364W        W40173   5.630  10.899   0.476 -0.1010  0.1901  0.2560
24365W        W40174   7.917  11.872  12.029 -0.0392 -0.0776  0.0883
24366W        W40175   8.496   2.269   0.779 -0.0273 -0.2347  0.2354
24367W        W40176   7.211   0.855  11.589 -0.0705  0.0185 -0.1167
24368W        W40177   5.220   0.124   2.451 -0.4450  0.3720  0.0677
24369W        W40178  15.390   8.519  12.916 -0.0691  0.0655  0.0422
24370W        W40179  15.622  16.610  11.224 -0.0751 -0.0349 -0.0072
24371W        W40180   4.098   9.604  13.179 -0.2319 -0.1946 -0.1292
24372W        W40181  10.573  14.322   4.706 -0.2229  0.1857  0.0822
24373W        W40182   2.220  10.944  15.872 -0.1352 -0.0193  0.1056
24374W        W40183  15.836   8.783  12.706 -0.2010  0.0896 -0.1295
24375W        W40184  17.499   5.032  12.112 -0.2002  0.0138  0.3488
24376W        W40185   9.804  10.148   2.971  0.0137  0.2239  0.1838
24377W        W40186   0.257   3.349   2.686 -0.0600  0.0990  0.0876
24378W        W40187  15.503   5.772   5.089 -0.4308 -0.1385  0.0333
24379W        W40188   4.647   3.621   2.673 -0.0431 -0.1138  0.1355
24380W        W40189  11.406  17.548   1.848  0.4580 -0.2552  0.1797
24381W        W40190  11.133  12.371  12.230 -0.0039  0.4844  0.0235
24382W        W40191   2.404   6.809  13.269 -0.0199 -0.1626  0.0703
24383W        W40192  11.218  14.433   5.342  0.1765 -0.2592 -0.1558
24384W        W40193  15.114   5.006  14.949  0.1082  0.1737 -0.1526
24385W        W40194  14.260   5.697  12.973  0.3228 -0.0039 -0.3318
24386W        W40195   0.790   9.181  11.458 -0.1022 -0.2820  0.0796
24387W        W40196   7.264  15.372   2.120  0.0632  0.2138  0.1506
24388W        W40197  10.655  16.869  12.106 -0.3297  0.0165  0.0028
24389W        W40198  11.034   6.918  11.904  0.1441 -0.0850 -0.1013
24390W        W40199   2.994   6.717  11.656 -0.0308  0.0820  0.0090
24391W        W40200  10.355  17.203   2.324 -0.2732 -0.0688 -0.1278
24392W        W40201   9.601   9.723  14.427  0.1847 -0.2404  0.1759
24393W        W40202   6.921  15.737   3.953  0.0813  0.1460  0.3881
24394W        W40203   1.753  10.238   4.010 -0.2311  0.0021 -0.2388
24395W        W40204  17.269   3.275   5.377  0.0229  0.0180 -0.1928
24396W        W40205  12.877   1.854  14.527 -0.1103 -0.0254 -0.3364
24397W        W40206  14.273   3.119  14.290  0.0638 -0.1540 -0.0376
24398W        W40207  16.724   2.357  11.656  0.2162  0.2170  0.2484
24399W        W40208  14.756   5.310  15.245  0.0699  0.2038 -0.0275
24400W        W40209   8.313  14.342   2.153  0.3372 -0.2606  0.0829
24401W        W40210   5.106  13.657  11.796 -0.1152 -0.1372  0.0541
24402W        W40211   5.539   8.907  14.456  0.0701 -0.2327  0.3084
24403W        W40212   8.668   4.285  13.095 -0.3937  0.0985 -0.0789
24404W        W40213  17.584  15.238   4.905  0.4031 -0.0731  0.2183
24405W        W40214   7.364  10.376   4.188  0.2379  0.4036 -0.1463
24406W        W40215   8.590  14.363   3.151 -0.1147 -0.0586  0.0770
24407W        W40216   4.246   6.008  13.085 -0.1242  0.3125  0.0239
24408W        W40217  14.005  12.886  14.569 -0.0270  0.0839  0.1975
24409W        W40218   2.824  17.534  15.710 -0.3534 -0.3459  0.0217
24410W        W40219  16.215  14.759   2.415 -0.1018  0.0423  0.0058
24411W        W40220   3.638   4.096  15.345 -0.1311  0.4565  0.0639
24412W        W40221  14.130   2.140   6.274  0.1312  0.0583 -0.2657
24413W        W40222  14.957   5.854  12.988  0.4362  0.1277 -0.0450
24414W        W40223  17.769   6.778  15.283 -0.1643  0.4006  0.0022
24415W        W40224   9.566  16.151   2.935  0.0877 -0.2293 -0.0253
24416W        W40225  15.517   8.026  14.881 -0.0594  0.0833  0.0674
24417W        W40226   3.983  13.178  14.669  0.2030  0.1946 -0.0500
24418W        W40227  15.079  12.836  13.669 -0.3419  0.0587 -0.0425
24419W        W40228   4.746   9.048   4.481  0.2247  0.1411  0.1102
24420W        W40229  10.565  17.431  13.499 -0.1539  0.1051 -0.0761
24421W        W40230   2.612   4.373   5.362  0.0067 -0.1371  0.0745
24422W        W40231  11.751   0.920  15.119 -0.1579  0.0956 -0.0212
24423W        W40232   6.336  14.276   0.142 -0.1114 -0.0044  0.0495
24424W        W40233  12.594  16.396   4.404 -0.2522  0.0041  0.0071
24425W        W40234   0.592   8.583  14.383 -0.0489 -0.0809  0.2451
24426W        W40235  14.453   4.860  15.118  0.0082  0.1102  0.0033
24427W        W40236   4.789  16.021  12.794 -0.0465 -0.0867  0.0178
24428W        W40237  14.505   8.316  16.254  0.1590 -0.1970  0.1678
24429W        W40238   9.365  16.995   4.249 -0.0597 -0.0623 -0.0824
24430W        W40239   2.158  18.097  15.822 -0.1846 -0.1164 -0.3985
24431W        W40240   2.767   1.288  14.730  0.1805 -0.2807  0.0218
24432W        W40241   5.752  10.463  14.061  0.1061  0.0750  0.3700
24433W        W40242   1.601  14.413  13.859 -0.1417 -0.0754  0.2977
24434W        W40243   3.253   2.258  14.829  0.0201  0.0791  0.1946
24435W        W40244   9.916   3.044  13.507  0.1001 -0.2835 -0.0003
24436W        W40245   0.964  11.003   4.193  0.2337  0.2978  0.0209
24437W        W40246   0.785   7.018  11.692  0.2959  0.0683 -0.1710
24438W        W40247   3.007  10.738   2.414  0.2446 -0.1338  0.0915
24439W        W40248  14.216   0.603   0.175  0.1949  0.1541  0.1424
24440W        W40249   9.443  10.491   2.680 -0.1693 -0.4747  0.0788
24441W        W40250   0.328  17.401   3.546 -0.0177 -0.0521  0.1529
24442W        W40251  15.404   8.230   3.332  0.2378  0.0280  0.3162
24443W        W40252   9.633  13.927  15.475 -0.0371 -0.0462  0.2611
24444W        W40253   0.342   9.832   3.910 -0.0819  0.0758  0.0421
24445W        W40254   0.330   0.499  13.927 -0.3059  0.1766 -0.3713
24446W        W40255   0.986   7.752   0.251 -0.0250 -0.2358  0.2749
24447W        W40256  14.548   9.022  13.477 -0.0336 -0.0755  0.0181
24448W        W40257  13.958   1.810  15.577  0.0427 -0.1275  0.1067
24449W        W40258  14.506  11.340   2.960 -0.0153 -0.1679  0.1394
24450W        W40259  12.236   9.214  14.591 -0.3242 -0.2161 -0.3398
24451W        W40260  12.003   4.546   5.018 -0.0681  0.0257  0.1401
24452W        W40261   0.883  13.309  13.994  0.3173  0.1160 -0.0561
24453W        W40262   3.365   6.732   3.657  0.0508 -0.1134  0.2465
24454W        W40263   6.383   0.049   1.648 -0.2757  0.1458 -0.0047
24455W        W40264   5.355   3.041  12.169 -0.0215  0.0558 -0.3679
24456W        W40265  10.037   3.214  13.988  0.0450 -0.2046  0.0355
24457W        W40266   8.278  16.165   4.364 -0.0463  0.1148  0.1578
24458W        W40267   0.023   8.303   3.636 -0.0580 -0.4228  0.0053
24459W        W40268  12.360   4.118  15.028 -0.0122  0.2218  0.0730
24460W        W40269   0.306   4.625   3.553  0.2192 -0.0179  0.0452
24461W        W40270   9.641   8.685   0.935 -0.1797  0.4226 -0.0715
24462W        W40271   3.882  15.371  13.479  0.0305  0.2042 -0.0423
24463W        W40272  15.482  16.751   0.045  0.1043 -0.0412  0.2545
24464W        W40273  16.700   8.153   4.052 -0.3146  0.0411 -0.1306
24465W        W40274   4.050   9.622  12.247  0.0613  0.1813 -0.3010
24466W        W40275   2.374   1.544   2.015 -0.1284  0.2887 -0.0581
24467W        W40276  14.379   1.235   0.343 -0.1181  0.1075 -0.0860
24468W        W40277  12.779   8.178  14.424  0.1755 -0.0844 -0.0068
24469W        W40278   1.914  11.231  16.317  0.2721 -0.1413 -0.0111
24470W        W40279   0.018   8.099  12.539  0.2821  0.0394  0.2800
24471W        W40280  15.441  10.780   1.615  0.0785 -0.1259 -0.1216
24472W        W40281  10.908   9.580  15.229 -0.1307  0.0014 -0.0548
24473W        W40282  14.976   1.971   0.802  0.1990  0.0300 -0.3793
24474W        W40283   5.236   3.356   3.800 -0.0828 -0.1122  0.0441
24475W        W40284   2.469   0.568   0.309  0.0362  0.2534  0.0919
24476W        W40285  11.740   5.618   2.169 -0.2092 -0.1646 -0.1113
24477W        W40286   1.165   2.607  13.602 -0.1267  0.1162  0.1655
24478W        W40287   5.089  14.294  15.039  0.0613 -0.0971  0.0493
24479W        W40288   1.455   9.077  13.994 -0.0528 -0.0738  0.4082
24480W        W40289  17.625  10.714  12.403 -0.0785  0.1925  0.1365
24481W        W40290   8.459  17.600   0.983 -0.0666 -0.0793 -0.0363
24482W        W40291  17.529  17.841  10.569 -0.1402  0.0501 -0.0913
24483W        W40292  10.309   2.807  12.059  0.1386  0.0730 -0.1636
24484W        W40293   6.993   1.632  12.869 -0.2589  0.1152 -0.0065
24485W        W40294  16.096  17.248   1.324  0.0881 -0.4108  0.1131
24486W        W40295  10.382   6.253   3.379  0.1431  0.1551  0.1105
24487W        W40296   7.781   8.215   5.715 -0.1644 -0.1125 -0.0235
24488W        W40297  11.448   4.803   4.892 -0.0638  0.0462  0.2733
24489W        W40298  17.062   0.186  12.194  0.0686 -0.2450  0.1126
24490W        W40299   9.416  17.796   0.799  0.0400  0.1818 -0.3411
24491W        W40300   1.709   6.731   0.351  0.1272  0.3866  0.0177
24492W        W40301   7.905   7.682   3.383 -0.0004 -0.1517 -0.3141
24493W        W40302   1.171   1.880   4.273 -0.0951  0.0059  0.0364
24494W        W40303   6.288   7.035   2.457 -0.0581  0.1650 -0.0697
24495W        W40304  15.009   6.143  11.143  0.3816  0.0454  0.0690
24496W        W40305   3.395  13.682   2.471 -0.0820 -0.0832  0.3600
24497W        W40306  17.973   1.318   4.829 -0.0363  0.0388 -0.3308
24498W        W40307  17.378   8.521   1.349  0.0987  0.0097 -0.1838
24499W        W40308  15.529  14.979   1.602 -0.2602 -0.4670 -0.0753
24500W        W40309   8.701  15.987   5.770 -0.0105  0.1419  0.0581
24501W        W40310   5.874  17.199  13.355 -0.3998 -0.0001 -0.0747
24502W        W40311   6.653  16.843   9.923 -0.0708 -0.0856  0.4505
24503W        W40312   8.537  14.159  16.078  0.1093  0.2415 -0.0111
24504W        W40313  12.023   2.066  15.014  0.1632 -0.1049 -0.2468
24505W        W40314   4.463  17.941   3.038  0.0748  0.0115  0.2067
24506W        W40315   6.486   5.012  13.713 -0.1154 -0.0210 -0.1014
24507W        W40316  14.358  10.939   3.965 -0.1631  0.3388 -0.1966
24508W        W40317  16.077  14.705  12.870  0.0464  0.0703 -0.0564
24509W        W40318   0.013  12.335  14.042 -0.2088 -0.2023  0.0700
24510W        W40319   0.890   8.896   3.024  0.2484  0.0255 -0.1586
24511W        W40320  12.125  12.680  13.369  0.0156  0.5097 -0.0589
24512W        W40321   2.707  15.556   2.294  0.0880  0.2461  0.0944
24513W        W40322  12.034  16.479   5.163 -0.0953 -0.1825 -0.1015
24514W        W40323   7.484  15.537  15.422  0.2711  0.2854 -0.0549
24515W        W40324  11.285   4.892   1.994  0.2383 -0.0983 -0.0555
24516W        W40325   5.208   0.196  12.960 -0.1825  0.2133 -0.0985
24517W        W40326  11.417   8.906   2.655 -0.0108 -0.0467 -0.0107
24518W        W40327   1.493   2.137   0.019  0.0053 -0.0521 -0.2555
24519W        W40328  18.078  10.917   2.170 -0.0303  0.2254  0.3119
24520W        W40329   6.577   4.660  14.047 -0.3592 -0.0499 -0.1158
24521W        W40330  17.568  16.686   2.779  0.0817  0.0369 -0.0825
24522W        W40331  16.264  17.121   3.926  0.1766 -0.1869  0.1719
24523W        W40332   2.707  10.675  15.729  0.0485  0.0482  0.2284
24524W        W40333  14.973   6.251   5.684 -0.1102 -0.0901 -0.1317
24525W        W40334  14.330  15.379   0.134 -0.0856 -0.1589 -0.1826
24526W        W40335   3.437   5.853   0.937 -0.1102  0.0503 -0.0709
24527W        W40336   7.051  17.058   4.226  0.5048  0.0604  0.0484
24528W        W40337   3.214  10.640   4.223 -0.2201  0.1545 -0.2222
24529W        W40338  16.928   2.165  13.126 -0.0166 -0.2203 -0.1234
24530W        W40339  16.651   9.629  16.332  0.0311 -0.3969  0.0889
24531W        W40340  16.246   9.562  14.302 -0.2410  0.0658  0.1175
24532W        W40341  13.502   8.354  11.289  0.1777  0.3640  0.0034
24533W        W40342  17.536   6.755  11.446 -0.0087 -0.2819  0.1611
24534W        W40343   6.394   4.899   4.916  0.1884  0.1088 -0.2234
24535W        W40344   3.942   5.220  12.733  0.1618 -0.3443 -0.0722
24536W        W40345  17.271   2.693   1.684 -0.1049  0.0781  0.2162
24537W        W40346  17.532  11.171  14.131  0.0784  0.2496 -0.1868
24538W        W40347   5.253  14.472   2.206  0.1036 -0.2250 -0.2569
24539W        W40348  12.601   0.276   2.970  0.4680 -0.0078  0.2821
24540W        W40349  16.298  10.595   3.400  0.1804  0.0668 -0.1317
24541W        W40350   4.428   2.208   4.574  0.1467 -0.0482  0.2444
24542W        W40351   7.352   6.640   1.382  0.1367 -0.2004 -0.3123
24543W        W40352   4.800   6.308  10.740 -0.2972 -0.0885 -0.1631
24544W        W40353   0.024   5.458   2.164  0.3332 -0.0030 -0.3086
24545W        W40354   1.926   6.298   1.733 -0.2634  0.6647  0.1620
24546W        W40355   7.135   3.918  10.956  0.1834  0.0385 -0.0045
24547W        W40356   8.352  12.369  14.585  0.3438  0.1621  0.1607
24548W        W40357   0.635   2.727  13.456 -0.1985  0.0810  0.1173
24549W        W40358   3.402   0.402   3.727  0.0823 -0.2246 -0.1952
24550W        W40359   6.680   9.081  15.814  0.0299 -0.0985  0.1158
24551W        W40360  11.779   4.279  11.741  0.2076 -0.2728  0.0319
24552W        W40361   3.590   1.069  13.802  0.2144  0.2284 -0.0345
24553W        W40362   3.318   2.311   1.421 -0.3187 -0.2120  0.0480
24554W        W40363   9.983  14.956   5.308 -0.3095  0.1711  0.4309
24555W        W40364   0.156   1.452  11.740  0.2091  0.0869 -0.2775
24556W        W40365  17.323   4.334  15.496  0.1170 -0.0145  0.0546
24557W        W40366  13.272  14.587   2.023  0.2011  0.4989  0.0341
24558W        W40367   1.433   1.512   4.529  0.0438  0.0361  0.3714
24559W        W40368   3.982   7.166  14.910 -0.0861 -0.0187  0.1249
24560W        W40369   4.480   3.277   5.466  0.2387  0.0364  0.0003
24561W        W40370   0.023   0.332   0.431 -0.0493  0.2248 -0.1589
24562W        W40371   9.931   3.427   0.725  0.0059 -0.0889  0.1076
24563W        W40372  13.960  11.125  12.617  0.2305 -0.0990 -0.1262
24564W        W40373  12.718   1.594   4.348 -0.5025  0.0436 -0.2297
24565W        W40374  17.790   3.469   6.138 -0.0745 -0.1798  0.0751
24566W        W40375   3.419   8.686   6.427  0.0331 -0.2583  0.2774
24567W        W40376   4.294   2.970  13.093  0.1142 -0.0642 -0.0147
24568W        W40377   1.186   5.641   4.415 -0.0896  0.0350 -0.1040
24569W        W40378  18.020   8.559  15.173 -0.3766 -0.1145 -0.1157
24570W        W40379   6.407   6.693   1.464  0.0367 -0.2801 -0.0758
24571W        W40380   7.942   0.281  13.655 -0.2563 -0.2718 -0.2835
24572W        W40381   5.212  11.028  15.882 -0.0035 -0.1516  0.1274
24573W        W40382   0.642   5.141   2.647  0.0066  0.0476 -0.0087
24574W        W40383   9.594   6.636  15.101  0.1310 -0.1559  0.1336
24575W        W40384  12.402   4.558  16.318 -0.0902 -0.0639 -0.3489
24576W        W40385   4.840  12.686  15.405 -0.2402 -0.1489 -0.5668
24577W        W40386   1.414  12.310   2.915 -0.0263 -0.0137  0.0330
24578W        W40387   5.560  11.698   0.598 -0.3166 -0.0476 -0.2284
24579W        W40388   6.832   8.765   1.626  0.2209  0.2263  0.1643
24580W        W40389  13.283   9.945   3.592  0.1590 -0.0392 -0.0608
24581W        W40390  12.596  10.063   1.933  0.2218  0.2981 -0.0916
24582W        W40391   1.202  15.420   2.994 -0.1352 -0.0725 -0.1607
24583W        W40392  13.060   7.068  10.078  0.1062  0.0232  0.0735
24584W        W40393   6.427  18.095   5.294  0.0861  0.0099  0.0430
24585W        W40394  15.875   4.390   3.265 -0.0384  0.1754 -0.1591
24586W        W40395   6.452  16.434  15.992  0.1282  0.4380  0.0026
24587W        W40396   8.431  14.099  11.217 -0.0699 -0.1617  0.4701
24588W        W40397   9.433  13.148  12.976  0.0093 -0.2901 -0.1479
24589W        W40398  12.426  10.375  12.412  0.2642 -0.0017 -0.1638
24590W        W40399   2.964   4.095  11.625 -0.0665  0.0821 -0.2473
24591W        W40400   3.234  15.501  12.133  0.0611 -0.2685  0.2342
24592W        W40401   1.695  13.613  11.079  0.1559 -0.0913  0.4059
24593W        W40402   8.040   7.292   3.808 -0.0323  0.1163 -0.2518
24594W        W40403  10.589   9.332  14.872 -0.2541 -0.3971  0.2178
24595W        W40404  17.437  10.103   4.360 -0.1268 -0.0829 -0.1372
24596W        W40405  13.583   0.296   4.999 -0.0179 -0.1055 -0.1215
24597W        W40406   6.395  17.718   0.382 -0.3493 -0.1086  0.2840
24598W        W40407   1.254   7.441  10.419 -0.0316 -0.1056 -0.0344
24599W        W40408  15.161  13.427  14.281  0.0490  0.2371  0.0347
24600W        W40409  12.378  14.543   3.524 -0.2077 -0.2855 -0.0402
24601W        W40410  10.120   8.107  11.172 -0.1390  0.6294  0.1705
24602W        W40411  15.078   3.633   0.720 -0.0416 -0.3255 -0.1175
24603W        W40412   5.846   7.491   0.019 -0.1004 -0.2954  0.1509
24604W        W40413   9.749  15.341  15.248  0.1522 -0.0697 -0.1698
24605W        W40414  13.539  11.605  12.920 -0.0949 -0.0266  0.1254
24606W        W40415   8.123  11.777   2.588  0.2056  0.0929 -0.0905
24607W        W40416   6.648  13.022   5.403  0.2231  0.0747 -0.1592
24608W        W40417   1.933   5.204   0.093 -0.4606 -0.2723 -0.1254
24609W        W40418   3.654  15.995   4.189  0.1163  0.1613  0.0783
24610W        W40419  13.545   8.535   0.113  0.0504 -0.1237 -0.0944
24611W        W40420  13.035   5.917   0.476 -0.1428 -0.1552  0.3694
24612W        W40421  13.896  18.012  14.267  0.0888  0.1722 -0.1180
24613W        W40422   6.175  10.679  11.913  0.2133  0.0496  0.0617
24614W        W40423  10.014   3.540   2.689  0.1583 -0.3168 -0.2024
24615W        W40424   2.843  16.751  13.309  0.0331 -0.0259  0.3312
24616W        W40425  17.514  17.550   3.473 -0.0773 -0.3550  0.1394
24617W        W40426  10.700   8.406   4.911  0.0107 -0.4015 -0.4033
24618W        W40427  10.112   7.068  13.170  0.2649  0.1102  0.0075
24619W        W40428   6.663   6.578  12.658  0.1886 -0.1933  0.0798
24620W        W40429   5.840   0.270   6.054 -0.4300 -0.0364 -0.1070
24621W        W40430  14.372   4.811  11.391  0.3058 -0.1820 -0.1253
24622W        W40431  10.734  12.532   4.233  0.0332  0.1775 -0.1083
24623W        W40432  13.106  10.407   2.602 -0.2702 -0.0098 -0.1926
24624W        W40433   8.346   2.258   4.584 -0.3594  0.1218 -0.2787
24625W        W40434   9.028   1.469   0.774  0.2469 -0.0403 -0.0775
24626W        W40435  11.648   1.083   4.950  0.4049  0.0870  0.1133
24627W        W40436  15.944  15.342  11.373 -0.2369 -0.1322 -0.0113
24628W        W40437   7.305  14.115  16.303  0.0263  0.2412 -0.0557
24629W        W40438  13.373  17.426  13.390 -0.0733 -0.0968  0.1603
24630W        W40439   3.667  18.009  13.483 -0.0339  0.1923 -0.0837
24631W        W40440  17.843  11.360   3.900  0.0733  0.0099 -0.2371
24632W        W40441   1.387   7.707  15.723 -0.0276 -0.2837 -0.1040
24633W        W40442  15.635  11.511  13.272  0.0780  0.1510  0.0013
24634W        W40443  14.775   5.511   1.215 -0.3369 -0.1532  0.0286
24635W        W40444  15.790   4.031   0.604  0.3672 -0.3446  0.1931
24636W        W40445   3.673  15.198  14.394  0.1899 -0.1164 -0.0105
24637W        W40446   5.837  17.094   0.241  0.0378 -0.2052  0.0926
24638W        W40447   9.344  15.806  15.233  0.1912 -0.0976 -0.1878
24639W        W40448  17.939  14.825  14.499 -0.1709 -0.0493 -0.0925
24640W        W40449   1.214   8.708   3.504 -0.0321  0.1385  0.1840
24641W        W40450  16.586   2.254   2.535 -0.2528 -0.1369  0.0291
24642W        W40451   1.050   7.514  12.249  0.0908 -0.1374 -0.1169
24643W        W40452  15.396   3.714   0.322  0.0599 -0.0391  0.2956
24644W        W40453   3.926   7.610   2.823  0.2857 -0.1395 -0.3056
24645W        W40454   5.906   1.293   1.638 -0.0582  0.0164 -0.0125
24646W        W40455  10.098  12.428  11.980  0.0902 -0.2600  0.0629
24647W        W40456   4.595   4.584  12.539 -0.1997 -0.0671  0.0205
24648W        W40457   7.570   6.481   3.027  0.1197 -0.0244  0.0931
24649W        W40458  18.195  13.944  11.968 -0.1226  0.0217 -0.0223
24650W        W40459   6.063   5.044  14.073  0.2179 -0.3673  0.0291
24651W        W40460  14.155   0.624   1.670  0.1288 -0.0380  0.0211
24652W        W40461  11.730  13.845   4.866  0.0705 -0.2125 -0.1325
24653W        W40462   3.090  11.271  13.237  0.1147  0.3018 -0.3836
24654W        W40463   0.673  12.165   3.615 -0.1374  0.2109  0.0584
24655W        W40464  12.876   9.929  15.381  0.0957 -0.0604  0.2579
24656W        W40465  17.151  15.550  16.134  0.1126  0.0243  0.4109
24657W        W40466  10.931  10.389  10.948 -0.2594 -0.2923 -0.1598
24658W        W40467   0.795  11.699   5.328 -0.1047 -0.2251  0.0883
24659W        W40468   9.261  13.580  11.075  0.2189  0.1265 -0.0427
24660W        W40469   4.942   9.534   4.500 -0.1109  0.1504 -0.0009
24661W        W40470  10.818   1.876   2.511 -0.0882  0.0934 -0.1272
24662W        W40471   7.357  15.636  13.283  0.3378 -0.2551  0.0653
24663W        W40472   6.996  11.538   5.894 -0.3277  0.1382  0.0276
24664W        W40473   6.225   3.707   4.902  0.1709  0.0280  0.1893
24665W        W40474  10.009   5.541   4.653 -0.2092  0.0100 -0.0939
24666W        W40475  17.187   9.359   2.831  0.2270  0.1631  0.1616
24667W        W40476  16.320   5.651   0.410 -0.0809  0.0279 -0.1676
24668W        W40477   2.179   1.095  12.356 -0.2132  0.1987  0.0892
24669W        W40478   6.746  16.653  11.909  0.0098 -0.4923  0.2213
24670W        W40479   0.273   3.561  13.289 -0.3260  0.0058  0.1212
24671W        W40480   5.044   0.568  14.834 -0.1958  0.0175 -0.0278
24672W        W40481   8.729   0.610  12.722 -0.1970 -0.1704 -0.0114
24673W        W40482   7.727  10.846   2.174 -0.1676 -0.0661 -0.0141
24674W        W40483  16.812   0.056   4.611  0.0420 -0.1712  0.2516
24675W        W40484   6.602   6.014   6.162  0.3385  0.1714  0.0489
24676W        W40485  17.911   6.418  12.349  0.0492  0.1597 -0.1364
24677W        W40486  15.757   6.063   2.888 -0.1905  0.3773  0.1372
24678W        W40487   1.017  11.648  11.382 -0.2371  0.1314  0.0218
24679W        W40488   1.667  12.817  16.182 -0.1223  0.0850  0.1657
24680W        W40489  17.541   5.324   5.480  0.0015 -0.0884  0.0526
24681W        W40490  17.990   5.841   4.919 -0.3509 -0.3185 -0.3275
24682W        W40491  14.594  15.838  13.547  0.0024  0.5141 -0.1800
24683W        W40492  10.221  10.030   0.854 -0.2231  0.3272  0.2227
24684W        W40493   8.494   9.036   5.503  0.1036  0.0709  0.1202
24685W        W40494   4.944   9.828   3.506 -0.1722  0.2141  0.1248
24686W        W40495   3.791   4.631  11.745 -0.0580  0.0638 -0.1361
24687W        W40496   5.035  11.681   1.078 -0.1137 -0.0196 -0.1399
24688W        W40497   1.755   4.865   1.989  0.1793  0.0087  0.0132
24689W        W40498   8.598   1.327   0.021 -0.3150 -0.0383  0.1493
24690W        W40499  13.249   6.844   1.468 -0.3696  0.2465 -0.1337
24691W        W40500   9.168   9.522  11.999 -0.1460  0.4974 -0.1357
24692W        W40501   0.685   4.210   1.185 -0.0725  0.0878  0.0852
24693W        W40502   2.331   2.199  14.600 -0.2612 -0.1001 -0.4463
24694W        W40503  14.477   6.788   5.995  0.2175  0.1835  0.2471
24695W        W40504   4.867  11.351  12.925  0.0412 -0.0434 -0.1266
24696W        W40505   1.836   1.299  13.401 -0.0561  0.1357 -0.1881
24697W        W40506   2.702   4.706   1.508  0.2166 -0.1583 -0.1070
24698W        W40507   5.140   2.566  10.986  0.0013 -0.0527  0.2029
24699W        W40508   3.847  12.627   4.202 -0.0775 -0.1136  0.2815
24700W        W40509  14.035   3.228   2.445 -0.1573 -0.3145 -0.2745
24701W        W40510   2.890   5.345   2.524  0.5402 -0.0986  0.0433
24702W        W40511   7.126  15.036  13.446  0.2230  0.1569 -0.1246
24703W        W40512   1.540   1.620  15.060 -0.2792 -0.0913  0.1418
24704W        W40513   6.667   1.239   4.948 -0.0351 -0.3766  0.0691
24705W        W40514  12.062   8.645   1.580  0.2358 -0.0177  0.0684
24706W        W40515  11.617   7.691  12.278 -0.2907  0.0066 -0.0781
24707W        W40516   5.293  12.536   2.113  0.4397  0.3128  0.0903
24708W        W40517   0.130  14.771   2.241  0.1164  0.0885 -0.3171
24709W        W40518  16.552   9.530  15.815  0.0144  0.1817 -0.1157
24710W        W40519   6.749  10.736   2.311 -0.0167 -0.2225 -0.0067
24711W        W40520   7.236  18.068   4.009 -0.0575 -0.2817 -0.0307
24712W        W40521   9.245  16.832   0.129 -0.2649 -0.0853  0.0689
24713W        W40522  12.414  11.358  15.182  0.3327  0.3414 -0.0969
24714W        W40523   4.698   6.926  11.431  0.2113 -0.1214  0.1276
24715W        W40524  13.465  14.437  16.114  0.2134  0.2050  0.0784
24716W        W40525   8.912  16.135   2.176 -0.0869 -0.2109 -0.1967
24717W        W40526  10.482  10.685  10.969  0.1390 -0.1870 -0.1981
24718W        W40527  11.442  16.330   0.853  0.0483  0.0911  0.0547
24719W        W40528  16.007  12.711   4.165  0.1300  0.2006 -0.2703
24720W        W40529  16.658   9.131  16.216 -0.0842  0.4296  0.0068
24721W        W40530   2.342  12.699   3.238 -0.0295  0.0556 -0.0411
24722W        W40531  14.571   1.108  13.228 -0.2047 -0.2468  0.1050
24723W        W40532  15.557   1.957  14.494  0.0992  0.2187 -0.0839
24724W        W40533   7.362   2.198   3.592 -0.2121 -0.4040  0.0525
24725W        W40534   1.760   2.413  12.019 -0.1028  0.1043 -0.3294
24726W        W40535  11.685   3.774   1.673 -0.0237  0.0435 -0.0299
24727W        W40536  12.152  16.175  13.197  0.0479  0.1636  0.2794
24728W        W40537  15.037  16.420  15.077  0.0158  0.0704 -0.0844
24729W        W40538   5.737   2.332   1.468  0.1367 -0.1299 -0.0965
24730W        W40539  10.284   0.788  16.240  0.1763  0.0260 -0.0041
24731W        W40540  15.006   5.544   3.488  0.1976  0.0891  0.3688
24732W        W40541   7.432  14.755  12.209  0.3796 -0.2001  0.0167
24733W        W40542   1.353   5.530  12.002 -0.1278  0.2036 -0.0174
24734W        W40543  14.054   7.423   4.007 -0.0697  0.0834 -0.1136
24735W        W40544   1.156   8.836   2.474  0.0403 -0.2052  0.1493
24736W        W40545   6.066   7.697  15.808  0.1459  0.0196 -0.1299
24737W        W40546   4.849  12.416  14.261  0.2710  0.2431 -0.1495
24738W        W40547  14.947  17.608   4.499  0.0146 -0.1554 -0.0221
24739W        W40548  11.716   2.374   5.454 -0.1876 -0.0225 -0.0100
24740W        W40549   9.279  15.742   2.827  0.1352 -0.1388 -0.0007
24741W        W40550  16.737  10.690   4.427  0.2466 -0.0097  0.2360
24742W        W40551  12.448   9.561   1.144  0.0902 -0.3346 -0.0311
24743W        W40552  11.825  13.104  13.117  0.1198 -0.0529  0.0507
24744W        W40553  10.104  16.568   4.610  0.0993 -0.0433 -0.1740
24745W        W40554  13.147  15.037   2.794  0.1443  0.0758  0.2257
24746W        W40555   6.515   8.759   0.292 -0.0753  0.0186  0.1420
24747W        W40556  17.855  12.234  15.669  0.0484 -0.0093 -0.3576
24748W        W40557   0.187  11.775  12.828  0.0636  0.2228  0.3023
24749W        W40558  17.064   4.235   6.018  0.1349  0.0382 -0.1375
24750W        W40559   2.377  12.599  14.613 -0.0375  0.1065 -0.1267
24751W        W40560  15.993   8.546  10.168 -0.0200 -0.0983  0.1967
24752W        W40561  16.475   3.631  14.055  0.2897  0.0600  0.1793
24753W        W40562  13.025  10.218  14.987 -0.1097  0.1517 -0.0286
24754W        W40563   6.392   3.839  10.430  0.0281  0.0498 -0.0349
24755W        W40564   5.611  17.545  12.661  0.0401  0.0867 -0.0831
24756W        W40565  14.956  17.511   5.063  0.0471 -0.0055  0.3531
24757W        W40566  11.808  14.455  12.634  0.0098  0.4977 -0.0497
24758W        W40567  13.759  15.865   5.023 -0.0565 -0.2128  0.0324
24759W        W40568   4.114  16.251   4.138 -0.0819  0.0592  0.0664
24760W        W40569   1.941   4.660  13.978 -0.0625 -0.1981  0.0515
24761W        W40570   9.401  15.597   5.152  0.1055  0.1829  0.0196
24762W        W40571   9.743   3.714   3.189 -0.2074 -0.1741 -0.2299
24763W        W40572   9.766  15.055  11.649  0.1917 -0.2595 -0.2984
24764W        W40573   8.917  10.365   0.718  0.0827  0.0480 -0.2396
24765W        W40574   5.555  10.589   3.691  0.1078 -0.2446 -0.1463
24766W        W40575   7.757  16.042  11.760  0.1058  0.1627  0.1695
24767W        W40576  10.232   0.348  15.258  0.1074 -0.0099  0.2284
24768W        W40577   8.630   3.535  10.785 -0.3269 -0.0738 -0.1914
24769W        W40578   3.729   2.599   2.046 -0.4163 -0.1633  0.0845
24770W        W40579  17.402   7.438   4.262  0.2838 -0.1342 -0.1793
24771W        W40580   4.062  14.715  16.176 -0.1597  0.2314 -0.0036
24772W        W40581  12.891  13.281  13.264  0.1996  0.0368  0.2012
24773W        W40582  11.568   7.190   2.180 -0.1363  0.3132 -0.2873
24774W        W40583   9.047  12.385   4.282  0.1597  0.0354  0.0386
24775W        W40584  14.000   6.959  15.101  0.2616  0.0774 -0.0928
24776W        W40585   5.453   8.466   1.169  0.3317  0.0946 -0.1002
24777W        W40586   7.974  10.099   5.709  0.1586 -0.0230  0.3405
24778W        W40587   2.903  15.399  13.460 -0.3940  0.1614  0.1600
24779W        W40588  10.573  15.221   3.470 -0.0590 -0.1331 -0.1766
24780W        W40589   9.359  11.216  14.324  0.0722 -0.0010  0.0671
24781W        W40590  15.137   2.001  14.212  0.3224 -0.1079  0.1879
24782W        W40591  12.933  17.113  13.217 -0.2415  0.2160  0.3952
24783W        W40592   8.651   0.827   1.885 -0.1694 -0.0522  0.0616
24784W        W40593  16.225   4.815   5.066  0.0394  0.1726  0.1678
24785W        W40594   3.289  17.552  11.540  0.3258  0.3382 -0.3676
24786W        W40595   7.800   4.628  10.865  0.0113 -0.3276  0.2026
24787W        W40596  10.147  10.240  13.776  0.2487 -0.0929 -0.1497
24788W        W40597   6.165   5.078  11.305 -0.0485 -0.1564 -0.2297
24789W        W40598   4.075  17.191  12.679  0.2441  0.1622  0.0686
24790W        W40599   7.881   7.263   0.426 -0.1072  0.0601 -0.0426
24791W        W40600   1.136   4.115  13.027 -0.2025 -0.0388  0.0093
24792W        W40601   5.853  13.507   2.932  0.0568  0.1534  0.1724
24793W        W40602   9.832  15.707   4.889  0.1080  0.1243  0.3664
24794W        W40603  11.832   2.520   3.907 -0.5320  0.3546  0.0824
24795W        W40604  16.884  16.312   2.794 -0.2336  0.3137  0.1433
24796W        W40605   3.659   4.914  15.836 -0.0417  0.2172 -0.1546
24797W        W40606   4.593   0.093   1.594  0.1579 -0.1528 -0.0171
24798W        W40607  10.809   8.926   4.669 -0.0310 -0.0066 -0.0564
24799W        W40608  11.291  17.868   0.055  0.3404 -0.1731  0.2541
24800W        W40609   8.589   0.918  15.758 -0.0673 -0.0413  0.1952
24801W        W40610   9.421   8.804  11.144 -0.1260  0.2699 -0.0588
24802W        W40611  11.426   6.301   4.263  0.0290 -0.0335  0.0111
24803W        W40612  16.982  12.320   1.463 -0.3171 -0.1463 -0.4078
24804W        W40613  17.105  10.315  14.017  0.3893  0.3024 -0.1159
24805W        W40614  12.920  10.825   0.077  0.3232  0.0509 -0.1130
24806W        W40615   2.486  11.878   0.595  0.0357  0.0586 -0.4953
24807W        W40616  12.135  14.004   1.631  0.0651 -0.1460  0.2332
24808W        W40617  12.259  12.153  11.545  0.1697  0.0616  0.0241
24809W        W40618  10.693   2.852   4.158 -0.1886  0.0600 -0.1273
24810W        W40619   6.142   1.202  11.983  0.0197  0.2683  0.0580
24811W        W40620   2.666  15.971  10.815  0.2365  0.1141  0.1534
24812W        W40621  11.248   3.601  12.922 -0.0062  0.0361 -0.0454
24813W        W40622   3.500   4.744   5.436 -0.1278  0.0807  0.2668
24814W        W40623  15.784  15.345  13.270  0.1103  0.0169  0.0351
24815W        W40624  12.627  14.671  15.577  0.1173  0.0879  0.1284
24816W        W40625   1.290  17.382  14.536  0.2324 -0.0385 -0.0669
24817W        W40626  10.984  17.119   0.803  0.2654  0.2120  0.1935
24818W        W40627  12.688   5.636  15.000 -0.4540  0.0149 -0.0059
24819W        W40628   6.988   7.217  13.226 -0.2767  0.0977  0.0363
24820W        W40629   4.040  10.463  13.864 -0.0508  0.0806  0.0637
24821W        W40630   5.887   7.731   2.447 -0.0267  0.2310  0.1781
24822W        W40631   6.448  11.154   5.426 -0.0174  0.1645 -0.1298
24823W        W40632   6.164  15.077  15.974  0.2593  0.1959  0.2483
24824W        W40633  16.139   1.093  12.620  0.0280 -0.1178 -0.3050
24825W        W40634   1.107  11.843   1.542  0.1534  0.2172  0.1646
24826W        W40635  16.719   9.323   5.434 -0.0887  0.0283 -0.1710
24827W        W40636  15.679  13.962  12.698  0.3789 -0.0648  0.3051
24828W        W40637   3.041  17.966   4.180 -0.1130 -0.1785  0.1818
24829W        W40638  15.417  16.426  12.114 -0.0061 -0.2802  0.0005
24830W        W40639  17.661   8.003  14.484 -0.2384  0.0423  0.0714
24831W        W40640   9.941  15.022   3.364 -0.1370  0.0571  0.1511
24832W        W40641  14.894   6.295   4.025  0.1312  0.0029 -0.0196
24833W        W40642   8.152   6.275  13.000  0.0382  0.2099  0.1452
24834W        W40643  18.118  16.803   5.128 -0.0199 -0.3029  0.2625
24835W        W40644  14.110   6.590   5.305 -0.0990 -0.2467  0.0024
24836W        W40645  16.269  12.112  13.217 -0.1815 -0.2776 -0.1301
24837W        W40646  13.418  17.443   5.511 -0.2767 -0.2218 -0.1849
24838W        W40647  15.166  17.382  12.967 -0.0792 -0.1979  0.2155
24839W        W40648  14.281   7.246  11.497  0.2682 -0.2964 -0.1150
24840W        W40649   0.640   6.768   3.568  0.2509  0.0409 -0.0500
24841W        W40650  11.435   6.705  11.726  0.1495 -0.1713  0.1193
24842W        W40651   7.173  14.925   5.922  0.1935 -0.1335 -0.2302
24843W        W40652   4.290   8.712   0.376 -0.1978 -0.0573  0.1882
24844W        W40653  17.501   6.975  15.774  0.0276 -0.0348  0.1719
24845W        W40654   0.178   0.812   5.282 -0.0065 -0.0509 -0.3955
24846W        W40655  12.288  16.471   2.381 -0.0524  0.0006 -0.0612
24847W        W40656  15.941  14.657  14.720  0.1026  0.0814 -0.1861
24848W        W40657   3.889  17.893   3.127  0.0693  0.1904 -0.1319
24849W        W40658   0.561  11.401   2.454 -0.0842  0.1229  0.1875
24850W        W40659   0.566   9.569  11.772 -0.2115 -0.4313  0.1872
24851W        W40660   6.756  15.585   0.749  0.3329 -0.0194  0.1001
24852W        W40661   2.568   1.395  12.171  0.3884  0.0443 -0.0770
24853W        W40662   1.290  14.432  16.083 -0.2773 -0.0794  0.2381
24854W        W40663  15.279   0.515   3.147 -0.2323 -0.1793 -0.3529
24855W        W40664  14.147  12.180   4.335 -0.0845 -0.1821  0.0973
24856W        W40665   2.158   9.846  12.224  0.2620  0.1805 -0.3721
24857W        W40666  14.425   6.537   3.184  0.0739 -0.0250 -0.1458
24858W        W40667  15.056   0.519   3.634  0.0778 -0.4360 -0.0970
24859W        W40668   1.294   2.851  12.701 -0.1945 -0.1028  0.0082
24860W        W40669   3.329   4.449   0.224 -0.1725 -0.1695 -0.0430
24861W        W40670   2.134   2.018  16.186  0.1206 -0.1547  0.0437
24862W        W40671  15.013  15.522   3.736  0.0971  0.3555 -0.2203
24863W        W40672   9.897   1.974  14.538 -0.1461  0.0351  0.4212
24864W        W40673   0.149   2.791   4.563 -0.4381  0.3896 -0.0279
24865W        W40674  15.480   3.338  16.274  0.3830 -0.3035  0.2116
24866W        W40675   7.352   0.334   3.864  0.0860  0.2275 -0.0770
24867W        W40676   2.637   5.569   4.778  0.0210 -0.2922 -0.1542
24868W        W40677  12.395  11.735  12.446 -0.2897 -0.2761  0.0980
24869W        W40678  16.240   7.178   3.501 -0.1608 -0.3665 -0.2421
24870W        W40679   9.017  11.717  12.726  0.1011 -0.0712  0.3299
24871W        W40680  12.692  14.161   3.151  0.0058 -0.0704  0.2816
24872W        W40681  14.086   8.643  15.030  0.1846 -0.3302 -0.0691
24873W        W40682   7.406  17.595  16.115  0.0071  0.1246  0.1136
24874W        W40683  15.139   2.171   5.738 -0.0311 -0.2136  0.0615
24875W        W40684   1.290  14.950   1.636 -0.1189  0.0658 -0.0672
24876W        W40685  13.201  11.427  15.634 -0.0018  0.4165 -0.2604
24877W        W40686   0.690   0.014  11.139  0.3623  0.3488  0.0127
24878W        W40687  10.033   8.217   4.301  0.1019  0.2800  0.0231
24879W        W40688   1.236   0.358  15.583 -0.1719 -0.0147  0.0348
24880W        W40689   7.677  17.544   4.652  0.0191 -0.0269 -0.2956
24881W        W40690  10.393   0.136  11.070 -0.0449 -0.1610  0.1516
24882W        W40691   8.123   4.218   4.692 -0.1703  0.0753 -0.1270
24883W        W40692   5.878   7.326   3.611  0.0799 -0.0751  0.1457
24884W        W40693   0.272  17.174   2.733 -0.0162 -0.2629 -0.1934
24885W        W40694   2.321  13.526  14.636 -0.0851 -0.1457  0.1731
24886W        W40695   6.770  13.297  14.135  0.0218 -0.0644  0.3039
24887W        W40696  14.830   2.914   1.568 -0.2146  0.1012  0.0323
24888W        W40697  13.637   9.438  10.383  0.5217 -0.4225  0.1060
24889W        W40698  15.581   6.160  11.876  0.1002 -0.0327 -0.0874
24890W        W40699   7.626   3.760  15.315 -0.0909  0.0677 -0.2187
24891W        W40700   1.060  12.440  12.460  0.0083 -0.0227 -0.2497
24892W        W40701   5.468   8.628  15.395 -0.2185 -0.0702 -0.3674
24893W        W40702   5.925  15.670  15.353  0.0925 -0.1137  0.3099
24894W        W40703  10.938   4.882  13.294  0.1805  0.2251  0.1573
24895W        W40704  10.317   0.703   4.316 -0.2483 -0.4194 -0.0833
24896W        W40705   3.548   5.414   1.937  0.0232 -0.1830 -0.1146
24897W        W40706   6.275   4.664   4.462  0.0654  0.2378  0.0918
24898W        W40707   4.525   1.011   2.057 -0.1357  0.2466 -0.1652
24899W        W40708  14.381  13.325   3.097 -0.0741  0.2148 -0.2679
24900W        W40709  11.532   6.296   2.401  0.0703  0.1918 -0.1321
24901W        W40710   2.886  12.944  13.709  0.0053  0.2988 -0.2008
24902W        W40711   2.247   2.355   5.858 -0.1186 -0.1989  0.1913
24903W        W40712   4.673   8.633  15.812  0.0658 -0.0794 -0.1794
24904W        W40713   7.837   8.156   3.646 -0.0370 -0.1293  0.1157
24905W        W40714  14.886   9.817  13.829 -0.1845 -0.0533 -0.2181
24906W        W40715   0.430   5.606   2.434 -0.0732 -0.0689  0.0451
24907W        W40716   8.168  12.189   3.875  0.2834  0.2468  0.0371
24908W        W40717   8.978   1.782  10.488  0.0600 -0.4377  0.0392
24909W        W40718   1.853  17.993   1.097 -0.0156  0.1130  0.1081
24910W        W40719  10.921  10.264  11.837 -0.1955 -0.2067  0.1219
24911W        W40720  15.650  17.043   5.030 -0.0485 -0.4216  0.4402
24912W        W40721   1.435   1.656   3.242  0.0480  0.1021  0.3570
24913W        W40722  10.278   1.266  12.213  0.4614 -0.1430 -0.0945
24914W        W40723   2.512   6.413  12.995 -0.1892 -0.1357  0.1061
24915W        W40724   2.484  13.693   2.540  0.0228 -0.1430  0.1478
24916W        W40725  17.647   0.519   2.058 -0.3088  0.2344 -0.0183
24917W        W40726   1.148  13.189  11.492  0.0256  0.3536  0.1684
24918W        W40727   4.116   4.954  11.893 -0.2258  0.0148  0.2558
24919W        W40728   0.158  13.068   2.307  0.3010  0.1356  0.0990
24920W        W40729   5.405   1.830  12.579 -0.3431  0.3211 -0.1800
24921W        W40730  15.276  10.795   3.855  0.0597  0.2114 -0.0733
24922W        W40731  10.802   9.203   1.470  0.1266 -0.2001  0.1569
24923W        W40732  11.542   2.043  15.956 -0.1227  0.1069  0.2335
24924W        W40733   7.993  17.389   4.002 -0.2874 -0.3760  0.0579
24925W        W40734  11.359   7.660   2.177 -0.3615  0.0176 -0.1262
24926W        W40735   2.144   8.801  14.025  0.1204  0.1344 -0.2115
24927W        W40736  17.769  13.616   2.602 -0.4249 -0.0961  0.1830
24928W        W40737   0.529  14.163   1.592  0.0435  0.0130  0.2306
24929W        W40738   1.378   8.237  14.390  0.0856  0.1754  0.1523
24930W        W40739  16.738   4.342   0.375 -0.0269  0.0436  0.0349
24931W        W40740   1.922  12.807   4.590 -0.1779 -0.4031 -0.0034
24932W        W40741  10.586   7.678   0.521 -0.1337  0.3867  0.2323
24933W        W40742  15.335   9.939  12.615  0.1324 -0.1358  0.0225
24934W        W40743  17.825  14.907  11.534  0.0663  0.0329  0.0869
24935W        W40744  14.513   2.881   5.843 -0.0464  0.2970 -0.0934
24936W        W40745   8.590   3.263  15.269 -0.1243  0.2537 -0.0783
24937W        W40746  10.477  17.172  13.034 -0.0685  0.0886 -0.3533
24938W        W40747   2.268   9.786   0.971  0.0954  0.1506  0.2785
24939W        W40748   9.653   0.342  13.471  0.1801 -0.0958  0.3243
24940W        W40749   9.142  17.272  14.076  0.0727  0.2608 -0.0377
24941W        W40750  14.419   6.712  14.955  0.0449 -0.1198  0.1955
24942W        W40751   9.326   8.324   4.764  0.4168  0.0123  0.0296
24943W        W40752  10.400   2.694   2.757  0.1610  0.1989  0.0377
24944W        W40753   7.798   8.125  13.611 -0.1892 -0.0612 -0.0114
24945W        W40754   2.685   3.434   1.795 -0.2145  0.2397 -0.0054
24946W        W40755  17.008  16.486   1.881  0.3686 -0.1435 -0.0147
24947W        W40756   0.825   2.447  15.873 -0.0601 -0.1948  0.2735
24948W        W40757   9.478   9.463   4.765 -0.2687 -0.0110  0.2310
24949W        W40758  12.810  16.674  11.660  0.2210 -0.0134 -0.1409
24950W        W40759   5.159   0.409   1.960  0.0069 -0.1838 -0.0861
24951W        W40760   8.447  12.159   5.319  0.0444 -0.0903 -0.2815
24952W        W40761   8.916  13.325   1.442 -0.2139 -0.0721  0.0336
24953W        W40762  12.105  17.387   0.190  0.2340  0.0105 -0.2018
24954W        W40763   3.912  16.837  12.342 -0.2218  0.0759  0.0038
24955W        W40764  17.000  17.740   0.897 -0.1397 -0.0144 -0.0018
24956W        W40765   9.933  16.647   5.965  0.3433 -0.0220  0.0389
24957W        W40766   4.620   9.106   5.709  0.1157  0.0512 -0.0714
24958W        W40767  17.200  11.535   2.118  0.0085  0.0573 -0.0636
24959W        W40768   3.048  15.694  13.057 -0.0789 -0.1299  0.1419
24960W        W40769   2.059   8.951  12.380 -0.0813 -0.4046 -0.1480
24961W        W40770  14.764   4.108  15.392  0.1301 -0.0035  0.1707
24962W        W40771  12.203   6.452  15.015  0.0419  0.0248 -0.3204
24963W        W40772  12.182   6.913   3.813  0.0993  0.1111  0.3142
24964W        W40773  12.403  17.733   5.441 -0.0130 -0.0578  0.1209
24965W        W40774   6.227  12.647  15.362  0.3314  0.0746 -0.0657
24966W        W40775   7.803   8.154   0.304  0.0656 -0.0317 -0.0939
24967W        W40776  13.663  10.112   0.987  0.0420 -0.0675  0.0165
24968W        W40777   7.055  18.176   3.227 -0.3152  0.0794 -0.1003
24969W        W40778   4.748   6.325   2.371  0.0785  0.1884  0.2032
24970W        W40779   8.011   9.315  12.173  0.0309 -0.0124 -0.0839
24971W        W40780   3.790   1.046   3.333  0.1044  0.1448  0.2735
24972W        W40781   0.717   9.799  12.190 -0.0542 -0.1598 -0.1846
24973W        W40782  10.862  17.153  12.688 -0.1522 -0.1589 -0.1603
24974W        W40783   5.777   7.137   6.259 -0.1749 -0.0801 -0.0880
24975W        W40784   5.056  13.422   2.237  0.0967 -0.1316 -0.1980
24976W        W40785   4.324  10.874  12.751 -0.0828 -0.1324  0.2061
24977W        W40786   6.087   5.392   4.999  0.1358 -0.0783  0.0041
24978W        W40787  14.630  11.988  12.826 -0.0934  0.2112 -0.1989
24979W        W40788  10.691   2.495  15.696 -0.1179  0.0223  0.1073
24980W        W40789  10.672   1.160  11.243 -0.2160 -0.0993 -0.1099
24981W        W40790   3.515   6.699  14.492 -0.1211 -0.2323 -0.1299
24982W        W40791  10.840   6.727  11.079  0.3396 -0.0143  0.1105
24983W        W40792   2.982   8.276   2.064 -0.1579 -0.3648  0.1728
24984W        W40793  17.169   3.134  15.813 -0.2608 -0.1292  0.2973
24985W        W40794   6.028  11.699   4.014 -0.0090  0.0174 -0.2389
24986W        W40795   5.181   4.451   0.197  0.0787  0.0178 -0.2402
24987W        W40796   2.531  13.105  14.355  0.2380  0.2241 -0.2143
24988W        W40797   0.961   9.255   5.648 -0.1018  0.3214 -0.0228
24989W        W40798   5.557  14.585   1.341 -0.0791  0.0011 -0.0459
24990W        W40799  16.025   3.289   1.844  0.1363 -0.1931  0.2466
24991W        W40800   0.247   3.793   4.550 -0.2858  0.1953 -0.0826
24992W        W40801  13.758   5.836   4.706  0.0882  0.0105 -0.0435
24993W        W40802   3.969   8.134   1.038 -0.0957  0.1967 -0.1457
24994W        W40803  16.412   0.786   4.484 -0.0707 -0.1513  0.1211
24995W        W40804  10.610   8.568  15.595 -0.2999  0.2012 -0.0709
24996W        W40805  17.181  16.245  11.947 -0.0259  0.1565  0.1449
24997W        W40806  16.320   4.492  11.937 -0.0637  0.3748  0.1351
24998W        W40807  10.231  17.954   3.350  0.0556 -0.1073 -0.4093
24999W        W40808   2.728  15.162  12.468 -0.0513 -0.1686 -0.1583
25000W        W40809   1.077   0.347  12.058  0.3264 -0.2360  0.0266
25001W        W40810   5.221   6.967  14.999  0.2278  0.0118 -0.1005
25002W        W40811   7.596   7.940  13.085 -0.2104  0.1668 -0.3421
25003W        W40812  17.107   0.479   0.256  0.1742 -0.0364 -0.0150
25004W        W40813   6.511  11.943   4.108 -0.1776  0.0201 -0.1300
25005W        W40814  17.459  12.928   3.890  0.2154 -0.1254  0.4097
25006W        W40815   9.721  14.410  15.773 -0.4718 -0.1747 -0.1515
25007W        W40816  11.187   3.410  15.505  0.0138 -0.1991 -0.2124
25008W        W40817  12.347  14.389  12.754  0.1524 -0.0418  0.0300
25009W        W40818  16.618  15.655  14.156 -0.2021  0.1121  0.1302
25010W        W40819  17.518  12.441   3.694  0.4740 -0.2086  0.1931
25011W        W40820  13.056   3.943   3.305 -0.1854  0.0159  0.0573
25012W        W40821  13.902   8.067  14.511  0.0031 -0.2116  0.0440
25013W        W40822   6.519   3.406  11.507 -0.0969 -0.0191 -0.2209
25014W        W40823   7.621  15.290  15.839  0.2031  0.3174  0.0342
25015W        W40824   3.130   0.463  13.176 -0.2290 -0.1462 -0.1050
25016W        W40825  10.421   7.238  13.776 -0.1902 -0.1070 -0.0723
25017W        W40826  11.032  16.185  12.487 -0.1723 -0.1110  0.4373
25018W        W40827  12.375   9.237  11.392 -0.3423 -0.1932 -0.0560
25019W        W40828  11.538   7.227  11.922 -0.0970  0.0780 -0.3442
25020W        W40829  13.581  15.212  12.974 -0.1726  0.0083 -0.1166
25021W        W40830  15.619   7.996  14.324  0.1986  0.0498 -0.0006
25022W        W40831   2.670   5.747  14.688 -0.0146  0.2174  0.4094
25023W        W40832   8.256  14.126   0.768  0.0339  0.0235  0.1263
25024W        W40833   3.074  10.459  12.676  0.0170 -0.3868 -0.0633
25025W        W40834   0.015   0.788  15.291 -0.3389  0.1344 -0.1762
25026W        W40835  12.576  14.829  11.832 -0.2150  0.1912  0.1097
25027W        W40836  11.520  11.345  12.398  0.0249  0.1183 -0.0915
25028W        W40837  18.218  13.239   4.488  0.0917  0.0244  0.1458
25029W        W40838  10.584  16.584   1.901 -0.2231  0.0224 -0.1875
25030W        W40839  15.145  12.184  12.655 -0.0837 -0.2622 -0.0379
25031W        W40840   0.948   8.578   0.645  0.0474  0.0235 -0.0011
25032W        W40841  17.155  17.363  16.093  0.0384 -0.0504  0.0099
25033W        W40842  15.613  11.797   2.890  0.0479  0.0553 -0.0064
25034W        W40843  11.167  14.281   0.440  0.1892  0.0588 -0.1445
25035W        W40844   4.344   5.070   4.987 -0.0995  0.0177  0.1753
25036W        W40845   2.134   3.444   1.300  0.2836 -0.0524 -0.0992
25037W        W40846   0.850  15.935   1.978 -0.2791  0.2367  0.2628
25038W        W40847   9.905  12.476  11.475 -0.3130 -0.0772  0.1996
25039W        W40848  13.368  16.620  15.407 -0.1325 -0.0408 -0.0245
25040W        W40849  16.935   2.583  13.403  0.0524 -0.2857  0.3452
25041W        W40850   5.253  13.144  14.509 -0.0043 -0.2508  0.1052
25042W        W40851   1.426   2.015  14.058  0.0602  0.1150  0.0690
25043W        W40852   7.341  13.138  13.496 -0.0382 -0.0739 -0.2266
25044W        W40853   6.041   0.380  13.271  0.1700 -0.1325  0.1001
25045W        W40854   1.971  14.155  13.334  0.0391 -0.1780 -0.1543
25046W        W40855   0.586   1.581   2.848 -0.2546  0.1363  0.0127
25047W        W40856   2.871   4.370  12.029 -0.0077 -0.0173 -0.0895
25048W        W40857  16.632   9.124   2.652  0.0448  0.0221  0.3107
25049W        W40858  16.233   4.916   3.527  0.1474  0.0153  0.4193
25050W        W40859  17.694   6.170  13.196 -0.0359  0.0029 -0.2636
25051W        W40860  12.415  12.678   1.061  0.0706  0.0532  0.2557
25052W        W40861  14.533  15.386  14.705  0.2343  0.0508  0.1316
25053W        W40862  10.121   8.618   3.266 -0.0994  0.2256  0.0919
25054W        W40863   2.678  17.667  13.682  0.1473  0.2883 -0.3570
25055W        W40864   4.686  13.657   1.553  0.0726 -0.2242  0.0833
25056W        W40865   7.094  18.078   2.122 -0.1831 -0.0294  0.1381
25057W        W40866  13.037  10.026   1.662  0.0319  0.0879 -0.1754
25058W        W40867   9.436  13.089  15.793  0.3519  0.5797 -0.1094
25059W        W40868  16.475  16.041  13.334  0.1811  0.1407  0.0912
25060W        W40869   9.412  15.775   0.655  0.2712  0.0235 -0.1087
25061W        W40870  13.081   2.030  13.164  0.3315 -0.0365 -0.0753
25062W        W40871   9.648  15.971   3.378  0.1141  0.0430 -0.3130
25063W        W40872   6.915   8.978   4.042 -0.1273 -0.0299 -0.2877
25064W        W40873  13.291  15.162   3.245 -0.0121  0.0576  0.0693
25065W        W40874   5.344  10.484  13.487  0.2474  0.0872  0.1907
25066W        W40875  11.177  13.167   4.979 -0.3124  0.0490  0.2050
25067W        W40876   5.678   8.173  15.644 -0.2608  0.1502  0.1096
25068W        W40877  17.300   6.517  13.454 -0.3811 -0.1875  0.3007
25069W        W40878  16.960   0.807   3.565  0.0932 -0.2679 -0.0463
25070W        W40879  12.583  11.204   5.545 -0.1628  0.3427 -0.2922
25071W        W40880   0.959   2.796   2.494  0.1625  0.0086 -0.1458
25072W        W40881   0.287   5.539  14.523 -0.1704 -0.1679 -0.0067
25073W        W40882  12.041   5.361  16.304  0.0381 -0.1606  0.3025
25074W        W40883  14.043  17.803  15.699  0.1807  0.0905  0.0580
25075W        W40884  17.436   3.961  14.558 -0.1338  0.1669  0.1577
25076W        W40885  12.621   1.776   0.224 -0.0625  0.0490  0.2234
25077W        W40886  17.479   7.901  13.937 -0.0693 -0.3011  0.4720
25078W        W40887   1.441   4.470   2.332  0.0295 -0.0165 -0.1973
25079W        W40888  11.882  12.250   0.963 -0.0421  0.3072 -0.2551
25080W        W40889  10.038  13.027   3.633 -0.0177 -0.0926 -0.1300
25081W        W40890   1.463  14.911   4.386 -0.1673 -0.1312 -0.0688
25082W        W40891   0.825  15.644   4.468 -0.2616 -0.1874  0.0532
25083W        W40892  17.792   6.920   1.997 -0.0413 -0.0224  0.0625
25084W        W40893   5.973  13.513  15.894  0.0285 -0.1263  0.2261
25085W        W40894  17.320   7.654  12.213  0.0190 -0.0938 -0.1041
25086W        W40895   4.916   7.048   3.001  0.0786 -0.0981  0.1484
25087W        W40896  13.231   2.068   0.840 -0.1850 -0.0187 -0.2794
25088W        W40897   4.824  10.959   3.246  0.1304  0.2304 -0.0188
25089W        W40898   6.496   9.834  16.284 -0.1158 -0.1262 -0.0098
25090W        W40899  12.298  18.132  11.166  0.0667  0.3367 -0.1528
25091W        W40900  15.355  13.755   3.718 -0.5130 -0.1148  0.0986
25092W        W40901  10.226  18.015  15.610  0.0076 -0.0916 -0.0823
25093W        W40902  17.371   0.211   5.446 -0.1640  0.0034  0.3204
25094W        W40903   0.742   9.749  16.201  0.0181 -0.1168 -0.2041
25095W        W40904   6.635   5.755   1.233 -0.1961  0.1308  0.0985
25096W        W40905  12.180  15.269  15.737  0.1104  0.1044  0.2775
25097W        W40906   7.087  11.020  12.803  0.0703  0.0344 -0.0856
25098W        W40907  17.846  14.432  14.227  0.3420 -0.2058  0.2390
25099W        W40908   5.033  11.403  14.533  0.0541 -0.1164 -0.2261
25100W        W40909   6.173   7.625  12.172 -0.0028 -0.0282 -0.1310
25101W        W40910   3.052   3.184   1.477  0.2918 -0.0708 -0.1861
25102W        W40911   3.255  14.104  13.847  0.0967  0.4723 -0.1221
25103W        W40912  18.066  17.932  13.905 -0.1362  0.1315 -0.0363
25104W        W40913  13.871  17.321  13.510  0.3473 -0.0173  0.0350
25105W        W40914  16.133  16.854   4.374  0.3847  0.2830 -0.1852
25106W        W40915  15.583   8.753   1.163 -0.3092  0.1478  0.1216
25107W        W40916  16.544  15.558  13.666  0.2396 -0.1079  0.4866
25108W        W40917   5.805  11.902   3.431 -0.1701 -0.5303  0.1611
25109W        W40918  15.140  11.213  13.985  0.0437 -0.1175 -0.2533
25110W        W40919   5.766  17.478   2.233 -0.0123  0.0439 -0.0392
25111W        W40920   9.214  17.544   2.756 -0.2376 -0.2776 -0.0999
25112W        W40921  12.123  13.865  15.728  0.0302 -0.3646 -0.0743
25113W        W40922   1.977  14.773   5.065  0.2891 -0.4074 -0.1071
25114W        W40923   8.258   0.416  11.316 -0.0719  0.0801  0.0333
25115W        W40924  17.731  14.393   3.471 -0.4240  0.3345 -0.0962
25116W        W40925   1.049   8.511   2.802 -0.0313 -0.0943 -0.0670
25117W        W40926   2.568  15.169   0.693  0.1374  0.0323  0.2839
25118W        W40927   3.046  18.189  16.123 -0.0072 -0.3109  0.0029
25119W        W40928  15.720  10.696  14.810 -0.0412 -0.1320 -0.0709
25120W        W40929  10.400   3.889  11.154  0.1907  0.1360  0.2355
25121W        W40930   1.756  15.986  12.060 -0.3380  0.0431 -0.0706
25122W        W40931  11.032  12.185   0.669  0.0611  0.1003 -0.4134
25123W        W40932  17.308  13.327   2.063  0.2110 -0.0965  0.1410
25124W        W40933  12.096   1.079   5.204  0.2020  0.1916  0.1119
25125W        W40934  17.960  12.016  14.295 -0.0172  0.0480  0.0747
25126W        W40935   3.945  13.748  11.715 -0.1477 -0.1534 -0.2437
25127W        W40936  17.970  15.790  14.070 -0.0850 -0.1682 -0.0980
25128W        W40937   3.835  12.426   4.680 -0.0601  0.1253  0.0039
25129W        W40938  17.981  15.802   4.901 -0.2445 -0.0940  0.0192
25130W        W40939  13.281   5.053  12.882  0.2130  0.1238 -0.2306
25131W        W40940   8.170   1.525  10.880 -0.2833  0.1022 -0.1994
25132W        W40941  16.292  10.358  16.284 -0.1960 -0.4161 -0.1921
25133W        W40942   9.909   4.027  13.144  0.1596  0.3347 -0.3223
25134W        W40943  17.669  10.896   4.002 -0.1056 -0.1826 -0.1865
25135W        W40944   8.597   0.550   0.330  0.2283 -0.3038  0.1927
25136W        W40945   5.509  13.761   2.434 -0.1250  0.0439 -0.2448
25137W        W40946  14.050  13.161  13.172  0.2009  0.0107  0.1901
25138W        W40947   4.096  10.164  15.983 -0.2661 -0.0610 -0.1823
25139W        W40948  17.864   3.343  14.718 -0.0868 -0.1048 -0.3151
25140W        W40949   2.286  14.282  11.536  0.0418  0.0847  0.1578
25141W        W40950  11.538  15.990   2.929  0.2781 -0.1088 -0.3850
25142W        W40951   1.697   4.954   6.355  0.1399  0.1880 -0.1947
25143W        W40952  10.518   6.109  16.023  0.0317  0.1508  0.5863
25144W        W40953  17.370   5.385   5.933  0.1320  0.1054 -0.0111
25145W        W40954  16.103   2.041  14.064  0.1884 -0.1547 -0.1289
25146W        W40955  11.989  17.767   1.150  0.1432 -0.1166  0.0369
25147W        W40956   7.133  11.619  14.528  0.1571  0.0486 -0.1293
25148W        W40957   4.826  15.459  15.305 -0.1101 -0.2050  0.4116
25149W        W40958   8.600  17.337  13.943 -0.1683  0.0852  0.0297
25150W        W40959   5.205  16.754  11.026  0.1845 -0.0136 -0.2157
25151W        W40960   3.914   5.087  11.465 -0.0016 -0.1620  0.2297
25152W        W40961   2.414  14.285  12.443  0.2297 -0.0332 -0.1266
25153W        W40962   5.686   8.508  11.518  0.3476 -0.2596 -0.0638
25154W        W40963  11.665  15.408  12.715 -0.0218 -0.0179 -0.3467
25155W        W40964   4.382   9.393  14.474  0.1386 -0.2396 -0.4352
25156W        W40965  14.863  12.046  13.504  0.1446 -0.2375 -0.3012
25157W        W40966   1.822   1.059   3.747  0.1559 -0.0757  0.0529
25158W        W40967   2.597  17.849   4.908  0.2370  0.1327  0.0134
25159W        W40968   9.106  10.741   4.444 -0.0315  0.2453  0.0370
25160W        W40969  17.454   4.979   0.911 -0.2439 -0.1936  0.0789
25161W        W40970  11.942  10.986  11.005  0.2563 -0.2287 -0.0650
25162W        W40971  13.528   5.617  11.790 -0.1918  0.0302 -0.2677
25163W        W40972   9.734   5.506  15.459 -0.2254 -0.0385 -0.2166
25164W        W40973  16.722   5.772   3.566 -0.2355 -0.1881  0.0808
25165W        W40974   0.101  17.380  14.604  0.0507 -0.1352  0.0437
25166W        W40975   7.362   2.856   5.783  0.1644  0.1833 -0.0840
25167W        W40976   5.282  17.036  14.408  0.3918  0.2462  0.3990
25168W        W40977  10.908   9.503  13.792 -0.1847 -0.1079  0.0672
25169W        W40978   0.117   7.907   0.319 -0.2251  0.4521 -0.0922
25170W        W40979   4.014   2.222   1.084 -0.2306  0.1669  0.1778
25171W        W40980   9.492   0.152  12.402 -0.1034  0.0378  0.3389
25172W        W40981   4.855  12.519   3.105  0.1426 -0.1305  0.5492
25173W        W40982   5.389  14.754   5.372 -0.1856 -0.1957 -0.0124
25174W        W40983   4.711  16.234  11.230  0.2626  0.1632  0.0383
25175W        W40984   4.262  15.508  11.188 -0.1277 -0.0082  0.1203
25176W        W40985   7.754  17.974   2.846  0.0069 -0.0012 -0.1333
25177W        W40986  16.158   2.744   0.520  0.0382  0.0043 -0.2105
25178W        W40987   8.550   5.673  12.432 -0.1052 -0.0884 -0.2387
25179W        W40988  18.044  10.833  12.689  0.0984 -0.2100  0.0907
25180W        W40989   9.483   8.076  11.918 -0.0337  0.2765 -0.1652
25181W        W40990   2.642  15.651  14.663 -0.0724 -0.0385 -0.0712
25182W        W40991   9.436   1.779   0.534 -0.0408  0.1611 -0.0134
25183W        W40992  12.512   6.072   4.567 -0.3669 -0.1564 -0.1060
25184W        W40993  13.530  14.661   2.486 -0.2403 -0.0687  0.0439
25185W        W40994   9.590   2.143   4.457 -0.0971 -0.1343  0.1434
25186W        W40995  16.764   2.705   4.813  0.0296  0.0781 -0.0214
25187W        W40996  17.605   6.633   3.684 -0.2378 -0.2765  0.1378
25188W        W40997  17.804  12.668  10.968 -0.0957  0.1696  0.1175
25189W        W40998  16.617   8.322   1.697  0.1104  0.0198  0.0356
25190W        W40999  17.771  14.661   1.620 -0.2952 -0.3691 -0.0999
25191W        W41000   9.268   3.897   5.661  0.1423 -0.2986  0.0371
25192W        W41001   0.347   5.846  11.748  0.1257 -0.0967 -0.2569
25193W        W41002  11.463   4.319   4.971 -0.0080 -0.1160  0.2109
25194W        W41003  18.009  13.601  13.220  0.0349  0.0003 -0.2520
25195W        W41004   3.400  10.430  14.444  0.1795  0.0799  0.0217
25196W        W41005   6.659   6.679   4.630  0.3761 -0.2054  0.0991
25197W        W41006  10.225  11.422   0.992 -0.2483 -0.4885 -0.1248
25198W        W41007  10.636   3.158   0.607 -0.0514 -0.0294  0.3084
25199W        W41008  10.769  11.636  14.496 -0.0310 -0.1343  0.1397
25200W        W41009   1.748  13.030  15.325 -0.0114  0.1010  0.1961
25201W        W41010  11.773   2.067   0.074  0.2928  0.0813 -0.0500
25202W        W41011  13.444   9.955  15.229 -0.1359  0.1946  0.1435
25203W        W41012   7.030   6.372   3.210  0.2075 -0.1648 -0.2447
25204W        W41013   3.015  16.789  14.443  0.4552 -0.1944  0.0644
25205W        W41014   4.986   2.785  12.403 -0.2354 -0.2064  0.0707
25206W        W41015   2.587   7.928   2.123 -0.2985 -0.0437 -0.2925
25207W        W41016  13.674  11.584   0.241  0.0180 -0.0402 -0.0223
25208W        W41017   7.498   5.752  16.114  0.1320 -0.2277 -0.2416
25209W        W41018   7.943  10.040  15.267 -0.1649  0.4565  0.0680
25210W        W41019  10.543   1.703   3.342  0.0326  0.0782 -0.2025
25211W        W41020   0.650   0.558  14.689  0.3775  0.0202 -0.0954
25212W        W41021   2.236   4.820   1.743  0.0594  0.2165 -0.1231
25213W        W41022   6.611  10.434   1.872  0.0618  0.0270 -0.0538
25214W        W41023   9.367  10.207  15.699 -0.1315 -0.2420  0.2103
25215W        W41024   6.735  11.643  13.978 -0.1599  0.3010  0.3927
25216W        W41025  16.771  13.755  11.892 -0.0177  0.0690  0.0213
25217W        W41026   4.640  16.839  13.426 -0.0166 -0.4047  0.0050
25218W        W41027  15.692   3.665  14.831 -0.0471 -0.0226 -0.1183
25219W        W41028  10.565   2.249  14.763  0.0908 -0.0385 -0.1106
25220W        W41029  11.349   2.538  12.931  0.0802 -0.0837  0.1221
25221W        W41030  13.572   2.122   3.103  0.2548  0.1870 -0.0471
25222W        W41031   2.847   0.859  13.234  0.4026 -0.2743 -0.1064
25223W        W41032   5.791   1.592   4.468  0.0928  0.0106 -0.0879
25224W        W41033   4.678  13.613  16.246  0.1917 -0.2096  0.1039
25225W        W41034   4.896  15.970   4.555  0.1548  0.0239 -0.0222
25226W        W41035   4.271   6.969   4.193  0.0571 -0.0262  0.0653
25227W        W41036   3.772  17.213   0.346 -0.0290 -0.3901 -0.0629
25228W        W41037   3.223  11.044  16.068 -0.0518 -0.2542 -0.1500
25229W        W41038  16.927  14.903   5.729 -0.1102 -0.0961  0.2803
25230W        W41039  11.143   1.795  15.623  0.2826 -0.2241  0.0937
25231W        W41040   3.829   8.648  13.230 -0.0258  0.1474  0.1743
25232W        W41041  15.093  13.539  15.639 -0.3200  0.2273  0.3141
25233W        W41042  16.065  15.363   4.043  0.0546  0.4236 -0.3487
25234W        W41043   0.653  18.185  12.728  0.0630 -0.1076 -0.1078
25235W        W41044   8.895   4.708  14.034 -0.3947 -0.1641 -0.3585
25236W        W41045   8.425   2.165  16.089 -0.1988  0.1578 -0.4154
25237W        W41046  12.684  16.409  12.067  0.1367 -0.0611  0.1934
25238W        W41047  13.416   6.284   0.587  0.0103 -0.0418  0.1879
25239W        W41048  17.099  17.784  12.389 -0.1460  0.2723  0.0375
25240W        W41049   7.864  18.154  15.616 -0.0577  0.0924  0.0577
25241W        W41050  14.442  14.076  15.608  0.0713  0.1662  0.2881
25242W        W41051  15.719   3.548   1.570 -0.1790 -0.0162  0.2285
25243W        W41052   4.171  17.457  10.167 -0.0007  0.2236  0.1377
25244W        W41053  10.326  16.774  11.589 -0.1555  0.1674 -0.0401
25245W        W41054  14.513  10.317   5.876 -0.0375 -0.3438  0.1852
25246W        W41055  16.405  17.283  14.512  0.1038 -0.1227 -0.1166
25247W        W41056  17.867   7.279   2.831 -0.1061  0.1152  0.0311
25248W        W41057   5.305  10.906   3.282 -0.2122 -0.0183 -0.0686
25249W        W41058   7.693  15.423   0.690 -0.1252 -0.0565  0.0174
25250W        W41059  11.152  12.540   0.264  0.0070  0.0122 -0.0988
25251W        W41060  15.805   3.458   6.385 -0.1125  0.0275 -0.1788
25252W        W41061   7.573   0.155   3.166  0.1183 -0.0306 -0.2226
25253W        W41062   7.069  16.504   5.005  0.0115 -0.0801  0.0844
25254W        W41063  13.453   1.857  12.880 -0.0213 -0.0631  0.0381
25255W        W41064  11.952   7.551   0.581 -0.1502 -0.1348  0.2749
25256W        W41065   0.887  11.875  11.839  0.4168 -0.0195 -0.0764
25257W        W41066   6.416  17.753  16.263 -0.1118 -0.0014  0.2832
25258W        W41067   3.824  15.637  13.884 -0.1187  0.4122  0.0701
25259W        W41068  17.000  10.169   0.424  0.0584  0.1963  0.0599
25260W        W41069  15.889  12.554   4.802  0.1101 -0.0058 -0.0984
25261W        W41070  14.623  14.215  12.201  0.2388  0.3322  0.2080
25262W        W41071   9.809   7.120   4.705  0.0335  0.6211 -0.0800
25263W        W41072  10.358   6.826  15.351 -0.1556  0.0067 -0.2503
25264W        W41073   7.560  14.476   4.299  0.1343 -0.0335 -0.0580
25265W        W41074   0.648  12.954  16.111  0.2765 -0.3165  0.3911
25266W        W41075  11.565  16.500   0.360 -0.0232 -0.0141 -0.1570
25267W        W41076   1.137  14.429  11.230 -0.1936  0.3380 -0.3672
25268W        W41077  15.326  16.146  11.413  0.1272  0.1368  0.0064
25269W        W41078  12.435   0.773   4.208 -0.1735  0.3680 -0.1036
25270W        W41079   2.504  10.392   4.037 -0.3793 -0.1235 -0.1684
25271W        W41080   8.875   5.314  14.355  0.1736 -0.3673  0.1411
25272W        W41081  11.008   9.371   4.555  0.0900  0.0587  0.1699
25273W        W41082   0.439  14.511  14.809 -0.0970 -0.0410  0.3286
25274W        W41083   7.845  11.501   1.626  0.1748  0.0724  0.1234
25275W        W41084  11.015  13.469  13.372 -0.1328 -0.3068  0.0962
25276W        W41085   8.120   9.098  13.446 -0.1762 -0.0040 -0.2059
25277W        W41086  13.850   9.455  12.337 -0.0470 -0.0112 -0.2967
25278W        W41087  17.227  13.100  14.199 -0.3599  0.1015  0.1022
25279W        W41088  12.040   2.539  12.253 -0.2339 -0.1100  0.1119
25280W        W41089   7.447  10.219   2.810 -0.0670 -0.1626 -0.1306
25281W        W41090   9.118   8.878   4.065 -0.3492  0.2964  0.0949
25282W        W41091   8.430  11.280   0.643 -0.1109  0.1571  0.0037
25283W        W41092   7.835   7.544  11.157  0.2297  0.1719 -0.1492
25284W        W41093  11.292   6.737  11.267 -0.0942  0.0400 -0.1829
25285W        W41094   8.611  11.747  12.019 -0.0639  0.0132 -0.2501
25286W        W41095  13.483   5.294   4.568 -0.0452 -0.1371 -0.1295
25287W        W41096  13.510  10.357  16.081 -0.2199  0.3076  0.1150
25288W        W41097   1.376   2.319   3.843  0.1502 -0.0169 -0.0122
25289W        W41098   9.118   5.712   4.506 -0.2389  0.1102  0.3767
25290W        W41099   4.728  11.873  13.825 -0.1896  0.0276  0.2725
25291W        W41100   5.515   8.065  14.172 -0.0130  0.0805 -0.1667
25292W        W41101  17.196  17.922  14.852  0.1040  0.2049  0.0534
25293W        W41102   8.688  16.566   5.613  0.2409 -0.1757 -0.3803
25294W        W41103   1.408   7.627   3.612 -0.2003  0.1860  0.1232
25295W        W41104   2.897   2.665  14.044 -0.3518 -0.1476  0.2901
25296W        W41105   4.672   2.016   0.616 -0.3638 -0.1871  0.0247
25297W        W41106  14.783   7.587  10.843  0.0139  0.3204 -0.2479
25298W        W41107  15.867   3.568   0.360  0.0568  0.4745  0.1007
25299W        W41108   7.070   9.563   1.714  0.0128  0.1236  0.1488
25300W        W41109  17.407  11.025   2.928  0.2689  0.0991 -0.0334
25301W        W41110  17.609  11.768  15.570 -0.0933  0.0865  0.3728
25302W        W41111   7.054  10.075  15.413 -0.1725  0.0568 -0.0391
25303W        W41112  16.614  17.975   4.178 -0.2845 -0.3022  0.3667
25304W        W41113  12.950   8.997   0.015  0.1845 -0.1023  0.0240
25305W        W41114   8.986   5.367   3.639 -0.6666 -0.1075 -0.4353
25306W        W41115   1.054   9.214  11.062  0.1345  0.1296  0.0442
25307W        W41116   1.148   4.113   1.098 -0.3889 -0.0077 -0.1649
25308W        W41117   5.098  17.629   1.674  0.1103  0.1596 -0.1217
25309W        W41118   6.892   8.404   1.176  0.3130 -0.1345  0.0757
25310W        W41119   2.805  16.828   3.388  0.0656 -0.2014 -0.1770
25311W        W41120  11.210   3.147  15.899 -0.1015 -0.2466  0.0642
25312W        W41121   5.952  10.687  15.327 -0.3403  0.0037 -0.0657
25313W        W41122   8.636   4.550   0.349 -0.2584  0.0092 -0.0473
25314W        W41123  12.345  13.218   1.954 -0.1560 -0.0060 -0.0096
25315W        W41124  15.883  11.287   2.740 -0.1149 -0.1176 -0.0066
25316W        W41125   6.814  10.908  15.082  0.3734 -0.3713 -0.0317
25317W        W41126  15.120   6.221  11.746 -0.0781 -0.2021  0.0912
25318W        W41127  15.011   1.456  15.955 -0.2119  0.3738 -0.0107
25319W        W41128   0.761   0.488  14.160 -0.0284  0.0059  0.0955
25320W        W41129  12.666   1.210   0.159 -0.0957  0.0125  0.0300
25321W        W41130  13.079   1.166  13.575 -0.2306 -0.2484 -0.0802
25322W        W41131  17.079   0.918   4.112  0.1970 -0.1017 -0.3909
25323W        W41132  13.494  17.311   5.970  0.1766  0.0692 -0.1715
25324W        W41133  17.135  11.815  13.045  0.0114 -0.2051 -0.3471
25325W        W41134  15.451   2.190  12.381  0.4300 -0.0493 -0.1915
25326W        W41135   6.758   3.901  11.427  0.1865  0.1297  0.1996
25327W        W41136   2.133  10.440  16.034  0.1753 -0.0043  0.3749
25328W        W41137   0.788   5.010  13.339 -0.4072  0.2383  0.2004
25329W        W41138   7.971   5.591   0.516 -0.1191 -0.0583  0.2879
25330W        W41139   8.282   5.241   0.706  0.2414 -0.2032 -0.0474
25331W        W41140   7.197   3.975  15.408 -0.0667  0.2666 -0.3384
25332W        W41141   2.553   8.374  13.250 -0.0852  0.2581 -0.1137
25333W        W41142  18.138  16.434  12.153  0.1001  0.0035  0.1238
25334W        W41143   7.527  15.925   0.881 -0.6586  0.2698  0.2038
25335W        W41144   8.198  11.206  12.781  0.0755  0.1606  0.3902
25336W        W41145  14.802  14.252  16.174  0.3202  0.0358  0.1946
25337W        W41146   2.026  14.104   3.350  0.1103  0.0579 -0.2608
25338W        W41147  15.140  11.872   1.688 -0.0831 -0.2162  0.0612
25339W        W41148   5.225  12.854  12.161  0.2515 -0.0810  0.0209
25340W        W41149   4.595   1.580  12.782 -0.0682 -0.0692 -0.0917
25341W        W41150  15.401   6.921   3.334  0.1621 -0.3452 -0.3104
25342W        W41151   5.482  14.238   2.532 -0.0082 -0.1767 -0.3242
25343W        W41152   2.354  17.275   0.715  0.2623 -0.2521 -0.0858
25344W        W41153   2.199   2.636  13.256  0.3803  0.2268 -0.2856
25345W        W41154  17.921  12.684   4.958 -0.0282  0.2548 -0.0736
25346W        W41155  15.510   0.214  14.510  0.1135 -0.0816  0.1083
25347W        W41156   4.061   1.549   4.024 -0.2125  0.1622  0.1592
25348W        W41157  16.733  11.530   2.391 -0.0901  0.0657 -0.0314
25349W        W41158  17.401  16.758   1.877 -0.1086  0.0650  0.4000
25350W        W41159  17.537  16.911   6.186 -0.0509  0.1880 -0.1495
25351W        W41160  12.078  11.835   5.080  0.2363 -0.0306  0.0013
25352W        W41161   8.815  18.058   1.049 -0.0750  0.1212  0.3216
25353W        W41162   8.794   9.544  14.068  0.1945 -0.0420 -0.3193
25354W        W41163   1.141   6.466  14.935 -0.1653  0.0289  0.2117
25355W        W41164   5.915   8.618  15.843  0.1334  0.1909 -0.3074
25356W        W41165  12.846   8.351  13.031 -0.1859 -0.1096  0.2082
25357W        W41166   6.928   6.640   1.718  0.0840 -0.2089  0.0419
25358W        W41167   4.124  16.144   0.061  0.0412  0.0161  0.1970
25359W        W41168  13.481  10.001  12.054  0.1187 -0.1816 -0.0218
25360W        W41169  10.072   6.749  11.415  0.0156  0.1727 -0.1370
25361W        W41170   6.183  14.829   3.297 -0.0234  0.1598  0.2323
25362W        W41171   6.869   8.989  14.425  0.0155  0.2114  0.0745
25363W        W41172  10.706   0.107  15.154 -0.0093 -0.1110  0.4437
25364W        W41173   5.595  16.746  15.658 -0.0080 -0.1543  0.1056
25365W        W41174   3.451   5.376  14.655  0.0038  0.3556 -0.1520
25366W        W41175  14.677   9.292  15.100  0.1038  0.0164 -0.1841
25367W        W41176   7.028   1.369  13.255  0.0810 -0.1420 -0.1569
25368W        W41177  12.613   3.397  12.148  0.0127 -0.1409 -0.0939
25369W        W41178   7.159  15.490   4.629 -0.0264 -0.2405  0.0686
25370W        W41179   1.661   0.640  14.971  0.1554  0.1878 -0.0087
25371W        W41180   9.258  15.868   6.090  0.3876 -0.0886 -0.1147
25372W        W41181  15.696   1.688  12.359  0.0634  0.3020 -0.4215
25373W        W41182  16.734   6.374   2.820 -0.1668 -0.0465 -0.1455
25374W        W41183   0.961   7.628   5.547 -0.1080 -0.1456  0.1657
25375W        W41184   9.928  17.009   4.542 -0.3172 -0.0680 -0.0857
25376W        W41185   6.006  12.409  12.922  0.0334  0.0807  0.0750
25377W        W41186   3.259  14.375  11.614  0.2543  0.1493 -0.1655
25378W        W41187   4.819   1.592  11.834  0.1159  0.0760 -0.1121
25379W        W41188   5.638   9.377   4.746  0.0192 -0.2857  0.1031
25380W        W41189  13.109  14.475   0.152 -0.2536  0.3095  0.0612
25381W        W41190   3.837   5.748   0.549 -0.0023 -0.0737 -0.0816
25382W        W41191   8.561   8.782  12.801  0.1715  0.1281  0.0279
25383W        W41192   6.151  13.910   3.121 -0.2451  0.2775  0.0509
25384W        W41193   1.872  18.018   1.647 -0.0257  0.1495 -0.1556
25385W        W41194  14.937  15.545  14.346  0.0844 -0.0099  0.3082
25386W        W41195   0.080  14.861  13.944 -0.3119 -0.4100  0.0899
25387W        W41196   9.528  16.665   2.754 -0.0007 -0.0015 -0.0672
25388W        W41197  16.134   0.976  12.071  0.1250 -0.0452  0.2422
25389W        W41198   0.836   5.036   3.520  0.2547  0.0246  0.0482
25390W        W41199   3.863  13.551  11.210 -0.2480 -0.1879  0.1136
25391W        W41200  14.641   9.328   5.212 -0.0689  0.0437 -0.1876
25392W        W41201  15.180  15.508   0.244  0.2059 -0.0051 -0.3190
25393W        W41202   4.016   6.648  14.270  0.2079  0.1016 -0.0900
25394W        W41203  11.985   6.514  12.288  0.0268  0.1599 -0.0674
25395W        W41204   4.414  11.600  13.463  0.0645 -0.0779 -0.2681
25396W        W41205   1.822   5.799  11.774 -0.3078  0.2209 -0.0161
25397W        W41206   9.351   3.296   0.018  0.1852 -0.2872  0.0570
25398W        W41207   2.202   9.375   1.640  0.0427 -0.0930 -0.0666
25399W        W41208  14.020  11.356  14.102 -0.0070  0.1853  0.0390
25400W        W41209  12.174   4.939  14.073 -0.0669  0.1020  0.0144
25401W        W41210  12.778  11.720   1.715  0.2177 -0.5654 -0.0083
25402W        W41211   1.885  15.618   0.561  0.1019  0.2325 -0.1341
25403W        W41212   6.338   9.630   3.241  0.1451 -0.1920 -0.3390
25404W        W41213   1.559  15.076   2.688 -0.1847  0.3214  0.1674
25405W        W41214   9.887   2.106   5.283 -0.0593 -0.1976 -0.3728
25406W        W41215   3.611   7.175  15.265  0.1529 -0.1026  0.0327
25407W        W41216  14.667   0.644  16.115  0.0949  0.0635  0.1038
25408W        W41217   5.862  18.024   5.420  0.2641  0.1926 -0.0604
25409W        W41218  16.525   7.744  14.708  0.1371  0.3201 -0.1043
25410W        W41219   3.944  13.976   3.229 -0.0051  0.0165 -0.4394
25411W        W41220  11.269  12.175  11.054 -0.3354 -0.0148 -0.0914
25412W        W41221   1.713   6.626   2.663  0.1929  0.0976  0.3391
25413W        W41222  17.397  13.652   0.379  0.1803 -0.0060 -0.1778
25414W        W41223   7.184  14.000  11.314  0.1956 -0.3548  0.1948
25415W        W41224   1.654   4.513  12.251  0.2136  0.1292 -0.0710
25416W        W41225  15.914   9.652  11.292 -0.0151  0.1836  0.0677
25417W        W41226  13.419   2.058   4.100 -0.2845 -0.3062 -0.1001
25418W        W41227   9.942   3.267   3.238 -0.1003 -0.0241 -0.0314
25419W        W41228  15.362  13.522   2.818 -0.0295 -0.0720  0.1015
25420W        W41229  17.548   5.779  15.357 -0.1157 -0.2330 -0.1201
25421W        W41230  16.046  13.226  12.704 -0.2402  0.0614 -0.2161
25422W        W41231   6.695   0.481  10.863 -0.1348 -0.2806 -0.0949
25423W        W41232  11.228  13.248   1.875  0.1873 -0.3288  0.0260
25424W        W41233   4.736   8.460  14.824 -0.3056  0.2695 -0.2830
25425W        W41234   8.307  16.840   2.320 -0.2120 -0.1522  0.1692
25426W        W41235  18.101  12.024  11.791 -0.3153 -0.0945 -0.1051
25427W        W41236  13.979   7.116   2.618  0.1417  0.1493 -0.2845
25428W        W41237  10.057  18.197   2.480 -0.1576 -0.1916 -0.3703
25429W        W41238  13.068   6.300  12.157  0.0356  0.0863 -0.0786
25430W        W41239   8.635  11.711  13.306 -0.2385 -0.2555  0.1902
25431W        W41240  14.064   6.288  13.705  0.3302  0.1327  0.1390
25432W        W41241  12.621   0.191   4.917 -0.2312 -0.1864  0.1019
25433W        W41242   3.733  16.314   0.326  0.1572  0.3766 -0.0184
25434W        W41243  11.462   9.235  14.034  0.1579 -0.0229  0.2260
25435W        W41244  10.168   3.588   5.351  0.0645 -0.0040 -0.1146
25436W        W41245  11.919  17.719  11.777  0.0389  0.3076 -0.0187
25437W        W41246   0.687   0.389  11.584  0.0580 -0.0610  0.1370
25438W        W41247  17.271  11.931  14.894  0.2092 -0.0945 -0.1606
25439W        W41248  15.676   3.022  13.477 -0.1829 -0.1341 -0.1152
25440W        W41249   8.268   8.234   3.227 -0.1146 -0.3630  0.1786
25441W        W41250  14.515  11.248  11.528 -0.2441 -0.0609  0.1783
25442W        W41251  16.077   5.353   2.098 -0.3456  0.1581 -0.5234
25443W        W41252   9.074   3.210  14.483  0.0869 -0.0343  0.0604
25444W        W41253  12.174   4.071  11.568 -0.2024  0.1861  0.0934
25445W        W41254  14.380  12.919  11.942  0.0081  0.1613 -0.3611
25446W        W41255  11.416  16.838   2.702 -0.3828  0.0111 -0.2061
25447W        W41256   1.596  17.483  15.021 -0.0083 -0.2744 -0.0340
25448W        W41257   4.497   1.152  13.601 -0.1694 -0.0124  0.3532
25449W        W41258  17.626  11.610  15.002  0.2865 -0.2283  0.0089
25450W        W41259   1.986  14.980   0.072 -0.0797 -0.2056 -0.1083
25451W        W41260   7.827   5.828   5.491 -0.0438  0.2269  0.1054
25452W        W41261   8.441  12.342  15.976  0.2019  0.0146  0.0436
25453W        W41262   7.732   3.192  15.048  0.1515 -0.1526 -0.0234
25454W        W41263  14.307  11.600  11.264  0.2873 -0.1950 -0.4577
25455W        W41264  14.949  11.236  11.313 -0.1128 -0.0406 -0.1161
25456W        W41265   3.276   8.378   1.617  0.0899 -0.1427 -0.0165
25457W        W41266   5.040  17.945   2.184  0.0059  0.2687  0.2090
25458W        W41267  11.854  17.276  11.496  0.0370  0.0592  0.6064
25459W        W41268  16.592  11.763  13.452  0.2334 -0.2642 -0.6342
25460W        W41269   7.524   9.014   4.550 -0.2606 -0.2149  0.1088
25461W        W41270  12.870  15.847  14.241  0.1687  0.0793  0.1994
25462W        W41271  14.723  12.116   6.068  0.2564  0.3090 -0.0738
25463W        W41272   0.902   7.392   2.077 -0.0759 -0.0487 -0.1459
25464W        W41273  14.461  11.046   1.668 -0.0107  0.0041  0.1090
25465W        W41274   0.832   8.985   2.051  0.3280 -0.2306  0.1848
25466W        W41275  18.196  17.464  13.830 -0.1251  0.4336  0.0429
25467W        W41276   8.363  12.836  14.426  0.2478  0.0263 -0.0968
25468W        W41277  16.463   3.166   1.509 -0.2480  0.3744  0.1778
25469W        W41278  10.508  12.528   5.050 -0.3504  0.0599 -0.1426
25470W        W41279  13.393  14.230   4.334  0.1614  0.2551 -0.5497
25471W        W41280  16.753  12.206  13.717 -0.1726  0.0546  0.0870
25472W        W41281  12.268   3.368   1.180 -0.1650 -0.1232 -0.2441
25473W        W41282   2.398   6.194  11.138 -0.0498 -0.0359 -0.1024
25474W        W41283  17.108  16.699   2.430  0.0926 -0.0792  0.2178
25475W        W41284  12.938   9.482  11.160 -0.0327 -0.0811  0.1663
25476W        W41285   5.583  15.943   1.949 -0.2096  0.0595  0.3467
25477W        W41286   5.741  17.275   2.911  0.0240  0.2499  0.0435
25478W        W41287  13.763   4.447   5.581  0.1347 -0.2898  0.2910
25479W        W41288  15.850   4.708   4.295  0.2264 -0.0665 -0.1816
25480W        W41289  17.187   9.252  13.230  0.4025  0.0321  0.0319
25481W        W41290  17.537   8.267  16.067 -0.1094  0.2099 -0.1475
25482W        W41291  11.570  17.955  12.053  0.0516  0.0577 -0.0116
25483W        W41292   9.486   6.712  16.050  0.1195 -0.0480 -0.2306
25484W        W41293  10.701   8.075  15.381  0.1196  0.1290  0.0612
25485W        W41294   0.292  15.862  13.225 -0.1895 -0.0747  0.0569
25486W        W41295   3.476  15.724   2.957 -0.0197 -0.0776 -0.1804
25487W        W41296   3.547  11.196   5.557  0.0026  0.3215  0.1438
25488W        W41297  16.238  11.468  14.857  0.2155 -0.2826  0.4505
25489W        W41298  12.291   2.881  13.204 -0.2308 -0.0071 -0.0890
25490W        W41299   9.547   5.475  12.609 -0.3739  0.5696  0.0137
25491W        W41300  17.137   0.256   3.159  0.3728  0.3227 -0.1505
25492W        W41301  15.024   1.138   5.501 -0.3096 -0.3137  0.1789
25493W        W41302   0.030   4.089   1.811 -0.1408 -0.4678 -0.1616
25494W        W41303   1.862  14.715   4.610  0.0256 -0.1194 -0.1319
25495W        W41304  13.573  13.691   4.047 -0.1190 -0.0275 -0.1806
25496W        W41305  14.630  17.942  11.446 -0.2626 -0.0387  0.3145
25497W        W41306   3.903   0.252   4.412 -0.0213 -0.2233  0.0854
25498W        W41307  17.191   8.512   0.048  0.0548  0.1671 -0.0466
25499W        W41308  13.663  17.241  11.639  0.1853 -0.1211 -0.0355
25500W        W41309   1.983  17.288  15.459  0.0164  0.0284  0.0024
25501W        W41310   1.492  17.328   0.366  0.2261 -0.3035  0.0178
25502W        W41311  14.389   9.362  11.429 -0.0838  0.1125 -0.0901
25503W        W41312   6.665  15.718  11.273 -0.4579  0.1068 -0.1992
25504W        W41313  16.630  14.002  12.623 -0.1178 -0.1266 -0.2375
25505W        W41314  12.221  10.606  13.181 -0.3608  0.2600  0.2628
25506W        W41315  15.672   0.881   0.842  0.1096  0.1706  0.0566
25507W        W41316  11.893   2.932   0.153 -0.1759 -0.0059 -0.0821
25508W        W41317   5.482   4.447   0.968 -0.2313  0.1785 -0.0707
25509W        W41318  15.672  12.386  13.828  0.1497  0.0332  0.1323
25510W        W41319  16.090   8.700  13.161 -0.2149 -0.1695  0.2825
25511W        W41320  16.333  13.892   3.522  0.1620 -0.1361 -0.2444
25512W        W41321   1.676   0.682   2.213  0.0737 -0.1232 -0.0745
25513W        W41322   9.882  15.824  13.636  0.0506 -0.1243 -0.1673
25514W        W41323   5.967  14.931  15.085 -0.0479 -0.0171  0.1122
25515W        W41324  12.830   5.098   2.833 -0.2013 -0.1099 -0.0286
25516W        W41325   6.877  15.895   2.909 -0.2952  0.6156 -0.1537
25517W        W41326   9.063   0.484   1.645  0.0447 -0.0303  0.0085
25518W        W41327   8.162   2.650   3.396 -0.0818 -0.0853 -0.0459
25519W        W41328   7.939  14.052   4.252 -0.1654 -0.4170 -0.2769
25520W        W41329   7.700   0.687   2.299  0.0613  0.1279 -0.0048
25521W        W41330   4.917   1.690   0.962  0.0853 -0.0779  0.1745
25522W        W41331  10.637  11.520  11.281 -0.0837 -0.2203  0.1720
25523W        W41332   1.121   9.838   4.941 -0.0386 -0.1255  0.2285
25524W        W41333   2.689  16.668   1.286 -0.2582 -0.1625  0.0293
25525W        W41334   2.188   8.467  12.842  0.0295  0.1140 -0.1097
25526W        W41335   0.741  13.433   2.982 -0.0321 -0.2249  0.1118
25527W        W41336  15.333  13.240  13.782 -0.1339 -0.2991 -0.3506
25528W        W41337  12.146   1.592   0.885  0.1476  0.1367 -0.1407
25529W        W41338   1.553   6.934  15.017 -0.1554  0.0339  0.0642
25530W        W41339  12.138  10.515   4.569 -0.0981  0.2619  0.0855
25531W        W41340   0.844   9.699   2.889 -0.0072  0.0548 -0.1549
25532W        W41341   1.048   3.461  14.817  0.4068  0.3124  0.0080
25533W        W41342   0.663   4.729   4.042 -0.0404 -0.1474  0.2373
25534W        W41343  14.167   2.549  12.319 -0.2662  0.0539 -0.1499
25535W        W41344  11.555   3.789   4.547  0.4722  0.0243 -0.3166
25536W        W41345  14.959  13.203  13.325 -0.0889 -0.0765 -0.1507
25537W        W41346  17.187   5.687   3.498  0.1578  0.0771  0.1231
25538W        W41347   4.280   0.103   2.538 -0.2502 -0.0876 -0.0188
25539W        W41348  12.848   0.875  16.135 -0.1988  0.0004  0.0790
25540W        W41349  11.875  14.173  12.172  0.1490  0.3051  0.1059
25541W        W41350   9.181  10.405  13.322 -0.1390  0.0865  0.0688
25542W        W41351  13.667   0.860   5.231 -0.1485  0.1170 -0.0842
25543W        W41352   9.490  16.926  11.196 -0.0422 -0.1141 -0.1425
25544W        W41353   3.585  14.434  11.155 -0.2013  0.2940 -0.1529
25545W        W41354  10.200   0.821   5.798  0.7010  0.0147 -0.2168
25546W        W41355  13.922  13.675   4.483  0.2181 -0.0152  0.0636
25547W        W41356   0.384   4.720  13.155 -0.0157  0.1220 -0.1295
25548W        W41357   1.268   9.520   4.131 -0.0646  0.0105  0.2055
25549W        W41358  17.794  13.980   5.525 -0.0408 -0.0252 -0.0231
25550W        W41359  15.831   6.438   0.773  0.2290 -0.2422 -0.1304
25551W        W41360  12.426   5.960   4.062  0.2321 -0.0168  0.0817
25552W        W41361  16.137  10.291  15.729 -0.3277 -0.0551 -0.3224
25553W        W41362   5.849  11.285  13.361  0.0395  0.1568  0.0438
25554W        W41363  17.299   2.275   0.611  0.1408 -0.0521 -0.0233
25555W        W41364  11.201   1.222  12.894 -0.0087 -0.0218 -0.0472
25556W        W41365  17.960   8.294   5.281  0.2590 -0.2025 -0.1224
25557W        W41366  17.657  15.479  14.919  0.0943 -0.1268 -0.0369
25558W        W41367   4.769   8.232   3.406 -0.0168  0.0131  0.0908
25559W        W41368  14.328   4.636   2.326 -0.1592  0.0037  0.0134
25560W        W41369   0.823   3.641  11.743  0.2185 -0.2589 -0.1660
25561W        W41370   6.745   6.323   3.603  0.0370  0.0536  0.1248
25562W        W41371   4.279  17.592   2.131  0.0284  0.2112 -0.0734
25563W        W41372   0.205   1.004   1.466  0.1454  0.0306 -0.2019
25564W        W41373   5.480  11.646  14.298  0.1879 -0.0020 -0.1449
25565W        W41374  12.913  10.649  14.364  0.1466  0.0758 -0.0184
25566W        W41375   6.115   8.736  11.566 -0.2730  0.0578  0.0658
25567W        W41376   4.461   4.591  12.057  0.2848 -0.1900  0.1033
25568W        W41377  14.026   6.449  11.848 -0.1881 -0.1413 -0.1441
25569W        W41378  10.317  15.231   4.423  0.2497 -0.1395  0.1845
25570W        W41379  16.130  16.843  15.529  0.1153  0.0634  0.2349
25571W        W41380  10.831   6.542  14.340 -0.2350  0.1994  0.1720
25572W        W41381   2.057  13.489  15.334 -0.1673  0.0401  0.0191
25573W        W41382   1.291  12.042  14.224  0.2514 -0.3531 -0.2349
25574W        W41383  17.447  15.165   2.215 -0.1604 -0.1063 -0.1577
25575W        W41384   4.863   2.207  11.125  0.0950  0.1454  0.4199
25576W        W41385  13.479   9.484  11.170  0.1769  0.1066 -0.1951
25577W        W41386   4.895   7.172  16.153  0.0149 -0.2801  0.0293
25578W        W41387   0.368  16.567   3.907 -0.2249 -0.3652 -0.1728
25579W        W41388  11.644  13.053  13.926 -0.0324 -0.1526  0.2033
25580W        W41389   0.141   8.739  14.742 -0.0424 -0.1446 -0.0064
25581W        W41390   0.632   3.368   2.998 -0.1853  0.1247 -0.2342
25582W        W41391  13.012   3.767  12.106 -0.0544  0.0312 -0.0375
25583W        W41392   6.591   6.979  16.364 -0.0825 -0.0974 -0.0744
25584W        W41393  16.266  13.848   0.938 -0.0135 -0.0100 -0.0173
25585W        W41394  17.124   1.854  11.547  0.1468 -0.0071 -0.1037
25586W        W41395   3.138   7.271  13.190 -0.1144  0.1116  0.2787
25587W        W41396   9.028   7.803  11.922 -0.1140 -0.2651  0.1948
25588W        W41397   9.413  17.412   2.211  0.1567  0.2667 -0.1950
25589W        W41398  18.106   0.001  12.564 -0.3162  0.1413  0.2028
25590W        W41399  16.113   1.477  15.759  0.0712 -0.1379  0.0703
25591W        W41400   4.005   9.924  11.654  0.2353  0.0919  0.0273
25592W        W41401   6.199  14.627   0.493  0.2132  0.0740  0.0239
25593W        W41402   3.971  16.637  16.359  0.1920  0.1199  0.2843
25594W        W41403   2.866  16.762   5.125 -0.1171  0.3284  0.2864
25595W        W41404   0.928   3.292   2.058 -0.0646 -0.1061  0.1445
25596W        W41405  14.190   4.980   0.846 -0.0241  0.1661  0.2165
25597W        W41406  13.983  10.506  15.128 -0.0976  0.2199 -0.0463
25598W        W41407   4.651  10.575   4.915  0.0925  0.2277  0.2015
25599W        W41408   4.267   1.690  10.071  0.0917 -0.1272 -0.2352
25600W        W41409   7.342   5.352   2.524  0.0634 -0.0464 -0.3212
25601W        W41410  12.057   9.440   0.760 -0.2277 -0.2429 -0.0956
25602W        W41411  14.605  10.584   1.895  0.0280  0.0671  0.0079
25603W        W41412   3.094   9.753   0.447 -0.0374 -0.0237 -0.0223
25604W        W41413   8.121   6.780   5.954  0.2506  0.0885  0.1858
25605W        W41414   9.671   3.307  15.973 -0.1132  0.3265  0.0676
25606W        W41415   7.603   3.263   2.559  0.1047 -0.1228  0.1601
25607W        W41416   0.468  16.243   4.297 -0.0333 -0.0985 -0.0584
25608W        W41417   8.771  12.580   2.645 -0.1795  0.1584  0.0282
25609W        W41418   2.275  15.285  12.552  0.0781 -0.0032  0.1231
25610W        W41419  12.459   7.241   0.366  0.3941  0.2843  0.0778
25611W        W41420  12.518   0.655  14.613 -0.0669  0.2307  0.0818
25612W        W41421   2.580  12.476   2.489  0.1015 -0.0673  0.2076
25613W        W41422  15.593  11.896   3.401 -0.0961 -0.2817 -0.0165
25614W        W41423   3.524   4.698   2.743 -0.0285 -0.1593  0.0616
25615W        W41424   5.093  11.376   2.466 -0.3834 -0.0235 -0.1423
25616W        W41425  14.105   3.660   4.432 -0.0378  0.1118 -0.0434
25617W        W41426  17.689   2.988   5.196  0.3264  0.1288 -0.2439
25618W        W41427   9.539  14.671  13.025 -0.0329  0.1407  0.0373
25619W        W41428  14.689  15.502   3.284  0.1882 -0.0737 -0.1404
25620W        W41429  10.936   4.100   3.737 -0.0123  0.0276 -0.0802
25621W        W41430   3.549  16.385  12.687  0.1279  0.1102  0.1441
25622W        W41431   6.115  12.910   0.349 -0.1276 -0.0869  0.4204
25623W        W41432  17.231   2.433  12.758  0.2160 -0.2728 -0.1738
25624W        W41433  10.334  10.147  15.434  0.0170  0.2504 -0.0546
25625W        W41434   3.745  17.278  12.287  0.0824  0.0244  0.1921
25626W        W41435  16.281   8.317   2.615 -0.4119 -0.1201  0.1339
25627W        W41436   6.928  15.174   5.569 -0.0191 -0.1015 -0.0854
25628W        W41437   6.402  10.919   3.510 -0.1750 -0.0057 -0.2677
25629W        W41438  14.582  11.588   4.707  0.0178 -0.1530 -0.1429
25630W        W41439   9.678  11.532   1.199 -0.0592 -0.1018  0.1780
25631W        W41440  10.178  17.648  13.127 -0.1882 -0.1761  0.1508
25632W        W41441  17.512  13.642  16.254  0.3398 -0.2669  0.0410
25633W        W41442  14.531   8.745  12.057 -0.0760 -0.0802  0.0978
25634W        W41443   4.503  16.156   4.818 -0.0615 -0.0091 -0.1167
25635W        W41444  16.423  13.841   2.246  0.0442  0.1807  0.0290
25636W        W41445   3.501   7.413  12.169 -0.3199  0.4231  0.0393
25637W        W41446  16.807  15.557   0.453  0.2784  0.1834 -0.3606
25638W        W41447   8.879  17.333   5.029  0.1815  0.1911  0.1025
25639W        W41448  12.005   5.505   5.129 -0.3187  0.0202 -0.1159
25640W        W41449   0.924   4.507   0.778 -0.0173  0.2660 -0.0646
25641W        W41450   1.925   9.720   2.829 -0.0196  0.0744 -0.3479
25642W        W41451  11.223   7.442  13.312  0.2350 -0.1176  0.1782
25643W        W41452   6.173   1.569  11.183  0.1690 -0.2049 -0.2435
25644W        W41453   6.941   5.811   4.478  0.2356  0.0519 -0.0219
25645W        W41454  13.340  11.100   4.828 -0.1497  0.0079 -0.0348
25646W        W41455  15.777  18.023   0.388 -0.3153  0.1715 -0.3277
25647W        W41456  14.019   3.160  13.082  0.2216 -0.1083 -0.0293
25648W        W41457  17.078   8.421  15.245  0.2791  0.0155 -0.1122
25649W        W41458   9.751  13.108  15.373 -0.2251  0.0650  0.2362
25650W        W41459  14.149   4.495   0.108 -0.1760  0.2821  0.1752
25651W        W41460   7.610   8.808   5.075 -0.2839  0.0604 -0.1200
25652W        W41461   8.833   7.489  15.929  0.0634 -0.1561  0.0089
25653W        W41462   3.326   4.649   5.940  0.0263 -0.3463 -0.4758
25654W        W41463  10.255  12.103   1.774  0.2347 -0.3946  0.0652
25655W        W41464   4.190  10.234   1.100  0.0240 -0.2811 -0.4183
25656W        W41465  14.902  17.869   3.188  0.2395 -0.0359  0.2246
25657W        W41466   6.434   2.657  14.255  0.2809  0.1264  0.0847
25658W        W41467  10.678  17.045   3.964 -0.0789 -0.2255 -0.1025
25659W        W41468  11.111  13.888  13.137 -0.0774 -0.2618 -0.0373
25660W        W41469  11.301  10.515  11.534 -0.0136  0.0636 -0.0977
25661W        W41470   4.572   0.581   1.381  0.2906  0.1121 -0.2802
25662W        W41471   5.074   2.380   3.757 -0.1522 -0.0606  0.0522
25663W        W41472   7.147   2.392   3.184 -0.0779  0.0171  0.0433
25664W        W41473   4.478   1.050  10.639  0.2112  0.0985 -0.0219
25665W        W41474   3.501   8.004   2.462 -0.1017 -0.0682  0.2529
25666W        W41475   6.056   1.017  16.170  0.0751 -0.2902  0.0104
25667W        W41476   9.613   9.047  12.670 -0.0273 -0.0238  0.0680
25668W        W41477  15.885  16.885  15.023  0.2949 -0.0196  0.1341
25669W        W41478  12.932   6.804  13.616  0.1988 -0.1012 -0.1270
25670W        W41479  11.383   2.942  12.622 -0.1914  0.2710  0.2338
25671W        W41480   1.096   4.364  12.442 -0.2087  0.0270 -0.3637
25672W        W41481  10.845  14.033   4.315 -0.2006  0.1892 -0.0464
25673W        W41482   8.243   4.773  14.989 -0.0009  0.0562  0.0364
25674W        W41483  15.142   8.699   4.001  0.4458 -0.1759 -0.0836
25675W        W41484  15.229  14.121  11.036 -0.1039 -0.1526 -0.0054
25676W        W41485  10.059   0.294   4.047  0.1746 -0.0373  0.0590
25677W        W41486   5.796   4.598  15.394  0.4124 -0.1183 -0.1838
25678W        W41487  14.066   8.473  11.981 -0.1880  0.3756  0.3420
25679W        W41488   4.779   0.081   5.082 -0.1054 -0.0584  0.3497
25680W        W41489  17.753   4.436   3.726 -0.2541 -0.0555 -0.4008
25681W        W41490   3.162   3.525   0.714 -0.1107  0.2587 -0.2903
25682W        W41491  17.968   8.893  14.365 -0.0686  0.1041 -0.1174
25683W        W41492  13.875  11.665  16.099 -0.0246 -0.2863  0.1386
25684W        W41493  14.233   4.654  14.728 -0.1239 -0.0770  0.0377
25685W        W41494  15.659  16.113  15.911  0.0173  0.0060 -0.1165
25686W        W41495  11.796  14.508   3.210  0.0071  0.1879 -0.0137
25687W        W41496   3.399  15.444  14.048 -0.3472  0.0350 -0.0419
25688W        W41497   5.024   3.433   2.959  0.1051  0.0095  0.0123
25689W        W41498  10.758   0.505   1.193  0.1127  0.0803  0.0520
25690W        W41499  17.781   2.532  15.501 -0.0702 -0.3509 -0.2142
25691W        W41500  11.668  16.008  13.897  0.2700 -0.2507  0.3269
25692W        W41501  10.528   5.769   2.743  0.0204 -0.2088 -0.1402
25693W        W41502  13.827   8.140   3.409 -0.3570 -0.2601  0.2523
25694W        W41503  17.976   2.254  13.356 -0.0420  0.2955 -0.2528
25695W        W41504   7.879  11.207  12.357 -0.1072  0.0044 -0.3540
25696W        W41505   2.777  13.709  12.219  0.3128 -0.3986 -0.0118
25697W        W41506   9.627  13.770   1.557 -0.0781 -0.0300 -0.0936
25698W        W41507  16.226   7.765  11.392 -0.2831  0.0300  0.0482
25699W        W41508   4.487   7.011  14.924  0.1784  0.2592 -0.3616
25700W        W41509   1.595   2.251   3.381  0.1235 -0.0405  0.1644
25701W        W41510  11.884  11.471   1.489 -0.2442 -0.0365 -0.3803
25702W        W41511   9.359   8.523  12.170  0.1452 -0.1611  0.0272
25703W        W41512   6.256   4.770  12.301  0.2020 -0.0911  0.2384
25704W        W41513   5.887  11.772   1.028 -0.0306 -0.0983 -0.0146
25705W        W41514  11.469   2.186  12.490  0.0455  0.0754 -0.3470
25706W        W41515  16.591   4.961  15.092  0.4101 -0.2320 -0.1009
25707W        W41516  12.303  15.292   4.254  0.0149  0.3057  0.0319
25708W        W41517   8.515  17.653  14.494  0.2142  0.0104  0.2300
25709W        W41518  18.036   0.355  13.284 -0.1098  0.2304  0.2008
25710W        W41519  13.493   7.781   1.012  0.2081  0.2240  0.1494
25711W        W41520   2.157   4.304   6.622  0.1227  0.1737 -0.0084
25712W        W41521  15.283   1.961   4.282  0.0258  0.2230  0.0511
25713W        W41522   3.648  17.845   4.120 -0.4353  0.2559  0.6461
25714W        W41523  16.446   6.757   3.143 -0.0873 -0.4335 -0.0930
25715W        W41524  11.878   7.163  14.559  0.0324 -0.0681 -0.4979
25716W        W41525  11.630   0.605   1.596 -0.1817 -0.0617  0.1169
25717W        W41526  13.117  17.677   3.181  0.0637  0.1656  0.1622
25718W        W41527   7.100  16.800   2.529 -0.3836  0.1606 -0.2245
25719W        W41528  16.402  13.253   4.920  0.3622  0.0970 -0.0268
25720W        W41529  11.611   6.827   3.674  0.1502 -0.0320  0.3733
25721W        W41530  16.787  17.740   3.667  0.0108  0.3736  0.1540
25722W        W41531   3.429  16.952  15.014  0.1326  0.1056 -0.0912
25723W        W41532  12.392  13.247   0.216 -0.0709 -0.0740 -0.1392
25724W        W41533   0.501  17.549  12.887 -0.0120  0.2665 -0.0987
25725W        W41534   1.880   1.680   1.753 -0.1575  0.1127 -0.0545
25726W        W41535  17.244   9.401   5.558 -0.0428 -0.1195  0.1219
25727W        W41536  17.132  15.504  14.207 -0.0125 -0.0687  0.0401
25728W        W41537   6.273  12.542   0.635 -0.2230  0.2560 -0.1716
25729W        W41538  12.702   2.036  12.329 -0.1530  0.1683 -0.1256
25730W        W41539  10.306  10.281   1.871 -0.3119  0.0647  0.0638
25731W        W41540   1.532   9.387   4.588 -0.1837 -0.2417 -0.1195
25732W        W41541   0.416   0.155   0.120 -0.1556  0.2656 -0.0336
25733W        W41542  10.878  14.019   3.181 -0.0225  0.3807 -0.0236
25734W        W41543  16.299   1.458   3.854  0.0396 -0.1538 -0.1128
25735W        W41544   2.269   5.604  11.919  0.1507 -0.0721 -0.1786
25736W        W41545   6.241   5.494  15.773  0.2804 -0.1709  0.0789
25737W        W41546   5.185   5.796   3.098  0.2772  0.2299 -0.1315
25738W        W41547  14.879   4.275  14.579 -0.1094 -0.0297  0.1555
25739W        W41548   3.158   3.445   5.156  0.4757 -0.0058 -0.0769
25740W        W41549  14.354   2.394   3.362  0.5233  0.0382  0.0385
25741W        W41550   7.871   6.349  13.483 -0.0407 -0.3622  0.2236
25742W        W41551  14.491   3.048   4.916  0.1618  0.0763 -0.0233
25743W        W41552   3.599   0.638   4.134 -0.3722 -0.0361 -0.3145
25744W        W41553  11.021  10.124  11.349  0.0180 -0.1920  0.0647
25745W        W41554  14.401   8.752  12.977 -0.1624 -0.0358  0.3096
25746W        W41555   7.286  10.498   2.419  0.0623 -0.0892 -0.1009
25747W        W41556  11.920   6.933  12.023 -0.0445  0.4375  0.0107
25748W        W41557  11.835   9.496   4.104 -0.2164  0.1929  0.4096
25749W        W41558   3.595   9.211  14.062  0.0570 -0.0186  0.1804
25750W        W41559   2.027  11.103  15.419  0.0623 -0.0127  0.3061
25751W        W41560   5.972   1.726   0.177  0.0381 -0.1369  0.3376
25752W        W41561   0.884   6.498  11.890 -0.1923  0.2474  0.0501
25753W        W41562   5.988   6.634   2.242  0.2698 -0.2482 -0.3817
25754W        W41563   9.312  11.334  12.839  0.0203  0.0108 -0.0698
25755W        W41564   8.415  10.593   0.012  0.0322  0.1157  0.1234
25756W        W41565  16.104  13.134  11.581  0.1492  0.1033 -0.1184
25757W        W41566  16.529  15.349  15.492 -0.4110  0.0329  0.0701
25758W        W41567  12.648   4.108  11.696 -0.2767  0.1827 -0.0104
25759W        W41568   1.954   3.091   0.909 -0.2441  0.1063 -0.0644
25760W        W41569  17.300   8.991   4.959  0.1190 -0.1581  0.3036
25761W        W41570  16.095   7.894   0.346  0.1232  0.1371  0.1566
25762W        W41571   3.906   6.706   3.825 -0.1601 -0.0055  0.4249
25763W        W41572   4.946  13.186  13.641 -0.0565  0.0562  0.1530
25764W        W41573  10.250   3.238  11.686  0.0903 -0.1564 -0.0593
25765W        W41574  14.549  12.500   4.127 -0.0353  0.1088  0.2372
25766W        W41575  16.139   7.128   5.142  0.1529  0.0261  0.3154
25767W        W41576   5.003   0.099  12.231 -0.2779 -0.0105 -0.2252
25768W        W41577   7.289  11.311   2.680 -0.0015 -0.0605  0.0118
25769W        W41578   7.727   1.312  12.256  0.2795 -0.2539  0.1580
25770W        W41579  15.153   0.703   5.837  0.0383 -0.1744  0.0244
25771W        W41580   8.114   5.500   1.072 -0.1051  0.2386  0.2605
25772W        W41581  16.705  15.413  12.224 -0.2328  0.1042 -0.3296
25773W        W41582  18.208   3.727   0.028 -0.2234  0.1988 -0.0247
25774W        W41583  11.494   9.943  14.972  0.4292 -0.1081 -0.2284
25775W        W41584   0.526  17.917   5.864 -0.1544  0.2090 -0.1502
25776W        W41585   1.868  16.160  16.158  0.0691  0.1389  0.2769
25777W        W41586  17.503  10.013  13.219  0.0258  0.1253 -0.0729
25778W        W41587  14.702   1.231   3.757  0.0881  0.1670  0.4127
25779W        W41588  17.983   8.118  11.168  0.2568 -0.0768 -0.4594
25780W        W41589   8.020   6.782   0.263  0.1877 -0.0496 -0.2286
25781W        W41590  14.223  14.432   4.809  0.0775 -0.0532 -0.1511
25782W        W41591   8.645  16.814  11.504  0.0918  0.0291  0.0406
25783W        W41592   2.036   8.984   1.260  0.1070  0.2184 -0.1984
25784W        W41593   2.191   4.583   0.802 -0.1051  0.0651 -0.0856
25785W        W41594  11.165  11.877  15.797  0.2686  0.1522 -0.1110
25786W        W41595   0.842   2.821  12.858  0.0099 -0.0564 -0.0750
25787W        W41596  10.283  15.818  11.647  0.0065  0.2982 -0.1611
25788W        W41597  10.533   4.193   3.975  0.2648 -0.2866 -0.1007
25789W        W41598  13.662   6.434  16.030 -0.0169 -0.1355 -0.1090
25790W        W41599   7.529  17.860  12.560 -0.1558  0.1848 -0.1697
25791W        W41600  10.856   2.829   3.003 -0.0274  0.1969 -0.2301
25792W        W41601   7.742  12.618  15.387 -0.1830 -0.0489 -0.0367
25793W        W41602  14.788  16.879   5.511 -0.3106  0.0721 -0.1471
25794W        W41603  11.399   9.614  13.584  0.0017 -0.0300  0.1290
25795W        W41604   0.857   3.110   0.618 -0.1789 -0.1800 -0.2326
25796W        W41605  15.827   9.478  14.975  0.0306  0.1412 -0.0141
25797W        W41606  16.435   0.486   0.205  0.2602 -0.3424 -0.0164
25798W        W41607   6.689  10.846   3.019  0.2049  0.0839  0.1119
25799W        W41608   8.147   5.142   2.593 -0.1781  0.0564 -0.1680
25800W        W41609   0.672   9.929   0.753  0.2187 -0.1553 -0.0445
25801W        W41610  10.196   7.153  12.276 -0.1842  0.2469  0.0252
25802W        W41611   2.694  15.144  14.763  0.0390 -0.1033 -0.0178
25803W        W41612  18.173   4.691   3.915  0.0901  0.0322  0.1144
25804W        W41613   9.428   3.254  13.160  0.4070  0.1595  0.1143
25805W        W41614  10.829  12.561  13.210 -0.1621  0.1457 -0.1999
25806W        W41615   7.528   7.484   3.766  0.0348  0.1204  0.0649
25807W        W41616  13.361   3.249  14.808 -0.1873  0.1441 -0.0417
25808W        W41617   0.611   8.147   6.165  0.3301  0.1381 -0.1662
25809W        W41618   8.442  17.473   4.835 -0.4482  0.0769 -0.0427
25810W        W41619   3.805  13.122  16.244 -0.3902 -0.0848 -0.0501
25811W        W41620   4.177  16.195   2.634 -0.1892  0.0101  0.2121
25812W        W41621   4.994   4.712  13.577  0.0740 -0.0468  0.0498
25813W        W41622  14.739   5.090   1.754  0.0399  0.0734 -0.2001
25814W        W41623   4.854  11.215  15.473 -0.0015  0.0981 -0.1049
25815W        W41624   8.333  17.806  11.909 -0.0823 -0.2440  0.0388
25816W        W41625  14.761   5.274   3.940  0.0270 -0.0607  0.1647
25817W        W41626  11.684   3.929  12.775  0.1916 -0.2676  0.0233
25818W        W41627  12.887   5.827  13.474 -0.2940  0.0833  0.2167
25819W        W41628   5.528  13.972   4.350  0.0728  0.1211 -0.5142
25820W        W41629  12.577  17.848   1.009 -0.1575 -0.1763  0.0532
25821W        W41630  11.248   7.336   1.295 -0.1652  0.0077  0.0631
25822W        W41631   7.039   7.714   5.635  0.0151  0.0897 -0.0426
25823W        W41632   0.583  14.652   3.383 -0.0893  0.0524 -0.2555
25824W        W41633  13.935  13.922  15.343 -0.1572  0.3161 -0.0385
25825W        W41634   4.672   9.647   0.550 -0.0469  0.5352  0.0105
25826W        W41635   8.812   6.368   5.387 -0.3245  0.0541  0.1925
25827W        W41636   7.470  14.078   5.041 -0.0009 -0.0519 -0.1850
25828W        W41637   7.498  15.219  13.046 -0.0819  0.2369  0.1697
25829W        W41638   5.462  16.885  11.460  0.1038 -0.1408  0.1100
25830W        W41639  14.815   5.310  14.724  0.0040  0.2612  0.1419
25831W        W41640  13.610  16.030   1.624 -0.0221 -0.0297 -0.1953
25832W        W41641   9.032   3.593   3.986 -0.2913  0.0419 -0.1672
25833W        W41642  16.211  17.477  12.277 -0.1125 -0.3274 -0.0997
25834W        W41643   8.099   5.783  14.906 -0.3079 -0.0104 -0.3751
25835W        W41644  13.967   6.924  11.842 -0.1822  0.0580 -0.0413
25836W        W41645   9.834  10.227   4.673 -0.0539 -0.1067 -0.2885
25837W        W41646   8.912  15.511   3.563 -0.1865  0.2773  0.1106
25838W        W41647   1.421  17.011   2.787  0.1185 -0.1007  0.0597
25839W        W41648  12.319   3.981   6.009  0.2551 -0.2160 -0.2545
25840W        W41649  17.731   8.928  15.376  0.0378  0.1573 -0.2149
25841W        W41650  10.153   6.147   2.882  0.3346 -0.1138 -0.1076
25842W        W41651  15.393   2.066  15.236  0.0591 -0.2491  0.2314
25843W        W41652  12.531  11.944  12.882 -0.3169 -0.1330 -0.1038
25844W        W41653   9.749  17.428  12.039  0.2981  0.1632  0.1124
25845W        W41654   0.457  12.521   1.568  0.2505  0.1037 -0.1388
25846W        W41655  11.219   0.901  15.048 -0.0015 -0.1455 -0.0465
25847W        W41656   8.399  16.103   0.155 -0.0658  0.2594 -0.3964
25848W        W41657   1.333   4.562   3.335 -0.3495 -0.0796 -0.0731
25849W        W41658  15.695   2.106   6.476 -0.0038 -0.3352 -0.1263
25850W        W41659   6.112   0.798   0.846 -0.0285  0.1587 -0.0929
25851W        W41660   3.098  15.725   4.226 -0.2562  0.2503  0.3418
25852W        W41661   8.745   8.987   2.951 -0.3548 -0.1481  0.0046
25853W        W41662  16.849  15.964  13.797  0.2425  0.2023  0.1311
25854W        W41663  17.596  12.633  12.342  0.1026  0.0998  0.3589
25855W        W41664  15.864   0.613  11.870 -0.2786  0.2003  0.0544
25856W        W41665   0.772  15.506  16.128 -0.0368 -0.0065  0.1187
25857W        W41666   1.131   5.216  11.243  0.1413 -0.0320 -0.3743
25858W        W41667   7.868  16.770  15.399  0.0404 -0.1387 -0.2333
25859W        W41668   0.825   5.630  15.650 -0.1615  0.1075 -0.2800
25860W        W41669   5.303   3.997   1.085  0.1372 -0.0918  0.2260
25861W        W41670   0.720   6.250   5.487 -0.2194  0.1310  0.0649
25862W        W41671   7.272   5.126  14.680  0.0606  0.0482  0.1079
25863W        W41672   2.207   4.535   5.620 -0.2601 -0.1518  0.0503
25864W        W41673   4.907   9.658  15.531  0.0847 -0.0991 -0.0592
25865W        W41674  18.135   6.856   0.466  0.1140  0.1041 -0.2891
25866W        W41675  17.588  17.310   0.797 -0.0562  0.1166  0.0269
25867W        W41676  14.282   5.416  13.615 -0.1075  0.2477  0.1012
25868W        W41677  15.475   0.270   5.257 -0.4742 -0.2261 -0.2098
25869W        W41678   3.306  13.815  12.399 -0.0688  0.0973  0.1294
25870W        W41679   2.461   7.271  13.097  0.1470  0.4294 -0.5172
25871W        W41680   2.924  17.911   2.592  0.1249  0.0756  0.2098
25872W        W41681   2.978   0.377  14.033  0.0529 -0.1326  0.1987
25873W        W41682   5.254  12.512   0.697 -0.1068 -0.1069  0.0292
25874W        W41683   1.698   7.228   1.793  0.1506  0.2732  0.1405
25875W        W41684  17.828  17.912   4.767 -0.0790  0.0830 -0.2827
25876W        W41685   3.022  13.882   0.360  0.0270  0.0941 -0.0912
25877W        W41686  16.711   3.702   4.673  0.2226 -0.1011  0.0007
25878W        W41687   7.472   4.257  12.259  0.0233 -0.2083 -0.0549
25879W        W41688  13.874   0.917   5.837  0.0177 -0.0299 -0.3685
25880W        W41689   7.926  15.382   1.530  0.1594 -0.0065 -0.2763
25881W        W41690   6.549  10.254   1.402  0.0198 -0.0081 -0.3225
25882W        W41691   6.464  10.925  14.678  0.3121 -0.3858  0.1082
25883W        W41692   1.561   5.739   5.281  0.2221 -0.3797  0.0341
25884W        W41693  12.246  10.278  11.127 -0.1482  0.0666  0.4222
25885W        W41694   0.946   6.592  11.112  0.0695  0.0817  0.0678
25886W        W41695   9.694   8.995  14.989  0.0389  0.5109 -0.1993
25887W        W41696  13.115   6.170  12.655 -0.1033 -0.1434 -0.1446
25888W        W41697   9.212   6.873   1.748 -0.1853  0.0513 -0.3500
25889W        W41698   7.573  16.306  12.456 -0.0519 -0.0731 -0.1798
25890W        W41699  15.319  12.602  11.650 -0.2261  0.3470 -0.1033
25891W        W41700   8.931  11.950  11.511 -0.1053  0.0283  0.0238
25892W        W41701   1.916   6.863  12.515 -0.1130 -0.0088  0.0208
25893W        W41702  13.941  10.836   2.722 -0.0574  0.0726 -0.1164
25894W        W41703   8.200   9.776   2.980 -0.3523 -0.1562 -0.2243
25895W        W41704  12.758   4.124  15.535 -0.1542 -0.3966 -0.1488
25896W        W41705   6.182   1.482   3.462  0.1993  0.1129 -0.0502
25897W        W41706   2.220   0.863  11.514  0.0845 -0.0897  0.1969
25898W        W41707   0.333   8.435  15.754 -0.2889  0.0807 -0.1205
25899W        W41708  11.123  15.334   1.896 -0.2954  0.4082  0.0239
25900W        W41709  12.263  11.680  13.227 -0.0107 -0.0167  0.0266
25901W        W41710   5.554  14.212   3.363  0.1900  0.0804  0.0515
25902W        W41711  13.506   8.908   5.550  0.1370 -0.1075 -0.2800
25903W        W41712  13.629  12.966  13.043 -0.0711  0.0854  0.1200
25904W        W41713  14.784  17.029   3.060  0.1213  0.0361 -0.0998
25905W        W41714  10.675  12.952  14.077 -0.1788  0.0778 -0.1513
25906W        W41715  18.023  12.739   2.246  0.1379  0.0660  0.2396
25907W        W41716  15.566   8.546   3.789  0.0668  0.0060  0.3496
25908W        W41717  13.193   9.946   2.662  0.1445  0.1339  0.0917
25909W        W41718  13.923   1.946  13.219  0.1287  0.0762  0.1649
25910W        W41719  10.532  16.403  11.908  0.0343 -0.1862 -0.0354
25911W        W41720   0.234  14.764   0.877  0.1285  0.4916  0.0032
25912W        W41721  11.023  10.779  11.824 -0.0433  0.1103 -0.1290
25913W        W41722   9.593   9.472  12.250 -0.0633  0.2698 -0.0878
25914W        W41723   3.773  10.519   1.834 -0.1235  0.0321  0.0712
25915W        W41724   2.639   4.040   4.314  0.0135 -0.0520 -0.0994
25916W        W41725   1.180  10.191   5.370  0.2655 -0.0631 -0.1893
25917W        W41726  14.978   6.539   2.735  0.1737  0.1577  0.0736
25918W        W41727   6.389  14.577  10.730 -0.1390 -0.0121 -0.0317
25919W        W41728   8.391   7.318   1.639  0.4212  0.0736  0.0458
25920W        W41729   0.449   8.494  12.689  0.4630 -0.1287  0.1731
25921W        W41730  11.447  15.247  15.209  0.1658  0.1104  0.0124
25922W        W41731   9.811   0.764   4.030  0.0525  0.1119 -0.0005
25923W        W41732   1.423  17.727  15.841 -0.2029  0.0817  0.3639
25924W        W41733  10.946  10.546   1.244  0.2016 -0.1169 -0.4683
25925W        W41734  11.006   3.039   4.634 -0.1980 -0.1634 -0.2295
25926W        W41735   5.149   2.553   2.997  0.1223 -0.1219 -0.0022
25927W        W41736  12.032  15.096   1.826  0.1416  0.1527  0.2007
25928W        W41737   1.712  13.039   0.232  0.0462  0.0845  0.0580
25929W        W41738   4.200  17.618   4.986 -0.0141  0.1063 -0.3155
25930W        W41739   8.511   4.030  12.613 -0.1326  0.1774  0.2512
25931W        W41740   3.681  11.925  15.288 -0.2936  0.0894 -0.2123
25932W        W41741  16.505  12.945  12.829  0.3307 -0.0216  0.0068
25933W        W41742   8.875  18.021  14.573  0.4624 -0.2634  0.2225
25934W        W41743  16.153  17.521   2.675  0.3775 -0.0188  0.0231
25935W        W41744   6.219  16.847  16.219 -0.1769 -0.3235  0.1162
25936W        W41745  14.883  12.196   2.012 -0.0302 -0.3430  0.3565
25937W        W41746   7.661  14.141  11.401 -0.2480  0.2478 -0.0048
25938W        W41747  10.885   8.658  15.992  0.0784 -0.1577  0.1468
25939W        W41748   6.012   1.795   5.564  0.1122  0.0166 -0.0580
25940W        W41749   5.819  14.270   5.442 -0.0696 -0.2152  0.0274
25941W        W41750   0.922  16.439   3.273 -0.1981  0.1170  0.0386
25942W        W41751   6.676  17.326   1.291 -0.1705 -0.1851 -0.0402
25943W        W41752   8.485   3.858  14.061  0.1393  0.2110 -0.0368
25944W        W41753   3.175  13.471   0.535 -0.2257  0.1009 -0.1166
25945W        W41754  17.913   1.607   4.107  0.1737  0.1064 -0.0710
25946W        W41755  10.938   4.499   4.287 -0.0045  0.0784 -0.1945
25947W        W41756   7.149   0.819   2.662 -0.3168 -0.0649  0.2879
25948W        W41757  17.701   9.110  13.548  0.2231  0.1284 -0.1933
25949W        W41758  14.829  15.434   4.570  0.1150  0.1704  0.1298
25950W        W41759   0.460  13.934  11.923  0.1008  0.0214  0.1399
25951W        W41760   1.603   0.207   1.455 -0.0784  0.0960  0.0819
25952W        W41761  14.562   3.649   0.595 -0.2102 -0.3418 -0.4137
25953W        W41762   2.110  17.352  11.558 -0.0894  0.0053  0.2600
25954W        W41763  17.828  13.861  14.076 -0.1074 -0.0029 -0.2840
25955W        W41764  14.231   4.047  15.527  0.0931  0.2358  0.0442
25956W        W41765   2.827  16.999  15.830 -0.1298 -0.1107  0.1331
25957W        W41766   7.965   0.693   4.757 -0.0677 -0.1431 -0.1386
25958W        W41767   6.039  14.579   2.561 -0.0273  0.0463  0.0121
25959W        W41768  12.337   8.747  11.296 -0.0399 -0.0226 -0.0568
25960W        W41769  11.018  10.505  12.452 -0.0367  0.1251 -0.2151
25961W        W41770  13.841   8.884   2.403  0.2618  0.1408 -0.0512
25962W        W41771   8.576   6.283   1.577  0.0576  0.2460 -0.2638
25963W        W41772   4.531   4.549   0.905 -0.0312  0.2729  0.1141
25964W        W41773  18.027   7.351  15.020  0.2515  0.2741  0.0648
25965W        W41774   6.581  17.512   3.565 -0.0171 -0.2374 -0.1891
25966W        W41775   4.360   9.905  15.175  0.2711  0.2884 -0.0607
25967W        W41776  17.097   5.853   0.930 -0.2112 -0.0327  0.0372
25968W        W41777  11.057   1.308  14.732 -0.2462  0.0858 -0.0558
25969W        W41778  16.081  16.344  14.305  0.0843 -0.0149  0.2709
25970W        W41779   6.518   5.303  12.041  0.0677  0.0523  0.2379
25971W        W41780  12.623  17.353  11.524 -0.2248 -0.0988  0.2139
25972W        W41781  10.601   4.049  13.469  0.0295  0.1233  0.0642
25973W        W41782   1.576  12.490   4.395 -0.1486 -0.3554 -0.0649
25974W        W41783   4.378   9.069  15.917 -0.1350  0.0526  0.0657
25975W        W41784  15.385  10.759  11.717  0.0488  0.1384 -0.4687
25976W        W41785   7.356  13.246  15.211 -0.1740  0.2045 -0.1540
25977W        W41786  12.982  10.701   4.829  0.1573 -0.0856 -0.0063
25978W        W41787   7.067   6.185   1.345 -0.0144 -0.1129 -0.0368
25979W        W41788   8.228  15.890  11.550  0.1276 -0.1604 -0.2326
25980W        W41789   9.442   6.079  11.546  0.0338  0.1166  0.0113
25981W        W41790  12.099  10.739   3.784  0.3831  0.1818  0.4166
25982W        W41791   4.148   0.560  16.080  0.1603 -0.2589 -0.1348
25983W        W41792   7.761  11.884  13.002  0.0083  0.1563  0.4067
25984W        W41793  13.116   1.243  12.296 -0.0554  0.1875 -0.1966
25985W        W41794   9.477   9.038   5.517  0.0719  0.3568 -0.3290
25986W        W41795   0.873  14.671  14.586  0.3361 -0.1140  0.1092
25987W        W41796   7.359  14.046  14.494 -0.0903  0.2834  0.0015
25988W        W41797  14.212  10.805   3.162 -0.1095  0.1907 -0.3706
25989W        W41798  11.602   2.916   1.518  0.1103 -0.2213 -0.1809
25990W        W41799  12.822   6.617  12.583 -0.2135  0.4126 -0.2911
25991W        W41800   3.230  13.327  16.358  0.4964 -0.1917  0.4169
25992W        W41801   0.092   8.551  12.045  0.0969  0.2350 -0.1503
25993W        W41802  13.983  14.949   2.696 -0.1357 -0.1125  0.3063
25994W        W41803  15.612   2.509   1.591 -0.0644  0.0530 -0.0778
25995W        W41804  16.347   8.736   4.818  0.0513 -0.0080  0.0719
25996W        W41805  14.000  16.693   4.416 -0.0566 -0.2090  0.2383
25997W        W41806  17.831   6.169  13.646  0.0982 -0.0037  0.1094
25998W        W41807   7.804  10.447   2.523 -0.1801 -0.1098  0.1527
25999W        W41808   7.469   0.447   1.755  0.2526  0.0914  0.0372
26000W        W41809  14.058  16.358  12.237  0.1201  0.0019  0.0697
26001W        W41810   9.239  16.269  12.015 -0.0779 -0.1428 -0.1759
26002W        W41811   6.690   0.745  14.254  0.1674  0.0905 -0.0628
26003W        W41812  12.863  10.908  11.843 -0.2231 -0.3051  0.2276
26004W        W41813  14.161   6.155   3.012  0.0727  0.1650  0.4341
26005W        W41814  14.526  14.092   5.861 -0.1302  0.0109  0.1127
26006W        W41815   0.192  10.421  14.484 -0.0277 -0.1420  0.0893
26007W        W41816   3.918   3.137  12.217  0.0186  0.0804 -0.2313
26008W        W41817   6.467  13.531  10.436 -0.6700 -0.1918 -0.1764
26009W        W41818   6.716  10.515   4.812  0.1824  0.2300 -0.0937
26010W        W41819   4.044   4.364   1.024 -0.2557 -0.1128  0.2039
26011W        W41820   7.197   2.033  14.384 -0.0207  0.0362 -0.0719
26012W        W41821   9.858   2.524  14.800  0.4093 -0.0356 -0.1002
26013W        W41822   2.401   1.519   3.253 -0.0949  0.1995  0.1844
26014W        W41823  11.130   8.479  12.684 -0.1415 -0.1151  0.0280
26015W        W41824   6.053  18.129  14.190 -0.2178 -0.4716 -0.1255
26016W        W41825  10.781   9.384   3.723  0.0207 -0.0078  0.0223
26017W        W41826  13.496   5.741  14.532  0.1870  0.1704  0.3753
26018W        W41827   2.862   2.041  13.084 -0.0173 -0.2133  0.0874
26019W        W41828   9.106   6.563  11.011  0.1562  0.1803  0.0084
26020W        W41829   7.087   8.740  13.449 -0.2280  0.1470 -0.6358
26021W        W41830  14.781   1.920  16.210  0.1249  0.2456  0.1212
26022W        W41831   1.823  14.624  14.990 -0.0258 -0.2220  0.1277
26023W        W41832   9.415   7.478   0.062  0.1834  0.0936 -0.2240
26024W        W41833   0.901  11.099  11.530  0.0309 -0.2187  0.1323
26025W        W41834  16.572   0.478  14.781  0.3395 -0.3082  0.2759
26026W        W41835   6.690   0.785  11.371 -0.0122 -0.0972  0.4533
26027W        W41836  11.790   0.983   4.425  0.0591  0.1242  0.0438
26028W        W41837  17.510   7.255   4.708 -0.1029 -0.0178 -0.1663
26029W        W41838   1.560  14.134   3.443  0.3402 -0.0607  0.0212
26030W        W41839   3.498  15.674  15.747 -0.0983 -0.1499 -0.1751
26031W        W41840   7.568  12.153   3.202  0.1173  0.1591 -0.0983
26032W        W41841   9.212   9.849  13.950 -0.2053 -0.2728  0.0924
26033W        W41842  12.299   7.398   3.987  0.4106 -0.1798 -0.1448
26034W        W41843  16.116   3.819   1.645  0.1403 -0.3698  0.2744
26035W        W41844  14.341   3.283   0.881  0.1885 -0.1979  0.1795
26036W        W41845  10.854   4.963  11.414  0.2336 -0.1771  0.2280
26037W        W41846   7.109   6.273  13.647  0.0153 -0.0185  0.0330
26038W        W41847   6.602   9.266  11.998  0.1976  0.2213  0.1211
26039W        W41848   4.319  14.412   0.953 -0.0456 -0.0827 -0.1366
26040W        W41849  16.746  12.501   6.122  0.2191 -0.0081  0.1141
26041W        W41850  12.995   8.331  11.037 -0.2660 -0.1923 -0.0683
26042W        W41851   4.528   8.221  12.657  0.1025 -0.1180 -0.1324
26043W        W41852  15.425   8.792   3.353 -0.0504 -0.0711 -0.0509
26044W        W41853   7.753  14.608   0.606  0.0527 -0.0533  0.2085
26045W        W41854  10.213  14.159   2.230  0.0338  0.0285  0.0856
26046W        W41855   2.387  13.319   1.673  0.1969  0.4797 -0.1128
26047W        W41856  11.013   2.763   0.385 -0.1759  0.1194 -0.1084
26048W        W41857   3.133   1.793   1.527 -0.0831 -0.1566  0.0559
26049W        W41858  10.603   2.785   3.500 -0.3292  0.2004  0.0412
26050W        W41859   6.384   1.312  14.458  0.0304 -0.2263 -0.3958
26051W        W41860   9.288   1.587  16.145 -0.1746 -0.3079  0.0095
26052W        W41861   2.127  15.945  11.225  0.0346  0.0452 -0.1876
26053W        W41862  13.674  14.335  12.706  0.1035  0.1493  0.1377
26054W        W41863   0.851  14.457   3.840 -0.0445 -0.1360  0.0514
26055W        W41864  14.589  12.881   5.075 -0.0536  0.1475  0.0647
26056W        W41865  13.071  14.611  12.873 -0.0261  0.1695 -0.0891
26057W        W41866  12.467   4.589  15.183  0.1766  0.4360 -0.0060
26058W        W41867  10.589  16.725  16.246  0.2342  0.3573  0.1037
26059W        W41868   9.565  17.534   5.486  0.3162  0.2464 -0.1672
26060W        W41869   6.629  16.525  15.366  0.2163 -0.2470 -0.0911
26061W        W41870  10.801  15.181  13.709 -0.0758 -0.0619  0.0883
26062W        W41871   5.084   4.396   0.708 -0.4611  0.1492  0.1755
26063W        W41872   1.421   8.009   0.399  0.1409  0.2204 -0.0641
26064W        W41873  16.526   2.925  14.746 -0.1303 -0.0095  0.1653
26065W        W41874   5.644   1.731   0.922 -0.1198 -0.0595 -0.3364
26066W        W41875  17.703  17.546   5.054 -0.0768  0.0629  0.2652
26067W        W41876  12.206  14.094  11.749  0.1352 -0.0345  0.1309
26068W        W41877  11.085   5.507   0.056  0.1507 -0.3103 -0.2873
26069W        W41878   0.076  12.239   1.309  0.0607 -0.0442 -0.2160
26070W        W41879   1.156   5.688  15.244  0.1640  0.0996  0.0926
26071W        W41880  17.922   9.700   0.191 -0.1743 -0.1973  0.0091
26072W        W41881   5.143  18.149   5.391 -0.0357  0.2827 -0.1035
26073W        W41882  16.102  11.664  13.279  0.0834 -0.0311  0.1476
26074W        W41883  14.761   3.811  10.229 -0.0943 -0.0741 -0.2201
26075W        W41884  17.601   8.492   4.924  0.1488 -0.3155 -0.0485
26076W        W41885  16.987  13.310  12.027  0.1541 -0.0772 -0.1460
26077W        W41886   8.085  17.445  14.703 -0.2145  0.0172  0.2103
26078W        W41887   9.116  17.388  15.370  0.0655  0.0281 -0.0069
26079W        W41888  15.294   1.159  12.104  0.2230 -0.0464  0.1090
26080W        W41889  15.236  15.539   4.160  0.2888 -0.0864 -0.1859
26081W        W41890   2.007  16.571  13.276 -0.4147 -0.1332 -0.0575
26082W        W41891   8.328   3.961  15.837 -0.1810  0.0402  0.0650
26083W        W41892   3.482   6.727  11.688 -0.2959  0.0676 -0.1713
26084W        W41893   8.178  14.085  14.800  0.4253  0.0201 -0.1010
26085W        W41894   4.829  11.679  11.532  0.3077  0.2915  0.0743
26086W        W41895   0.570  12.341   1.034  0.0164 -0.0251 -0.2052
26087W        W41896   1.610   4.646  10.741 -0.0600 -0.4995 -0.0255
26088W        W41897  12.449  17.065  13.461 -0.0679 -0.0853  0.1992
26089W        W41898   3.151   4.404   4.654  0.1362 -0.0041  0.0427
26090W        W41899  14.065  12.533   1.592 -0.0164  0.2075 -0.0605
26091W        W41900   0.761  17.745  11.055  0.0175 -0.1074  0.0291
26092W        W41901  15.126   0.466  12.788  0.3370  0.0088 -0.1070
26093W        W41902  13.705  16.094  13.930 -0.0954  0.0128  0.0838
26094W        W41903   6.797  11.149  12.286  0.0347  0.0019  0.1498
26095W        W41904   8.131   7.954  10.355 -0.2536  0.0913 -0.0580
26096W        W41905  11.079  12.045  13.723 -0.1890  0.2896  0.1765
26097W        W41906  16.718  10.663   4.909  0.3438  0.0917  0.0183
26098W        W41907   5.533   4.278  15.679 -0.0039  0.2703 -0.0865
26099W        W41908   2.826  16.820   5.604  0.0284 -0.2527 -0.0428
26100W        W41909   2.976  16.252   4.925  0.3688  0.2331  0.0500
26101W        W41910  17.558  17.263   0.266  0.1195  0.0446  0.0794
26102W        W41911  13.556  15.563   3.519 -0.3255  0.0822  0.2043
26103W        W41912   0.120   5.051  16.170  0.1935 -0.0924 -0.0409
26104W        W41913   8.422   5.518   1.521 -0.2492  0.3111  0.0646
26105W        W41914  18.099  13.119   0.470 -0.0370  0.1896 -0.0720
26106W        W41915   2.172  14.546  14.207  0.1043 -0.3249 -0.0699
26107W        W41916  13.794  18.117   4.010 -0.0483 -0.0017 -0.1135
26108W        W41917  13.896   2.906  14.049  0.1126  0.1864 -0.3559
26109W        W41918   9.059   0.277   3.168 -0.2065  0.1134  0.0510
26110W        W41919  13.080  13.087  15.408 -0.0594 -0.0038 -0.2237
26111W        W41920  17.165   4.557   5.556 -0.1089  0.0183 -0.2106
26112W        W41921   4.663  12.620  14.926  0.0324  0.5476  0.1573
26113W        W41922  10.267   8.536  13.117  0.0665 -0.3472 -0.0509
26114W        W41923  11.430  16.151   3.948  0.1167 -0.0959 -0.0836
26115W        W41924   8.762  11.018  14.656 -0.0204  0.3017  0.0687
26116W        W41925   9.396  11.116  15.218 -0.3692  0.0454 -0.2357
26117W        W41926   2.628   0.847   4.345 -0.0476  0.2071 -0.0596
26118W        W41927  12.204   0.244  12.878 -0.0774  0.2367 -0.1533
26119W        W41928   6.409   1.199   0.952  0.1886 -0.1602  0.0706
26120W        W41929   9.679  13.236  14.888 -0.2195 -0.0588 -0.3429
26121W        W41930   9.018  16.788   4.849  0.1518 -0.1680 -0.0125
26122W        W41931  13.909  13.339   3.983  0.0062  0.1459  0.0577
26123W        W41932  16.095   5.871   0.787 -0.0933  0.0952 -0.0207
26124W        W41933   4.927   2.041   4.734  0.0252  0.0903 -0.0622
26125W        W41934   1.015  16.070  12.677  0.0293 -0.0361  0.3248
26126W        W41935   3.637   7.520   0.383 -0.1392 -0.2053  0.2249
26127W        W41936   0.786   1.738   2.394 -0.2052 -0.0487 -0.0000
26128W        W41937  10.628   9.803  10.900  0.1799  0.0086  0.0803
26129W        W41938  10.445  11.026  11.380  0.1799 -0.0728  0.1463
26130W        W41939   2.639   2.287   6.176 -0.0895  0.0097 -0.0892
26131W        W41940  10.366   9.913  14.559 -0.2500  0.1766  0.0349
26132W        W41941  11.801   1.457   4.546  0.4888  0.0478  0.3062
26133W        W41942  12.882   0.207   2.431 -0.0095 -0.0077  0.2788
26134W        W41943   7.289  13.188  13.008  0.0553  0.2042 -0.1712
26135W        W41944  17.231  11.273   5.487  0.1925  0.0251  0.2580
26136W        W41945  13.356   9.349   3.708 -0.2905 -0.0080  0.2994
26137W        W41946  16.358  11.115   2.663  0.0512 -0.1405  0.0022
26138W        W41947  16.423   2.850  11.670 -0.0425  0.0190 -0.2429
26139W        W41948   6.729  17.921  15.062  0.1167  0.1711 -0.1870
26140W        W41949   6.984  14.316  14.093  0.0037 -0.0685 -0.0345
26141W        W41950   1.241   8.079   2.449 -0.1683 -0.0645 -0.2385
26142W        W41951  12.417   9.462  10.770  0.0293  0.3633  0.2443
26143W        W41952   2.270   6.610  12.218  0.2279  0.0369  0.3511
26144W        W41953   4.999   2.885   3.812 -0.0547  0.2979  0.1159
26145W        W41954   9.888   3.973   3.899 -0.0931  0.0575 -0.0223
26146W        W41955   9.322   5.501  13.540  0.0227  0.0724  0.0697
26147W        W41956  13.249  14.168   2.274  0.0532 -0.2159  0.0605
26148W        W41957   7.609  17.898  13.084 -0.2487 -0.2227  0.0808
26149W        W41958   6.424  12.674  12.733  0.0297 -0.4239 -0.3616
26150W        W41959   8.431  16.037  12.477  0.1801  0.1966  0.0799
26151W        W41960   8.798  12.844  11.655 -0.0162 -0.0251 -0.0915
26152W        W41961   1.905   5.504   2.657 -0.2603  0.0558  0.0746
26153W        W41962   7.397   5.374  13.775  0.0153  0.1014  0.4337
26154W        W41963  12.291   3.753  16.028 -0.0891 -0.0765  0.2256
26155W        W41964   6.401  12.751   2.250 -0.0605  0.0966 -0.0209
26156W        W41965  15.412   4.093  11.294  0.0843  0.2987 -0.0416
26157W        W41966   7.674  16.507  14.391  0.0002 -0.1515  0.1229
26158W        W41967   3.241   7.116   1.459 -0.2310  0.2092  0.0462
26159W        W41968   5.566   9.877   4.684  0.0096 -0.1044 -0.1133
26160W        W41969  16.463  11.858  11.778 -0.1154  0.0648 -0.1831
26161W        W41970  15.140   8.287   5.327  0.0713  0.0369  0.0947
26162W        W41971   2.851   9.429  14.455 -0.0224 -0.0691 -0.2014
26163W        W41972  14.555   0.727   2.057  0.1901  0.3123 -0.4080
26164W        W41973   4.448   5.458   3.518  0.1715 -0.2790 -0.1746
26165W        W41974  14.769   4.083   3.406 -0.1859 -0.0166 -0.1231
26166W        W41975   3.316   7.852  13.694  0.1231 -0.0333  0.1198
26167W        W41976   4.345  15.110  11.514 -0.2970 -0.0203 -0.3973
26168W        W41977  16.024   7.818  14.985  0.0888 -0.1785  0.0142
26169W        W41978  13.142   6.831   3.631  0.1731  0.0259  0.0986
26170W        W41979  17.840   8.854   5.331  0.2571  0.2538  0.3297
26171W        W41980   6.973   9.358  12.931  0.1350 -0.1543 -0.2391
26172W        W41981  12.698   6.269   3.774  0.2851 -0.0509 -0.0812
26173W        W41982   0.424  17.548   1.318 -0.2745 -0.1456  0.0757
26174W        W41983   7.315  15.401   0.173 -0.1262 -0.0783  0.0129
26175W        W41984  13.306   6.806   4.043 -0.2015 -0.2849 -0.1957
26176W        W41985  12.136   1.940  12.049  0.2011 -0.2417  0.3130
26177W        W41986   5.335  16.795   1.415 -0.3841 -0.4464 -0.1174
26178W        W41987   2.757   8.199   3.304  0.2542 -0.4671 -0.0866
26179W        W41988  11.412   7.986  11.864 -0.0749  0.0731 -0.2476
26180W        W41989   7.654   2.646   1.844 -0.0179  0.2615  0.1249
26181W        W41990   8.096   5.075   4.594  0.0405 -0.1421 -0.0950
26182W        W41991   5.856  11.382  11.995  0.0171 -0.0277  0.0355
26183W        W41992   9.759   9.707  10.558 -0.1108  0.0758  0.2347
26184W        W41993   4.580  12.484   3.891 -0.2544  0.0324 -0.1166
26185W        W41994   0.816  17.095  16.251  0.1302  0.2717 -0.0990
26186W        W41995  16.526  15.236   2.405  0.3659 -0.0078  0.0053
26187W        W41996   7.961   4.537  13.726 -0.5350  0.0601 -0.2071
26188W        W41997   9.543   8.144  12.934 -0.2126  0.0010  0.2688
26189W        W41998  17.291   3.783  15.526 -0.0742  0.0568 -0.1608
26190W        W41999   2.066  16.324  13.772  0.1736  0.1746 -0.0983
26191W        W42000  12.812  14.693  14.477  0.0208 -0.1269  0.0154
26192W        W42001   8.014  10.694  12.518  0.4094 -0.0979  0.0612
26193W        W42002   0.846   4.840   1.421  0.1250 -0.0438  0.0730
26194W        W42003   0.416   5.867  10.384  0.3633  0.0138  0.1458
26195W        W42004  14.058   8.476  14.211 -0.1874 -0.0374  0.1072
26196W        W42005  16.947   5.443   6.424  0.0142  0.4638 -0.0122
26197W        W42006   8.922  15.203  12.068 -0.3141  0.1593 -0.3211
26198W        W42007  18.152   3.870  13.460 -0.2319 -0.0266  0.2131
26199W        W42008   8.443  18.200  10.932  0.1033  0.0256 -0.1326
26200W        W42009  13.205  11.498   4.475 -0.0074 -0.0187  0.2634
26201W        W42010  13.357  12.205  14.775 -0.2079  0.0185 -0.0743
26202W        W42011   4.797   8.440  15.328 -0.0726 -0.2351  0.1462
26203W        W42012  13.385  12.993   2.666 -0.3353  0.3263  0.1425
26204W        W42013  11.984   7.671  14.526 -0.1841  0.2974  0.1105
26205W        W42014   9.772  17.174   1.082  0.4121 -0.1261  0.0975
26206W        W42015   7.385   9.897   4.886 -0.3068 -0.1969  0.1046
26207W        W42016   0.773  10.269  13.596  0.1367 -0.0049  0.0070
26208W        W42017  13.386  13.704   4.589  0.0114  0.0693 -0.0575
26209W        W42018  16.383   6.604  12.128 -0.0153  0.1514  0.0549
26210W        W42019   9.908  13.577  15.227 -0.1899  0.0130 -0.1174
26211W        W42020  10.238  13.137   1.342 -0.4459 -0.1668  0.2593
26212W        W42021   5.954   7.516   4.497  0.3247 -0.1757  0.3709
26213W        W42022  12.169  11.077  14.754 -0.0618  0.1595  0.3447
26214W        W42023   2.596   9.492  13.301 -0.2884 -0.1816 -0.1785
26215W        W42024   2.361  12.733   4.326  0.1888 -0.0439  0.2756
26216W        W42025  10.202  16.329   1.076 -0.0371  0.1985 -0.0058
26217W        W42026   4.090   6.349  15.529  0.1271  0.0619  0.4887
26218W        W42027   5.430   9.493   4.350 -0.1796  0.3065 -0.2390
26219W        W42028  11.534   2.468  11.666  0.3250 -0.3563 -0.0347
26220W        W42029   5.850   7.865  13.469 -0.1523  0.1590 -0.0376
26221W        W42030  16.931  13.568   5.430 -0.4477  0.1223  0.2452
26222W        W42031   8.115   4.589   1.485  0.3315 -0.0489 -0.0248
26223W        W42032   7.605   5.209  15.674  0.3531 -0.1769 -0.0042
26224W        W42033   5.894   9.407  15.753  0.3104 -0.0895 -0.3313
26225W        W42034  11.330   8.053   5.176  0.2758  0.1205 -0.1512
26226W        W42035   0.094   0.115  12.109 -0.0000  0.2100 -0.2848
26227W        W42036   2.245  15.168   4.891  0.0433 -0.0262  0.1499
26228W        W42037   9.370   2.622   1.662  0.0033 -0.1340 -0.1702
26229W        W42038  10.463  18.067  13.096  0.2269 -0.0372 -0.0033
26230W        W42039  13.719   3.904  15.014 -0.2546 -0.1451 -0.4201
26231W        W42040   3.975   7.059   3.392 -0.1721 -0.3681  0.1982
26232W        W42041   6.863  13.893   1.120 -0.1930 -0.2536  0.4299
26233W        W42042   1.157   1.612  10.515  0.0211 -0.0588 -0.0948
26234W        W42043  16.347  16.657   1.150 -0.2859 -0.0273  0.0566
26235W        W42044   0.304  17.743  15.684  0.1514 -0.0684 -0.0133
26236W        W42045   0.277   6.222  12.978 -0.2048 -0.0269  0.5402
26237W        W42046  16.557   9.697  12.503 -0.0297 -0.0210 -0.3206
26238W        W42047   0.507   3.710   3.437  0.0033  0.2029 -0.0016
26239W        W42048  12.190   8.574   0.474 -0.0449  0.1894 -0.0702
26240W        W42049   0.992  13.583  14.844  0.0867 -0.0385 -0.1489
26241W        W42050   1.528  17.418  13.748 -0.2815 -0.0042  0.0877
26242W        W42051  16.957  12.849   2.915 -0.0842 -0.2449  0.1083
26243W        W42052   0.916   5.978   4.649  0.2507 -0.0348 -0.1075
26244W        W42053   9.299  14.942  15.164 -0.1903  0.0335 -0.1233
26245W        W42054  16.938  10.140   1.395  0.0085  0.2541 -0.4649
26246W        W42055   6.240  11.579  13.681  0.3269 -0.1729 -0.0207
26247W        W42056   4.270   9.087  12.152 -0.1364  0.0848 -0.0207
26248W        W42057  12.691  13.204  14.160  0.1083 -0.1909  0.1591
26249W        W42058   9.445   7.809  15.356 -0.0750  0.1385 -0.0996
26250W        W42059   2.329   2.437   4.740 -0.0499 -0.2453 -0.2038
26251W        W42060  15.594  14.882  11.385  0.0653  0.0514 -0.2868
26252W        W42061  15.592  12.969   4.352 -0.1705  0.4726 -0.0856
26253W        W42062   9.210  18.191   4.173  0.2303  0.2952 -0.1940
26254W        W42063  11.528  12.377   6.117  0.0289  0.0513 -0.1077
26255W        W42064   1.596  14.020   4.408 -0.3013  0.0601  0.0707
26256W        W42065  14.070   3.497   3.361  0.3177  0.0491  0.0370
26257W        W42066   5.701  17.239   3.893  0.0233  0.1254  0.0308
26258W        W42067   1.935   0.236   3.325 -0.4183 -0.1697  0.0085
26259W        W42068   6.113   9.139   1.154  0.1012  0.0533 -0.1795
26260W        W42069  13.538   4.159  13.323  0.1669 -0.2473 -0.1062
26261W        W42070   5.579  17.703  12.152  0.0433 -0.0599 -0.2060
26262W        W42071  13.333   8.199   0.737  0.1352  0.1185  0.1441
26263W        W42072   5.944  10.106   4.443 -0.2950  0.1315 -0.2102
26264W        W42073  12.258   8.052  15.600  0.1391 -0.2213  0.0597
26265W        W42074  12.135   2.220   4.346 -0.2034  0.1596  0.0344
26266W        W42075  14.266   6.605   2.213 -0.1046  0.2026  0.1651
26267W        W42076  11.530   2.914   1.014  0.0733  0.4734  0.2626
26268W        W42077  15.308  14.676   2.440 -0.1642 -0.2202 -0.1216
26269W        W42078   7.651   1.511   4.439 -0.1342 -0.3696 -0.1366
26270W        W42079   3.235  16.678  15.843  0.0548  0.2070 -0.0163
26271W        W42080   8.101  17.574  14.055 -0.2204 -0.0015  0.0090
26272W        W42081   9.535  11.639  14.577 -0.2829 -0.2680  0.1294
26273W        W42082  13.391  13.470  12.823  0.1420 -0.1344 -0.5497
26274W        W42083  16.560  13.191   3.011 -0.0090  0.0282 -0.0369
26275W        W42084   7.610   5.722  14.082 -0.2768 -0.1135 -0.1498
26276W        W42085   7.810   6.894  14.652 -0.2369  0.1686  0.0078
26277W        W42086   5.600  15.164   2.211 -0.2940 -0.4103 -0.1548
26278W        W42087   6.119   7.370   4.913 -0.3247 -0.1231 -0.2765
26279W        W42088  12.604  11.282   1.542  0.0676  0.3455  0.0689
26280W        W42089   7.754   3.104  11.116  0.0071  0.3293  0.1645
26281W        W42090   6.197   7.772  14.815  0.0405 -0.0001 -0.1683
26282W        W42091  16.348  16.937  12.525  0.0753 -0.0567  0.0504
26283W        W42092   5.469  13.347   2.721  0.0508 -0.2031  0.2357
26284W        W42093   2.343   8.119  12.396  0.0766 -0.0884 -0.1544
26285W        W42094   3.574   2.807  11.682 -0.1061 -0.2332  0.0677
26286W        W42095  12.308  17.852   4.105  0.3739 -0.0740  0.0926
26287W        W42096  15.012  17.266  14.014  0.2694  0.3629 -0.0907
26288W        W42097  10.741  15.483   2.232  0.0710 -0.0816  0.0222
26289W        W42098   7.398   6.541  14.419 -0.1872 -0.2498  0.0298
26290W        W42099   0.020  15.726   2.770 -0.2765 -0.2873 -0.0262
26291W        W42100   1.853   5.048   1.401  0.1427 -0.0983  0.2254
26292W        W42101   9.591   8.556   3.410  0.0664  0.1411 -0.2247
26293W        W42102  16.468   8.284  14.616  0.0918  0.1706  0.0206
26294W        W42103   3.108  11.396   4.766  0.3086  0.0872 -0.1209
26295W        W42104   1.915   1.638   0.856 -0.2030  0.3401 -0.1373
26296W        W42105  10.976  10.812  15.800  0.0884 -0.1109 -0.2814
26297W        W42106  17.520  11.169   3.455  0.0198  0.1653  0.2613
26298W        W42107   3.217   4.174  13.219 -0.1904  0.1247 -0.1772
26299W        W42108   2.112  16.416   0.420  0.0647 -0.2364 -0.0406
26300W        W42109   9.943  10.197  13.342  0.0369  0.1544  0.0547
26301W        W42110   4.924  17.631   4.455 -0.1074 -0.0776 -0.0522
26302W        W42111  10.249  11.301  16.242  0.2023  0.1396  0.0367
26303W        W42112   6.896   8.221   3.389 -0.2444  0.1172 -0.0057
26304W        W42113  17.340  16.324  13.654 -0.1829 -0.0523 -0.0232
26305W        W42114   0.295   5.768  15.673  0.1501 -0.0326 -0.1625
26306W        W42115  13.792  12.211   4.764  0.0673  0.1028  0.0502
26307W        W42116  16.663   2.160   1.292 -0.1403 -0.1018 -0.2201
26308W        W42117   7.182  15.881  16.352  0.1414 -0.0206 -0.0880
26309W        W42118   0.694   7.241   1.637 -0.3316  0.1584 -0.0100
26310W        W42119   7.473   6.612  14.897  0.1017 -0.2781 -0.0930
26311W        W42120  11.554  11.533   1.093  0.1664 -0.5336 -0.1270
26312W        W42121   6.427   0.927  12.334 -0.1786 -0.1041 -0.1657
26313W        W42122  10.001  11.871   0.891 -0.0021 -0.4657 -0.0280
26314W        W42123  13.849   4.544   0.678 -0.1459  0.4139  0.0760
26315W        W42124   1.242   4.308   6.395  0.2095  0.0696 -0.0175
26316W        W42125   3.765  10.390  13.424 -0.0295  0.2742 -0.1466
26317W        W42126  16.006   0.199   3.525 -0.1798 -0.1523  0.1190
26318W        W42127   9.381   7.269   5.100 -0.3488  0.0163  0.0964
26319W        W42128  14.184  12.869   3.125 -0.0539 -0.0111  0.0159
26320W        W42129   9.922  12.389   0.831  0.2777 -0.4018 -0.1196
26321W        W42130  14.728   7.063   0.823 -0.0940 -0.0411 -0.6647
26322W        W42131  12.129   1.811  13.953  0.1146  0.3324 -0.1438
26323W        W42132   1.096   5.829  14.272  0.2505  0.1357 -0.0883
26324W        W42133   5.284  11.861   1.642 -0.1440  0.0719  0.1760
26325W        W42134  12.930   2.370  14.656  0.2749 -0.3246  0.1482
26326W        W42135  12.626  12.502   4.832 -0.2912  0.2458 -0.3081
26327W        W42136   3.868  14.281  11.737  0.1073  0.0760  0.1018
26328W        W42137   2.001  17.161  15.001 -0.0551  0.2112 -0.1843
26329W        W42138  13.513  13.366   5.524  0.0807  0.1314  0.0651
26330W        W42139   8.018   5.587  12.320  0.0635  0.0587  0.2218
26331W        W42140  13.462   0.281   3.162 -0.0655 -0.0194  0.0051
26332W        W42141   9.213  13.534   3.678 -0.2249 -0.5240 -0.2085
26333W        W42142   9.585  12.445  15.553 -0.0094  0.0883  0.1697
26334W        W42143   7.337  13.522  12.019 -0.1595 -0.0714  0.2423
26335W        W42144  13.100  11.137  14.256  0.1114 -0.2671  0.1528
26336W        W42145  12.981   7.267   0.625  0.1283 -0.1013  0.2672
26337W        W42146   0.578   8.242   3.692 -0.0461 -0.3509  0.1367
26338W        W42147  17.855   9.444   2.407  0.4085 -0.1211 -0.0053
26339W        W42148   5.233  14.476  12.215 -0.1146  0.2885  0.0646
26340W        W42149   3.012   9.538   5.707 -0.1625 -0.0822  0.1560
26341W        W42150   6.682  12.571  16.090 -0.1328 -0.1030 -0.1126
26342W        W42151  10.094   9.601  14.812  0.2866  0.4644  0.1441
26343W        W42152  12.205   3.709  14.798 -0.0382 -0.0936  0.0829
26344W        W42153  16.889   5.230   5.898 -0.1520 -0.0194 -0.1058
26345W        W42154  13.735   6.589   2.165 -0.0961  0.0803 -0.0409
26346W        W42155   9.857   6.762   3.619  0.1978  0.0948  0.1739
26347W        W42156   7.413   5.640   1.656  0.1893 -0.0200 -0.1508
26348W        W42157  12.119  14.094  14.173 -0.1128 -0.0111  0.0406
26349W        W42158  17.952  10.554   5.709  0.2059 -0.0035 -0.3160
26350W        W42159  10.624  17.577  14.877 -0.1523 -0.3805  0.1071
26351W        W42160  13.301   3.104  11.097  0.0533 -0.2199 -0.2262
26352W        W42161   8.734  16.015  16.152 -0.2665  0.0954 -0.0014
26353W        W42162  13.603   2.305  14.945 -0.1722 -0.3914  0.1210
26354W        W42163  12.591   4.464  11.277 -0.1060  0.1572  0.1330
26355W        W42164   7.490  16.565  11.637  0.2534 -0.3937  0.1372
26356W        W42165  16.093  10.725   2.298  0.3484 -0.2949 -0.2093
26357W        W42166   9.039   0.613   0.068  0.0285 -0.1540 -0.3267
26358W        W42167  11.297   9.826  10.774 -0.2166  0.5344 -0.1186
26359W        W42168  13.070  13.447   2.617  0.1535  0.0056 -0.2485
26360W        W42169   6.180  11.621  14.328 -0.1771 -0.2820  0.3026
26361W        W42170  10.489  13.856  16.216 -0.0357 -0.1796 -0.0410
26362W        W42171  12.317   0.548   2.266  0.2034  0.0181  0.1870
26363W        W42172   4.511   5.463   0.984  0.1323  0.0054 -0.0564
26364W        W42173  10.297  17.758  14.537 -0.0741 -0.0068  0.1962
26365W        W42174  11.671  10.308  14.208  0.2283 -0.5995  0.2216
26366W        W42175  13.429  14.721   5.224 -0.1307 -0.0378  0.1893
26367W        W42176   2.338   9.600   3.473 -0.1990 -0.2124 -0.2001
26368W        W42177  10.105  14.513  16.221  0.2394  0.0664  0.0463
26369W        W42178   6.344   3.232   4.894  0.0006 -0.0104 -0.0957
26370W        W42179  13.720  12.107   4.079  0.1908 -0.1130 -0.2482
26371W        W42180  15.101  16.369  16.088 -0.3671  0.2307 -0.0080
26372W        W42181  12.757   2.479  14.194  0.1910 -0.0765 -0.2431
26373W        W42182   7.790   8.071   3.127  0.2668  0.0104  0.1660
26374W        W42183  13.212   6.797  11.192 -0.2066  0.2176 -0.0464
26375W        W42184  13.807   9.055  12.574 -0.0759 -0.1032  0.3095
26376W        W42185  13.381  14.141   3.784  0.0265  0.1888 -0.0653
26377W        W42186   4.806   2.772   1.098 -0.0441 -0.1791 -0.0668
26378W        W42187  12.966   3.107   5.125 -0.0677 -0.1261 -0.0560
26379W        W42188   4.661  15.824   3.616  0.2358 -0.0558 -0.0811
26380W        W42189  14.912   1.047  12.871  0.0868  0.0719  0.0943
26381W        W42190   8.753  13.521   3.546 -0.1173  0.1937  0.0802
26382W        W42191   2.473  10.155  12.532  0.1651  0.2677 -0.2006
26383W        W42192   4.911   3.380  13.519  0.0160 -0.0709  0.0002
26384W        W42193   0.090   8.320  14.334  0.1099 -0.1136  0.1657
26385W        W42194   6.635  15.376  13.314  0.0188 -0.0275  0.0952
26386W        W42195  14.355   1.740  14.170  0.2513 -0.1612  0.0282
26387W        W42196  12.969  14.012   2.736  0.0648  0.0903 -0.0466
26388W        W42197  12.942  12.901   3.965  0.1108  0.1580 -0.1040
26389W        W42198   0.487   5.728  13.616  0.3081 -0.0541 -0.2064
26390W        W42199  10.706   0.599   4.635 -0.0914  0.2233  0.1737
26391W        W42200  15.901   6.099  11.484 -0.0839 -0.0222 -0.1062
26392W        W42201   2.480   5.640   4.216 -0.0689 -0.1507  0.3380
26393W        W42202  16.734  18.098  12.951  0.0146  0.0216  0.0669
26394W        W42203   2.695   3.493  13.693 -0.0644  0.0162 -0.0384
26395W        W42204   0.461  10.132  16.347  0.0163  0.1825  0.0192
26396W        W42205  14.011   3.986   0.000  0.3025  0.1364  0.2833
26397W        W42206   1.133   3.055  11.002  0.0096  0.1792 -0.0996
26398W        W42207   6.910   5.886  14.939 -0.0392 -0.0036  0.0963
26399W        W42208   3.071   9.865   1.894 -0.0656  0.1887 -0.1782
26400W        W42209   0.331   3.370  15.028 -0.1039  0.0905 -0.1099
26401W        W42210   5.049   1.429   0.494  0.3517 -0.1402 -0.1017
26402W        W42211   3.162  10.669  12.152  0.0234  0.1832 -0.2618
26403W        W42212  11.212   4.938   3.137 -0.0561  0.0554 -0.0346
26404W        W42213  16.652   2.507  15.195 -0.1266  0.2238 -0.5012
26405W        W42214  12.545   6.395  14.580  0.0769  0.3863 -0.3580
26406W        W42215  12.158   9.877  12.360 -0.2068 -0.2563  0.0846
26407W        W42216  17.135   3.974   5.609 -0.0793 -0.1270  0.1032
26408W        W42217  13.261   0.027  14.280  0.0132  0.1437 -0.0577
26409W        W42218   7.677  14.591  11.471 -0.0477 -0.3670  0.1761
26410W        W42219   8.619   4.154  16.236  0.1143 -0.1682  0.2435
26411W        W42220  13.860   9.466  15.661  0.0665 -0.3125  0.0781
26412W        W42221  14.748   0.794   1.619 -0.0191  0.2636 -0.0211
26413W        W42222  14.053   8.542   1.038 -0.0550 -0.2319  0.3485
26414W        W42223   2.568   3.838   2.427  0.0210 -0.2357 -0.0600
26415W        W42224  16.236   5.320   1.651  0.0222  0.3829  0.0861
26416W        W42225   8.234   2.469   2.473  0.1030  0.1575 -0.1253
26417W        W42226   8.739   9.494  12.782 -0.2005 -0.1346  0.0321
26418W        W42227   7.650   0.567   4.293 -0.2722  0.0383 -0.0912
26419W        W42228  16.840  16.744   0.945  0.0365 -0.0766 -0.0243
26420W        W42229   8.733  17.644   4.466  0.1302  0.1277  0.0867
26421W        W42230  15.434  12.003   4.381  0.2678 -0.1107  0.1927
26422W        W42231   2.965   5.602   1.242 -0.3571  0.2297  0.1972
26423W        W42232   7.580   8.969   3.351 -0.1078 -0.0935 -0.2269
26424W        W42233  13.236   1.815  15.850 -0.0992 -0.3123  0.2280
26425W        W42234   1.061   2.383   1.648  0.2551 -0.2281  0.0426
26426W        W42235  10.998  17.125  14.519  0.2572 -0.0168  0.0189
26427W        W42236   2.602   4.987   2.910  0.3348 -0.1008  0.2626
26428W        W42237  10.493  14.182   5.641  0.1355 -0.2657  0.0677
26429W        W42238   1.432   1.098  16.278  0.0389  0.3531  0.3234
26430W        W42239  18.115   8.646   5.684  0.3243 -0.0897  0.2210
26431W        W42240  10.424  11.132  12.818  0.1546 -0.1471 -0.0914
26432W        W42241   6.742  13.861   5.595 -0.1111  0.2556 -0.0236
26433W        W42242  13.294  17.445   1.603  0.0633  0.0250  0.2075
26434W        W42243   2.603   0.085  11.076  0.0108 -0.0641  0.1147
26435W        W42244  12.156   7.667  14.048 -0.1614 -0.2926  0.2548
26436W        W42245   2.511  17.235  12.280  0.3204 -0.1982 -0.0270
26437W        W42246   2.656   9.395   6.097 -0.1577 -0.0370  0.0845
26438W        W42247   8.983  17.200   3.046 -0.0238  0.1224  0.1357
26439W        W42248   3.933  14.257   1.222 -0.4373 -0.1071 -0.0512
26440W        W42249   9.345   6.812  13.373  0.3122 -0.0220  0.2534
26441W        W42250  18.163  14.429  13.673  0.2260 -0.1402 -0.5044
26442W        W42251   8.573  11.044  12.195  0.1973 -0.0998 -0.1722
26443W        W42252   5.849   0.066  14.889 -0.0569  0.1524 -0.4690
26444W        W42253   0.824  17.203  12.987 -0.0402 -0.1158  0.2729
26445W        W42254   5.338   4.819  14.500  0.0603 -0.2494 -0.0442
26446W        W42255   6.238   4.800  10.426  0.0641  0.1928 -0.2057
26447W        W42256  12.036  14.091   3.436  0.0283  0.0167  0.0887
26448W        W42257   9.787   7.734   0.980  0.0925 -0.0847  0.0534
26449W        W42258   3.780  18.215   5.537 -0.4160 -0.0618  0.1544
26450W        W42259   7.621   6.952  14.102  0.1208 -0.0262  0.1236
26451W        W42260  11.268   1.246  16.348 -0.1057 -0.1275  0.0281
26452W        W42261   4.185   2.111   1.582 -0.0254 -0.2508  0.0338
26453W        W42262   0.169  15.351   1.647 -0.5544 -0.0727 -0.3166
26454W        W42263   5.446  12.932  13.752 -0.3279 -0.1177  0.2297
26455W        W42264   4.548  15.641   4.612  0.0166  0.0662 -0.1657
26456W        W42265   7.802  12.961  13.515 -0.1449  0.0898  0.1715
26457W        W42266   1.992   2.058  11.692 -0.1826 -0.1175  0.3285
26458W        W42267  11.724   5.408  13.033  0.1611  0.1833  0.0514
26459W        W42268   6.810   0.024   2.793  0.2665  0.2660 -0.0854
26460W        W42269   7.284   1.799  13.476 -0.1509  0.0438 -0.1460
26461W        W42270   8.687  17.360  10.688 -0.0071 -0.0039  0.1456
26462W        W42271   8.616  15.578  11.806  0.2337 -0.2772 -0.0911
26463W        W42272  11.400   6.307  16.085  0.1641 -0.0352  0.3679
26464W        W42273   9.340  17.529   5.042 -0.0337  0.2909  0.1566
26465W        W42274   2.146  11.772   5.021  0.3579 -0.2451 -0.0051
26466W        W42275   0.345   8.238  11.708 -0.0490 -0.1732 -0.1051
26467W        W42276   3.077  15.055  13.908  0.1111  0.2431 -0.2240
26468W        W42277  14.985  11.306   4.777 -0.0006  0.0534  0.1068
26469W        W42278  16.674  16.494   3.202 -0.2175  0.0717 -0.1877
26470W        W42279   6.796  17.070  10.343  0.2827 -0.0277  0.0136
26471W        W42280  16.224   8.937  12.419 -0.0835  0.1068 -0.2745
26472W        W42281  15.916   7.023  11.269  0.2726  0.2139  0.3248
26473W        W42282   3.027  17.542  15.138  0.1460 -0.3507  0.3013
26474W        W42283   0.160   6.218   0.913  0.1790 -0.0767  0.1737
26475W        W42284   3.534   5.328   0.595  0.3315  0.2139 -0.1336
26476W        W42285   2.389   3.737   5.831  0.0967 -0.0468  0.0223
26477W        W42286   1.516  13.482  11.581 -0.0686  0.4926  0.1393
26478W        W42287   5.560   2.053  16.356  0.0935  0.2221  0.0599
26479W        W42288   3.278   9.739  12.546  0.2337  0.1040 -0.1349
26480W        W42289  10.028  10.402   2.609  0.0072  0.1131  0.1555
26481W        W42290   4.726  14.325   3.643  0.2330 -0.2960 -0.1198
26482W        W42291   7.148   9.979   3.286  0.0949  0.1776 -0.3191
26483W        W42292  13.330  11.663   1.609  0.2846  0.1136 -0.1327
26484W        W42293   1.920   6.052  15.238  0.4217  0.2875 -0.0832
26485W        W42294   9.255   7.682  14.501  0.0084 -0.0674 -0.2220
26486W        W42295   8.451   2.413  14.598  0.0621  0.2635 -0.1664
26487W        W42296  13.607   8.213  14.080  0.0739 -0.0369 -0.0851
26488W        W42297  15.145  17.815   0.746  0.0073 -0.1370 -0.0385
26489W        W42298  15.817   1.432  11.949  0.1647 -0.2173  0.0840
26490W        W42299  16.285   0.458   4.127  0.6908  0.0802 -0.0443
26491W        W42300   8.956   8.301  12.015 -0.1209 -0.2787 -0.2161
26492W        W42301  16.222   8.882   2.694 -0.0617  0.2964  0.0752
26493W        W42302  14.068   1.346   4.937 -0.1899  0.2267  0.1132
26494W        W42303   8.737  16.950  15.283  0.0556  0.1338  0.0322
26495W        W42304  16.550  14.668  13.141 -0.0310 -0.1043 -0.2179
26496W        W42305  12.679   0.597   4.603  0.1422 -0.0881  0.1122
26497W        W42306   9.540   6.061   1.181  0.0376 -0.0472 -0.1682
26498W        W42307  14.937  16.202  12.233  0.1013  0.3118 -0.0178
26499W        W42308  13.200  11.239  13.746  0.1068  0.1478 -0.1443
26500W        W42309   6.300  14.393  11.619 -0.0664 -0.0834 -0.0638
26501W        W42310   9.806  13.043   4.468 -0.1275 -0.0838 -0.0654
26502W        W42311   4.953  10.197  13.451  0.1122 -0.3560  0.1968
26503W        W42312   7.381  18.016  10.652  0.1647  0.0737  0.1569
26504W        W42313   1.557  15.677  13.632  0.2172  0.2078  0.0304
26505W        W42314  11.835   5.122  13.693 -0.0423  0.0527 -0.3606
26506W        W42315   9.006  10.013   0.315 -0.0313 -0.0211 -0.0670
26507W        W42316   8.154   9.591   4.300 -0.4417  0.1389 -0.3955
26508W        W42317   6.516   4.669   0.185 -0.0521  0.1605 -0.0938
26509W        W42318   9.860  16.007   0.587 -0.0010 -0.0220 -0.0110
26510W        W42319   7.747   8.102  12.596  0.2502  0.1654 -0.2637
26511W        W42320   2.573  15.802   0.989 -0.3366  0.0881 -0.1740
26512W        W42321  12.772  14.964  15.109  0.0950  0.3570  0.1574
26513W        W42322   9.640   2.751  12.382 -0.0647 -0.0859  0.0725
26514W        W42323  12.844   7.803   1.698 -0.3299  0.3843  0.3114
26515W        W42324  14.945   0.778   4.541 -0.1771  0.1039  0.1226
26516W        W42325   4.853  16.545   4.671  0.2000  0.0541 -0.1748
26517W        W42326   5.696   3.353   2.783 -0.0807  0.3349  0.1380
26518W        W42327  18.174  13.460   3.971  0.1886 -0.4932 -0.3606
26519W        W42328  16.862   9.992   3.822 -0.1225 -0.1752  0.2924
26520W        W42329  16.792   0.420   4.224  0.1116  0.0571 -0.0602
26521W        W42330  15.662  18.199  14.904  0.1521 -0.0332  0.1656
26522W        W42331  13.491   5.157  14.001  0.0512  0.0364 -0.2660
26523W        W42332  14.740  17.885   1.049 -0.0827 -0.1295  0.3345
26524W        W42333   1.073  14.001   3.586  0.0642 -0.0842  0.3914
26525W        W42334  10.306   3.901   2.393 -0.0360  0.0009  0.2947
26526W        W42335  14.533   0.673   5.161 -0.1435 -0.0399 -0.3173
26527W        W42336  13.448  17.849  13.947  0.0488 -0.0402  0.1080
26528W        W42337  13.695   1.522  15.843  0.1767 -0.0640 -0.0654
26529W        W42338  14.051   8.163  12.691  0.1815  0.0330 -0.3863
26530W        W42339  16.670   6.000   0.647 -0.0571  0.2011 -0.0573
26531W        W42340   0.636  10.719  13.765 -0.4620 -0.2665 -0.2927
26532W        W42341   1.656   7.036  11.619  0.1380 -0.0242 -0.1033
26533W        W42342   5.171  17.384  11.500 -0.2045 -0.4366  0.0427
26534W        W42343   9.217  15.232   4.656 -0.0506 -0.0847 -0.3686
26535W        W42344   7.380   3.659  15.745 -0.0871 -0.0559 -0.0239
26536W        W42345  12.718   6.621  10.927  0.1715  0.0809 -0.0972
26537W        W42346   8.335   2.350   1.549  0.0382 -0.3442 -0.0880
26538W        W42347   6.359  16.598  12.992  0.2189  0.2074  0.1761
26539W        W42348   0.525   0.553  12.845 -0.2262  0.0155 -0.2130
26540W        W42349  16.235   4.957   4.515  0.2288 -0.0680 -0.0686
26541W        W42350  11.907   7.481  12.724  0.4403  0.0349 -0.0676
26542W        W42351  10.343  16.614   3.130 -0.2824 -0.0842 -0.1054
26543W        W42352  12.744   6.810  15.745  0.4301 -0.0816  0.0153
26544W        W42353  11.292   5.422   2.968 -0.2460  0.0792 -0.1656
26545W        W42354   7.926  12.018  11.153  0.3623 -0.1089  0.1000
26546W        W42355   3.142  16.893   2.451 -0.2996 -0.2525  0.0775
26547W        W42356   5.639   0.013  15.368 -0.2121 -0.0410 -0.0663
26548W        W42357  11.976   6.934   4.845  0.0264  0.1501  0.0314
26549W        W42358  14.867   7.336   2.133  0.6018 -0.2037  0.4014
26550W        W42359  13.421   3.686   1.925 -0.1032 -0.1873 -0.1509
26551W        W42360  13.496   5.259  14.583  0.1994  0.0034 -0.1984
26552W        W42361   3.361   5.904  13.920  0.2381  0.1416 -0.0384
26553W        W42362  13.106  15.071  14.253  0.0665  0.2912 -0.1855
26554W        W42363  13.370   4.461   2.490  0.1433 -0.1046  0.2661
26555W        W42364   7.163   8.553  15.771  0.0329 -0.1203  0.2270
26556W        W42365   3.023   7.935   2.401  0.1099  0.0377  0.1121
26557W        W42366  14.992  11.015   6.277  0.0081  0.0293  0.1575
26558W        W42367   8.087  12.971   0.067  0.0297  0.2183 -0.0112
26559W        W42368   2.360  16.043   3.033  0.1679  0.0088  0.1236
26560W        W42369   1.244   9.579  13.017 -0.0628  0.1206  0.1063
26561W        W42370  11.364   7.779  11.258  0.1502 -0.0818  0.0875
26562W        W42371   5.767   7.759   4.911  0.2262 -0.1417 -0.1487
26563W        W42372  13.758   0.243  14.425 -0.1578  0.1444 -0.2874
26564W        W42373   7.676  16.794  12.422  0.1902 -0.1374 -0.0029
26565W        W42374   8.269   6.183  15.173 -0.0879 -0.0503 -0.1102
26566W        W42375   7.181   0.587   0.584  0.0325  0.0006  0.2608
26567W        W42376  11.858   6.627   2.644 -0.2543 -0.0194  0.0628
26568W        W42377  12.299  13.712  15.215 -0.2410  0.0015 -0.0503
26569W        W42378  14.275  17.117   4.460  0.0339 -0.3383 -0.0369
26570W        W42379   6.979  14.718   0.793 -0.0817 -0.0143  0.2906
26571W        W42380  14.611  10.194   3.966  0.1059 -0.0229  0.0061
26572W        W42381  15.060   4.224  12.081  0.2950 -0.0039 -0.1114
26573W        W42382   6.980  13.225   3.589  0.1835  0.1360  0.1548
26574W        W42383  14.125   0.883  13.868  0.1366  0.1285  0.2514
26575W        W42384   1.816  17.560   3.902  0.0723  0.0143 -0.3449
26576W        W42385  11.222   8.331   2.921 -0.0784 -0.2450 -0.1399
26577W        W42386   2.353   0.050   3.653 -0.1885 -0.0237  0.0480
26578W        W42387   5.495  15.509  11.540 -0.1404 -0.1978  0.1427
26579W        W42388   6.968   0.772  12.078  0.1068 -0.0703  0.0983
26580W        W42389   9.481  16.922   3.144  0.2036  0.0219  0.3111
26581W        W42390   4.161  18.105   4.046 -0.1060  0.1335 -0.0406
26582W        W42391  17.358  13.412  12.726  0.4365  0.0196 -0.2784
26583W        W42392   4.618  16.309  13.514 -0.1118  0.2750  0.1666
26584W        W42393  11.646   7.396  14.217  0.1490 -0.2355  0.3786
26585W        W42394   8.007  17.711   2.137  0.0156 -0.1660  0.1700
26586W        W42395   5.953   6.415  14.375  0.2707  0.2056 -0.0243
26587W        W42396  10.037  11.721   1.486 -0.1002 -0.1614 -0.1138
26588W        W42397   6.377   6.422   0.039  0.0171  0.1732  0.0232
26589W        W42398   6.886   6.573  15.576 -0.2789  0.3676 -0.3623
26590W        W42399   7.973   6.034  12.532 -0.0627 -0.2426  0.1853
26591W        W42400   7.070   6.428   3.919 -0.0198 -0.4455 -0.0997
26592W        W42401  17.406  17.030  15.815  0.1128  0.1877 -0.0183
26593W        W42402  10.082   2.666   2.342 -0.2107  0.3246  0.0792
26594W        W42403   6.220   8.978  15.652  0.1311 -0.1774  0.1815
26595W        W42404   3.008   0.651   3.565  0.3070  0.0741  0.0066
26596W        W42405  17.304   8.241  14.334  0.0741  0.1493 -0.3600
26597W        W42406  17.496  17.479  11.663  0.0775  0.2155  0.0328
26598W        W42407  12.221   1.333  13.913 -0.2584  0.0914  0.0776
26599W        W42408   3.957   0.681  14.801 -0.1873  0.0880  0.1121
26600W        W42409   1.041   3.455  11.292  0.0239 -0.0300  0.0981
26601W        W42410   1.117  10.680   4.608  0.1219  0.1497 -0.1350
26602W        W42411   7.293   7.578  13.387  0.2833  0.0558  0.0434
26603W        W42412  16.427  10.225   5.589 -0.0099 -0.0407 -0.0747
26604W        W42413   7.532  16.004  15.302 -0.2425  0.2087  0.0909
26605W        W42414  10.009   1.611  14.007  0.0881  0.0939  0.3201
26606W        W42415  14.918  10.407   6.126  0.3714  0.0263  0.1523
26607W        W42416   2.803  14.829  14.409  0.1878 -0.1239 -0.1507
26608W        W42417  15.080  10.317  11.484 -0.3637 -0.0769 -0.0372
26609W        W42418   4.674   9.539   1.822 -0.0851 -0.0572  0.4535
26610W        W42419   5.387   5.335  14.929  0.0401 -0.4092  0.1040
26611W        W42420   6.369  13.977  12.695  0.0534  0.4130 -0.1129
26612W        W42421   6.597   6.996  11.857  0.2163 -0.0835  0.2094
26613W        W42422  14.016  14.744   2.266 -0.0420 -0.0727 -0.4136
26614W        W42423  15.038   6.607  11.507  0.0945 -0.2834 -0.1647
26615W        W42424  17.105   1.912   1.273 -0.0675 -0.1782  0.2924
26616W        W42425   1.026  13.682   2.652 -0.2957 -0.3328  0.2422
26617W        W42426   2.189  15.050   4.380  0.0110  0.1139 -0.2013
26618W        W42427  11.937   0.571  14.476 -0.0128  0.0407  0.1479
26619W        W42428  13.877   0.013  16.090  0.1950  0.1151  0.0441
26620W        W42429   1.730  14.894  13.907 -0.0618 -0.2407  0.1702
26621W        W42430   2.964  14.817  15.685 -0.0446 -0.1440 -0.1387
26622W        W42431   8.495  17.916   0.172  0.4240  0.0924  0.1329
26623W        W42432  15.283   7.161  15.282  0.1904  0.2222  0.5238
26624W        W42433   9.169   9.109  16.351 -0.1206 -0.0844  0.2314
26625W        W42434  12.659  12.430   5.712  0.1477  0.0843  0.0587
26626W        W42435  15.896   1.237  16.250 -0.0987  0.0048  0.0543
26627W        W42436  17.877  11.684   4.605  0.0913  0.3288 -0.2083
26628W        W42437   0.704  12.048  15.728  0.1064  0.2601 -0.0327
26629W        W42438  17.981   5.960  15.142 -0.2747 -0.3171  0.1220
26630W        W42439   5.894  17.142   1.909 -0.4029 -0.0481  0.0179
26631W        W42440   4.811   8.086   4.784 -0.3870  0.0014 -0.2215
26632W        W42441  17.912  14.980  15.776  0.0526 -0.0460  0.1967
26633W        W42442  13.383   6.260   2.467  0.3593  0.2864  0.0026
26634W        W42443  13.872  13.129   5.835 -0.0424 -0.1405  0.2961
26635W        W42444  10.419  10.419   2.952 -0.0025 -0.0686 -0.0063
26636W        W42445  11.530   4.660   1.539 -0.0923  0.2732  0.1807
26637W        W42446   7.146   2.537  11.493 -0.1557  0.1457  0.0008
26638W        W42447  15.422   9.530   4.552  0.2426  0.0608  0.0967
26639W        W42448  16.801   0.075  11.800 -0.2884 -0.0540 -0.3319
26640W        W42449  12.535   9.383  11.960 -0.0512 -0.0440  0.0127
26641W        W42450  12.513  12.196   1.887  0.0303 -0.0934  0.1521
26642W        W42451  17.403  14.128  16.060 -0.3710  0.1993 -0.0105
26643W        W42452   5.518   6.962   3.503  0.0732  0.1619 -0.2016
26644W        W42453   4.449   7.262  11.146 -0.0785  0.0416  0.4869
26645W        W42454   6.241   0.257   3.155  0.0128  0.1796  0.3592
26646W        W42455  16.124   8.864   4.035  0.0330  0.2195 -0.1133
26647W        W42456   9.592  14.325   1.828  0.0947 -0.0099 -0.3017
26648W        W42457   9.084   5.911  13.211  0.1322  0.2932 -0.0638
26649W        W42458  14.934  13.103   0.582 -0.0836 -0.0799 -0.1148
26650W        W42459  14.546  15.853  15.617  0.0995  0.0736 -0.0895
26651W        W42460   5.723  14.647   2.153  0.1457  0.1231  0.2602
26652W        W42461   9.489   2.452   3.930 -0.1937 -0.2601  0.0442
26653W        W42462  17.121   9.879  12.252 -0.0328 -0.2308 -0.1541
26654W        W42463  14.077   0.859   4.952  0.0145  0.1062 -0.0240
26655W        W42464  17.651  10.754  13.504 -0.0338 -0.1970 -0.0593
26656W        W42465  14.751   0.751  11.556  0.1121 -0.2185  0.1934
26657W        W42466   8.507   4.289   6.167 -0.1206  0.2742  0.0452
26658W        W42467   1.583  16.938  12.516 -0.0070  0.3360  0.0900
26659W        W42468   7.637   4.311  14.070 -0.2890  0.4599  0.2143
26660W        W42469  17.675  12.204   5.105 -0.1610  0.2164  0.2165
26661W        W42470  12.986   2.044   2.390  0.1675  0.3217  0.3652
26662W        W42471   1.714  18.095   4.756 -0.0885  0.0506 -0.0449
26663W        W42472   1.709   0.320  11.299 -0.2711 -0.1505  0.0050
26664W        W42473  12.278   2.979   4.463  0.3955  0.0824 -0.1413
26665W        W42474   4.340  12.118  13.534 -0.0388  0.0535 -0.1957
26666W        W42475  15.538   4.553  12.741  0.1299 -0.1208 -0.0705
26667W        W42476   9.514   3.743  12.864 -0.2178  0.1484  0.0636
26668W        W42477  17.654  16.240   3.435  0.1616 -0.1993  0.4330
26669W        W42478  16.905  17.340   4.740 -0.0044  0.0159  0.0588
26670W        W42479  12.315  18.177  14.112  0.0013 -0.0221  0.0924
26671W        W42480   0.301   4.335   3.106 -0.0315  0.1466  0.0742
26672W        W42481   4.004  15.700  14.924 -0.2235  0.1123 -0.2558
26673W        W42482  15.132  15.256   1.489 -0.0482  0.2765  0.0757
26674W        W42483   2.322   3.525  13.074 -0.0341  0.0389 -0.0380
26675W        W42484  14.640   5.018   1.159  0.0679 -0.2201  0.2438
26676W        W42485   5.258  16.481   0.998 -0.1207  0.0830 -0.0051
26677W        W42486  17.586   0.012   3.987  0.1738 -0.2696  0.0027
26678W        W42487   0.782   6.799  12.975  0.0223 -0.0471  0.2398
26679W        W42488   3.259   0.812  14.146  0.1316  0.2434 -0.0890
26680W        W42489  10.393   0.377   2.484 -0.0856  0.0350  0.1718
26681W        W42490   9.383  13.461  15.258 -0.0444  0.1866 -0.1250
26682W        W42491   3.680   7.010   0.230  0.0446 -0.1068  0.1928
26683W        W42492  13.847   7.927   0.672  0.0558 -0.3201 -0.0080
26684W        W42493  11.249  17.560  12.066 -0.0088  0.0234  0.1891
26685W        W42494   6.264  14.583   4.592 -0.3587 -0.0711  0.1344
26686W        W42495  10.416  13.738  15.334  0.0009 -0.1415 -0.2702
26687W        W42496   7.994   3.685   2.448 -0.0635  0.1384 -0.0761
26688W        W42497   0.745   5.133  12.328  0.0250 -0.0447  0.0757
26689W        W42498  16.330   1.565  12.809 -0.3845 -0.1299 -0.0747
26690W        W42499   3.986   8.505   1.972 -0.0019  0.0201  0.0721
26691W        W42500   5.570   4.583   2.442 -0.0944  0.3419  0.0192
26692W        W42501   9.076   0.863  15.837  0.0400 -0.1465 -0.1772
26693W        W42502   1.449  16.482   4.593  0.0297 -0.5251 -0.0974
26694W        W42503  13.638   0.159   4.468  0.1125 -0.1669  0.0305
26695W        W42504  12.779   2.562  12.223 -0.2491 -0.0247 -0.2036
26696W        W42505  13.991  17.355   5.934 -0.0109  0.3314  0.4197
26697W        W42506  16.314   9.768   2.077  0.0736 -0.1402 -0.0879
26698W        W42507   8.901  11.936   4.489 -0.1243  0.2730 -0.0370
26699W        W42508  13.392   0.543   1.776 -0.1053 -0.1585  0.0113
26700W        W42509   0.765   1.680   3.902  0.1065  0.0729 -0.0722
26701W        W42510   3.557  14.211  12.530 -0.1846 -0.0502  0.0620
26702W        W42511  11.024   8.211   3.846 -0.4456  0.2190 -0.4873
26703W        W42512   2.704   3.416  16.153 -0.2304  0.1847  0.2185
26704W        W42513  14.879   2.683   5.574 -0.2372  0.0874  0.2458
26705W        W42514  14.922  14.871  12.073 -0.1909 -0.0092 -0.1174
26706W        W42515   6.405  15.611  15.556  0.0264 -0.0088 -0.0958
26707W        W42516   9.128  16.997  13.296  0.2599 -0.1686  0.0998
26708W        W42517  15.972  16.416   2.580 -0.3849 -0.0199 -0.1343
26709W        W42518  11.467  13.416  12.977  0.3429 -0.0871 -0.1284
26710W        W42519  17.140   4.522   2.943 -0.2037 -0.0977  0.2674
26711W        W42520  11.923  10.630   0.141 -0.3637 -0.0535  0.0134
26712W        W42521   0.871  14.119   1.961 -0.0643  0.2137  0.1753
26713W        W42522   7.938   8.723   4.651 -0.0064 -0.1103  0.3155
26714W        W42523  17.981   0.813  14.736  0.2753 -0.1077 -0.0393
26715W        W42524   2.593   7.885  15.452  0.1443 -0.1902  0.2547
26716W        W42525  15.367   1.316   5.166  0.1795 -0.3763 -0.0427
26717W        W42526   1.438   1.792   0.955 -0.0244 -0.3181  0.3876
26718W        W42527  10.541  10.561   5.078  0.1216  0.1307 -0.0056
26719W        W42528  15.086  17.947   3.808  0.4479 -0.1258 -0.2246
26720W        W42529   7.942  11.738   3.164 -0.0250  0.1576 -0.1796
26721W        W42530   8.660   9.788  13.282 -0.2632 -0.0319  0.2273
26722W        W42531   2.160  11.486   4.607  0.4428 -0.0640 -0.0051
26723W        W42532  11.579   3.577  11.700 -0.4498  0.1332 -0.0599
26724W        W42533   3.603   6.334  14.124  0.2127 -0.3685  0.0283
26725W        W42534  17.356   7.175  11.781 -0.0159 -0.2546  0.0903
26726W        W42535  18.000   9.155   4.245  0.2296  0.4954 -0.2639
26727W        W42536  14.161  18.160   5.425 -0.2060 -0.0661  0.1220
26728W        W42537   4.860  12.325  10.796 -0.1292  0.2179  0.3115
26729W        W42538  10.782   2.426  12.997  0.1845 -0.2342  0.2225
26730W        W42539   0.382  11.058  11.502  0.0337 -0.1706 -0.2389
26731W        W42540   8.768  16.357   3.512  0.0730 -0.0447  0.1377
26732W        W42541   7.236  10.358  11.171  0.3489 -0.0114 -0.0659
26733W        W42542   8.194  17.150   6.142 -0.2123  0.4035  0.2912
26734W        W42543  16.484  10.630   1.837  0.0826 -0.2087 -0.0931
26735W        W42544  12.586  10.976   2.085 -0.2213 -0.0756 -0.1198
26736W        W42545   7.298   9.425  11.457  0.2184  0.2140  0.2150
26737W        W42546   5.489  11.499   1.142  0.1770  0.0532  0.0915
26738W        W42547  15.295   2.503   0.362 -0.1189  0.0510 -0.1072
26739W        W42548   1.482  10.920  11.877  0.1780  0.2591 -0.2199
26740W        W42549   5.246  10.211   5.586  0.2012 -0.1307 -0.3761
26741W        W42550   1.637  13.703  12.487  0.1485 -0.3478  0.0072
26742W        W42551   0.763   7.840  14.846 -0.0067 -0.0851 -0.1179
26743W        W42552  13.126  11.090  12.217  0.2158  0.0643 -0.0034
26744W        W42553  17.246   8.478  12.093  0.0961  0.1150  0.1148
26745W        W42554  14.984  16.644  11.335  0.2633  0.0054 -0.2753
26746W        W42555   6.897   0.609   5.490  0.1438  0.0925 -0.0005
26747W        W42556  11.672  12.630  12.988  0.0467  0.2766  0.1403
26748W        W42557   7.930  17.053   0.257 -0.2289 -0.1804 -0.1512
26749W        W42558  11.775   6.705  14.758 -0.1557 -0.0537 -0.1670
26750W        W42559  12.554  15.525  15.967 -0.2284 -0.2921  0.2016
26751W        W42560  11.425   8.700  11.236  0.2815 -0.0443 -0.0294
26752W        W42561  11.923   6.273  16.261  0.2365 -0.0095 -0.3090
26753W        W42562  16.973   0.036   3.754  0.1137 -0.2726  0.0945
26754W        W42563  15.548  10.366  12.528 -0.1204 -0.1489 -0.0900
26755W        W42564   6.565   5.534   4.154  0.0034 -0.0966  0.1254
26756W        W42565   3.228  15.790  10.733 -0.1895  0.1002 -0.0446
26757W        W42566  17.952  14.906   4.381 -0.0805 -0.1954 -0.0923
26758W        W42567  10.618   9.098   0.817 -0.0270 -0.0413 -0.0016
26759W        W42568   4.161   6.979  11.539  0.2059  0.0810 -0.2388
26760W        W42569  17.066   2.833   3.093 -0.0966 -0.2306  0.1051
26761W        W42570  16.062  10.080   6.009  0.1576 -0.2430 -0.2162
26762W        W42571  16.863  18.126  15.226  0.0782 -0.2394  0.0112
26763W        W42572   5.098   0.886  15.797 -0.0787 -0.1895 -0.0600
26764W        W42573   8.663   8.822   4.217 -0.5575  0.0912  0.1337
26765W        W42574   1.216  11.649  13.550  0.1218 -0.0535 -0.0132
26766W        W42575   5.610  15.768  11.984 -0.3325 -0.2188  0.1511
26767W        W42576   6.384  13.307   2.246  0.4844  0.1246 -0.2613
26768W        W42577  15.103  13.042  12.874  0.2106 -0.1563 -0.3348
26769W        W42578  17.551   9.664   2.057  0.0913 -0.0885  0.0929
26770W        W42579   5.556  14.754   2.648 -0.1746  0.2532  0.3498
26771W        W42580   1.480   1.103   3.422  0.0615 -0.1265  0.2214
26772W        W42581  18.149   5.120  11.142  0.1868  0.1045 -0.4610
26773W        W42582  17.978   0.263  16.023  0.0382  0.1001  0.0507
26774W        W42583  14.748   3.225  14.545  0.1040  0.1147 -0.0622
26775W        W42584  16.133  18.064   4.172 -0.1398 -0.0034 -0.0619
26776W        W42585   4.033  16.537  15.421 -0.1640 -0.2353  0.1680
26777W        W42586   5.237   7.524  15.114  0.1050 -0.1349 -0.2079
26778W        W42587  14.816   2.344  14.480  0.4176  0.2029  0.3874
26779W        W42588  15.372   9.694  13.736  0.0958  0.1189  0.2686
26780W        W42589  12.277  15.610   3.746 -0.0218  0.1924 -0.1453
26781W        W42590   7.357  11.946   0.963  0.2100 -0.0405 -0.0505
26782W        W42591   3.606   4.059  14.789 -0.0455 -0.1412  0.0641
26783W        W42592  13.835   3.037   5.147 -0.1612  0.1677  0.2894
26784W        W42593  11.557  13.776   6.303 -0.4082  0.0000  0.0159
26785W        W42594   1.338   4.324  11.646  0.0978  0.0340  0.1237
26786W        W42595   6.585  10.819   0.646 -0.0319 -0.1499 -0.1897
26787W        W42596   4.862   6.469   3.814 -0.1304  0.5455  0.3179
26788W        W42597  11.476   7.582   4.974  0.0420  0.2110 -0.2857
26789W        W42598   5.508   0.223   1.632  0.0400 -0.0258 -0.1187
26790W        W42599  16.159   3.396  11.523 -0.0521  0.0427 -0.3093
26791W        W42600   2.005   2.220  15.097  0.0810 -0.0372 -0.1369
26792W        W42601  11.852   1.326  12.562  0.0083  0.1104  0.0907
26793W        W42602   3.622  11.417   1.089 -0.1222 -0.2970 -0.2644
26794W        W42603  12.218   1.437   3.471 -0.5272  0.1353 -0.0007
26795W        W42604   4.476   2.836   3.787  0.1242  0.1887 -0.3514
26796W        W42605   8.325   3.307   1.459  0.0984  0.2070 -0.1666
26797W        W42606   0.580  13.288  14.829 -0.2321  0.2144 -0.3113
26798W        W42607  15.215   4.781   3.022  0.0785 -0.1774 -0.2139
26799W        W42608  10.716   9.106  16.226 -0.1750  0.0803 -0.3673
26800W        W42609   8.893   0.146  12.596 -0.1589  0.1701  0.2442
26801W        W42610   9.988   5.794   5.164  0.0178  0.2199  0.2465
26802W        W42611   4.829  12.957   4.215  0.1286  0.2365 -0.0756
26803W        W42612   3.441  13.577   1.580 -0.0596  0.0187  0.0463
26804W        W42613  14.827   3.347   3.696  0.3257  0.0296  0.1008
26805W        W42614  10.307   4.217  16.022 -0.1762  0.0988  0.2453
26806W        W42615   1.453   7.351   4.367  0.5894  0.0192 -0.3472
26807W        W42616   7.191   5.810   0.893 -0.0363 -0.0703  0.0101
26808W        W42617   8.977   6.880   5.455 -0.0561  0.2180 -0.1021
26809W        W42618   8.499  14.851   4.194  0.0994 -0.0890 -0.1157
26810W        W42619   7.029   7.027   4.964 -0.2714  0.1414  0.1931
26811W        W42620  15.437   9.548   4.032  0.2720 -0.1180 -0.1407
26812W        W42621   8.888  15.420   5.007  0.2457 -0.0744  0.1605
26813W        W42622   2.123   5.813   2.992  0.0336 -0.2975 -0.0836
26814W        W42623   4.227  17.126   1.138  0.0255 -0.0258  0.3281
26815W        W42624   9.977   8.929  14.008 -0.1398  0.0731  0.2797
26816W        W42625  17.270   1.470  14.519 -0.2561  0.1195  0.1146
26817W        W42626   4.918  16.982  11.643 -0.2234 -0.1928  0.1609
26818W        W42627  17.995  14.212   4.225  0.0234  0.2125 -0.0805
26819W        W42628  12.407  16.596   1.877 -0.0743 -0.0545  0.0275
26820W        W42629  12.198  16.102   4.607 -0.3046  0.1390 -0.2416
26821W        W42630   9.110   4.775   3.097 -0.0186  0.1664 -0.2629
26822W        W42631   5.598  11.810  15.627 -0.0710  0.2364 -0.3100
26823W        W42632  17.506   6.169   1.769  0.1028 -0.0306 -0.2001
26824W        W42633  10.900  12.299   6.176  0.0550  0.1234 -0.0175
26825W        W42634  12.401   9.392  12.490 -0.0718 -0.2927  0.0028
26826W        W42635  17.731   8.568  13.526  0.1684 -0.1118  0.1011
26827W        W42636   5.356  16.317   4.824 -0.0598 -0.0203 -0.3334
26828W        W42637  16.319   4.638   4.059  0.2356  0.5738  0.1769
26829W        W42638   5.218   2.393  11.915 -0.2582 -0.2438 -0.2856
26830W        W42639   9.036   2.255   3.430 -0.3515 -0.0660 -0.2270
26831W        W42640  12.894  13.590  12.788  0.3635  0.0296 -0.2743
26832W        W42641   3.132   6.004   0.052 -0.2675 -0.1878  0.2249
26833W        W42642   8.425   9.528   5.145 -0.0374  0.1405 -0.1508
26834W        W42643   1.927   3.706  11.660 -0.2042  0.3493 -0.0188
26835W        W42644  17.145  10.766   3.238  0.0741  0.0039  0.0310
26836W        W42645   2.166   6.975  11.625 -0.3197 -0.0023 -0.1454
26837W        W42646   0.189  15.150  12.548  0.0713 -0.0584 -0.0174
26838W        W42647  11.805   7.628   3.977  0.0393 -0.2561  0.0321
26839W        W42648   6.249   5.081   1.091 -0.2388  0.2846  0.0524
26840W        W42649   8.338  11.270   1.440 -0.0901 -0.0416  0.1775
26841W        W42650   9.337   6.180   4.352  0.1291  0.1793  0.1165
26842W        W42651  11.271  10.161   2.029  0.1967 -0.2246 -0.4472
26843W        W42652   2.122   5.142   0.911 -0.0384  0.5432 -0.2341
26844W        W42653   6.669   7.623  12.194 -0.1585 -0.2402  0.0349
26845W        W42654   6.134  11.703   4.565 -0.2503  0.0609  0.5577
26846W        W42655   6.177  14.245   2.042 -0.1856  0.2369  0.3507
26847W        W42656  10.822  14.949  12.292 -0.0809  0.2067 -0.0019
26848W        W42657  13.277  11.075   0.944  0.2203 -0.0733  0.0002
26849W        W42658  10.151   8.257  14.707  0.1959  0.2741 -0.0522
26850W        W42659  10.408  12.345   1.059 -0.2539 -0.0451 -0.0296
26851W        W42660  12.225  10.129   4.832  0.0300  0.0723  0.1717
26852W        W42661   9.359  12.183   4.610  0.1476  0.0329 -0.3597
26853W        W42662  11.513  15.661   4.143 -0.0385  0.0760  0.2122
26854W        W42663   6.132   9.098   0.257  0.1414 -0.0435 -0.0471
26855W        W42664   4.607  16.604   9.953 -0.0923  0.0622  0.1433
26856W        W42665  10.774   7.808  13.171 -0.0632 -0.4449 -0.0019
26857W        W42666  15.117   6.387   0.337  0.1313  0.4710  0.1165
26858W        W42667  11.781  16.047   0.584 -0.1280 -0.0911  0.0311
26859W        W42668  15.114   4.494  14.988 -0.3357 -0.1429 -0.0587
26860W        W42669   0.977   1.678   4.697 -0.1381 -0.0476  0.4303
26861W        W42670   1.787  16.518   2.695  0.1026  0.1497 -0.0299
26862W        W42671   3.637  13.454   4.764 -0.0357  0.1633  0.2756
26863W        W42672   8.472   3.605  16.193 -0.0702 -0.2337 -0.0512
26864W        W42673  11.003  14.330   2.639  0.0580 -0.1241  0.0030
26865W        W42674   1.980   0.905  13.129 -0.2111 -0.3898  0.2457
26866W        W42675  12.081  14.826  12.823 -0.1502  0.0456  0.2301
26867W        W42676  14.172   5.282  15.112  0.2914 -0.1306  0.1443
26868W        W42677  14.809   6.158  14.409 -0.3626 -0.0112  0.2477
26869W        W42678  16.198  10.532  13.167 -0.1222 -0.0233  0.1732
26870W        W42679   0.425  13.166  14.094  0.1540 -0.0361 -0.0958
26871W        W42680   0.643   7.858   2.208  0.6205  0.2097  0.1299
26872W        W42681   3.796   8.006  11.991  0.2548 -0.0224 -0.0127
26873W        W42682  10.095   4.452   3.760 -0.1334 -0.1960 -0.0941
26874W        W42683  11.330  18.064   3.645 -0.1095  0.0319  0.1677
26875W        W42684  16.956   4.143  14.733  0.0700 -0.0358 -0.1063
26876W        W42685  15.240   4.673   5.433 -0.6691 -0.1533  0.0911
26877W        W42686  14.772  17.689   0.005 -0.3377  0.2982 -0.0252
26878W        W42687   9.754   6.762   1.824 -0.0612 -0.0399  0.0628
26879W        W42688   4.268   4.468   2.532 -0.0378  0.2569  0.0890
26880W        W42689  10.216  11.263  12.408 -0.1071 -0.4671 -0.0268
26881W        W42690   4.029  11.052   3.705 -0.2099 -0.2738  0.0334
26882W        W42691   5.924   4.622   2.942  0.1512  0.3811  0.1906
26883W        W42692  17.433   7.456  13.241  0.1660  0.1020  0.0723
26884W        W42693  11.201   0.449   0.508 -0.1586 -0.0908 -0.3553
26885W        W42694   5.154   5.457   5.718 -0.0989 -0.0497 -0.0255
26886W        W42695   6.096   2.108  12.055  0.0085 -0.1660  0.1435
26887W        W42696   0.971  10.343   1.525 -0.0254  0.0531  0.0593
26888W        W42697   5.578  13.333  11.634 -0.0396  0.1348  0.1751
26889W        W42698   3.676   4.336   3.501  0.3411  0.1563 -0.3165
26890W        W42699  14.971  14.074   4.690 -0.0843  0.4027 -0.0450
26891W        W42700  14.568   2.036  11.195 -0.1710  0.3153  0.0552
26892W        W42701   4.339   3.752  14.418 -0.0203  0.1645 -0.0217
26893W        W42702  10.054  11.178   1.481 -0.2947 -0.0147  0.3236
26894W        W42703   1.499  13.194   4.326  0.0010  0.0819  0.2213
26895W        W42704  12.658  14.072   0.082 -0.0546  0.0780  0.2247
26896W        W42705  17.843   9.683   4.466  0.0006 -0.1166  0.1952
26897W        W42706  15.806   9.772   2.245 -0.2106  0.1631 -0.2084
26898W        W42707  14.470   6.488  14.490  0.1547 -0.2468  0.1674
26899W        W42708   1.999  16.961   5.269  0.2548  0.0266 -0.0535
26900W        W42709  14.378  12.170  11.842 -0.1395  0.2291  0.2539
26901W        W42710  10.604   1.341   1.955  0.0022  0.0582  0.0122
26902W        W42711   1.120  16.094  14.478  0.1345 -0.2138  0.0659
26903W        W42712  14.591   2.357  16.329  0.1800  0.2071  0.2754
26904W        W42713   4.072  15.741   2.664  0.3004  0.1175  0.3272
26905W        W42714   4.814   2.665   3.400 -0.2083 -0.0825 -0.3050
26906W        W42715  12.989  16.864   2.822  0.3205  0.0433 -0.1051
26907W        W42716  10.832   5.428   1.893  0.1722  0.1741 -0.2837
26908W        W42717   5.411   5.694   3.528 -0.0136  0.5310  0.3024
26909W        W42718   8.570  14.560   2.648 -0.0853  0.2085 -0.3680
26910W        W42719   6.692  15.198  13.791  0.0198  0.1879 -0.2351
26911W        W42720   5.677  11.435   4.786 -0.1023 -0.1474 -0.0671
26912W        W42721  16.932  13.736  16.095 -0.0348 -0.4485  0.1304
26913W        W42722  10.461   6.133  13.411 -0.3743  0.0892 -0.0013
26914W        W42723  15.983  11.496  15.888 -0.0943 -0.1839 -0.0624
26915W        W42724   1.307  14.354  14.715  0.1322  0.2391  0.0040
26916W        W42725   4.361  10.655   3.505  0.0344  0.3320 -0.4590
26917W        W42726  16.507   6.256  14.437  0.0185  0.2153 -0.3126
26918W        W42727   4.963  11.701  15.638 -0.2036  0.0634 -0.1200
26919W        W42728   0.723  14.348   0.113 -0.2249 -0.0196 -0.0027
26920W        W42729  16.002  13.461   3.612  0.0184  0.0155 -0.0383
26921W        W42730  13.802  16.124   0.243 -0.0111  0.2691  0.2207
26922W        W42731   3.868  11.491   3.801  0.2374 -0.1633  0.4222
26923W        W42732  14.816  14.289  14.838 -0.2599  0.2167  0.0308
26924W        W42733   1.766  14.531  16.267  0.2927  0.0775  0.1761
26925W        W42734  11.854  18.201   2.456 -0.3288 -0.1026 -0.1504
26926W        W42735   2.945   5.272  14.806 -0.0242 -0.1850  0.3780
26927W        W42736  16.313   7.077   0.484 -0.0429  0.1560  0.0682
26928W        W42737   5.952  16.671  12.534 -0.0980  0.1414  0.1327
26929W        W42738   2.186   7.119  12.191 -0.0733  0.1074  0.2627
26930W        W42739   7.583  12.758   5.097 -0.1287 -0.0800  0.0599
26931W        W42740  13.046   8.953   3.558 -0.0756  0.1146  0.0411
26932W        W42741  13.111  10.727   3.089  0.0994 -0.1473  0.1323
26933W        W42742   5.519  10.159   1.790 -0.2095 -0.0203  0.1455
26934W        W42743   2.701  10.047  14.908  0.2919  0.2787  0.1615
26935W        W42744   0.878   0.806   2.962  0.0003 -0.2663 -0.0769
26936W        W42745   0.465   8.877  15.915 -0.0234  0.1880 -0.4651
26937W        W42746   9.117  16.006   3.327 -0.0256  0.0557 -0.0847
26938W        W42747   7.722   5.260  11.996  0.1181  0.4239  0.4482
26939W        W42748   1.932  12.464  14.356 -0.0569  0.1829  0.1401
26940W        W42749  12.017   2.247   1.336  0.1193 -0.2221 -0.0882
26941W        W42750   6.237   7.253  13.925 -0.0531  0.0628 -0.1477
26942W        W42751   9.621  12.520   1.329  0.1132 -0.2331  0.2226
26943W        W42752   8.717   2.010   4.870 -0.1862  0.4989  0.4978
26944W        W42753   2.137   0.854  14.955  0.1898  0.2584  0.0145
26945W        W42754   0.491   2.869   2.671  0.0696 -0.0652 -0.3535
26946W        W42755   1.026   7.676   4.441  0.0122 -0.4093  0.3432
26947W        W42756   9.451  17.482  11.065  0.0004  0.1442  0.0732
26948W        W42757   0.358   2.717  12.143 -0.1077 -0.1574  0.0583
26949W        W42758  18.088  11.714  14.697 -0.1882  0.0698 -0.0195
26950W        W42759  12.975   4.028   2.847  0.3256  0.0423  0.2573
26951W        W42760   7.784  15.193   0.145 -0.1239 -0.0032  0.1126
26952W        W42761  13.224   3.544   0.376 -0.1542  0.2200 -0.0532
26953W        W42762   7.808  17.271  11.212 -0.1392 -0.1371  0.0102
26954W        W42763   4.352  10.682  14.125 -0.1158 -0.0009  0.0664
26955W        W42764   2.587   3.030  11.981 -0.1867  0.2019 -0.0359
26956W        W42765   1.856   1.353   3.205 -0.0731 -0.1880 -0.1340
26957W        W42766   8.822   5.125   5.021 -0.0460  0.0396  0.0806
26958W        W42767   2.457   7.861  13.985 -0.1474 -0.0925  0.0672
26959W        W42768   1.899  10.239   4.703  0.2813  0.2903  0.1480
26960W        W42769  13.328  16.421   0.365  0.0348 -0.2872 -0.0193
26961W        W42770   9.486  14.685   4.648 -0.2289  0.0455  0.1347
26962W        W42771   7.906  16.759  13.625 -0.1179 -0.1255  0.2845
26963W        W42772  15.934  11.633   0.895 -0.2359 -0.0885 -0.0316
26964W        W42773  14.816  10.434  13.087 -0.0725  0.0134 -0.0640
26965W        W42774   5.163   2.883   1.483 -0.1847 -0.1647 -0.2127
26966W        W42775   6.235  11.884  14.795 -0.1490  0.0996  0.0870
26967W        W42776   4.064   3.862   0.431  0.1977 -0.1692  0.2182
26968W        W42777   5.381  10.761  13.926  0.0580 -0.1219  0.4063
26969W        W42778   3.842   3.639  15.243 -0.2037  0.1552 -0.4051
26970W        W42779   9.864  15.437   1.019 -0.3471  0.2979 -0.3846
26971W        W42780   6.592  14.943  11.675 -0.1767  0.1176  0.1185
26972W        W42781   2.579  10.920   0.990  0.1017 -0.2174 -0.0296
26973W        W42782  18.047   6.724   0.939 -0.1102  0.1607 -0.2804
26974W        W42783   5.652  17.356  15.427  0.0899 -0.0187 -0.6461
26975W        W42784  16.068   8.200  10.579  0.2080 -0.2004 -0.3868
26976W        W42785   2.012   2.943  12.034  0.1074 -0.4344 -0.1329
26977W        W42786   8.107   1.673   0.696 -0.1117 -0.1525 -0.1419
26978W        W42787  17.386   4.825   0.023  0.0238  0.0489  0.4420
26979W        W42788  11.568   4.129   2.511 -0.1066 -0.1532 -0.0372
26980W        W42789  17.860   9.181   3.607  0.0600  0.0414 -0.2086
26981W        W42790  14.047  16.983  11.342 -0.0292 -0.2357 -0.2467
26982W        W42791  10.618   6.023  14.389 -0.2351  0.0570  0.1439
26983W        W42792   3.654   3.795   5.279 -0.0655 -0.1602  0.0093
26984W        W42793   2.350   6.223   2.774 -0.0217  0.0602  0.0767
26985W        W42794   4.773  17.059  11.112 -0.0904  0.1385  0.0342
26986W        W42795   1.201  16.229  11.678 -0.2746  0.2621  0.1474
26987W        W42796   6.195  14.183  11.190 -0.0388 -0.1816  0.5204
26988W        W42797  13.290   5.721   2.024 -0.3362 -0.0297 -0.0946
26989W        W42798  10.965  11.816  14.882 -0.2845 -0.0394 -0.0312
26990W        W42799   7.750   7.661  11.617 -0.0412 -0.2080 -0.1630
26991W        W42800  13.768   7.955   1.949  0.1094  0.0404 -0.1160
26992W        W42801  11.556  18.097  13.903  0.3541 -0.1274  0.0666
26993W        W42802  13.194  13.614   2.167 -0.1285  0.0178 -0.1716
26994W        W42803  16.037  14.088   3.231 -0.1645 -0.1127  0.3203
26995W        W42804  13.035   6.138   1.969 -0.2014 -0.2243  0.1436
26996W        W42805   6.572   9.250   3.030 -0.0102  0.0486 -0.0081
26997W        W42806   4.730   4.478   2.759  0.0686 -0.0846 -0.1613
26998W        W42807  10.448  17.659   5.011  0.3816  0.3490  0.1226
26999W        W42808   6.716  11.370   3.347 -0.0442 -0.0145  0.0954
27000W        W42809   6.581  12.295  14.690 -0.3500  0.1362  0.0719
27001W        W42810  12.808   6.673  11.941 -0.0779 -0.1883  0.1475
27002W        W42811  14.796   8.776   1.428  0.0351 -0.0833  0.3509
27003W        W42812   2.076  10.469  11.311 -0.0632  0.0522  0.2163
27004W        W42813   6.695  17.957  13.545  0.1108  0.1218 -0.2103
27005W        W42814   7.857   5.691   3.309 -0.1159 -0.0377  0.3480
27006W        W42815  12.180  10.555  11.579  0.0127  0.0885  0.0543
27007W        W42816  12.160   4.710   3.065 -0.2682  0.2240 -0.1096
27008W        W42817   1.206  14.658  14.213  0.2327  0.0578 -0.2477
27009W        W42818   7.971  14.887  16.023  0.0178 -0.0230 -0.0665
27010W        W42819  11.915   6.978  12.542 -0.0255  0.0792 -0.1409
27011W        W42820  11.158   7.470   4.482  0.2319  0.0170 -0.1147
27012W        W42821   9.529  15.981   4.095 -0.1181  0.2281  0.1808
27013W        W42822   2.518   0.204  14.100  0.1821  0.0831  0.0465
27014W        W42823   0.235  10.840  12.309  0.2098  0.5508 -0.1500
27015W        W42824   0.581  16.864  12.421 -0.0462  0.1834 -0.1714
27016W        W42825   6.900  15.968   5.727 -0.0233 -0.1951 -0.3102
27017W        W42826   4.293  16.041   1.112 -0.0100  0.1299 -0.0168
27018W        W42827  10.181  18.186   4.978  0.0720  0.0843 -0.2639
27019W        W42828   1.854  13.688   0.460 -0.0915 -0.1156 -0.1510
27020W        W42829  12.125   4.607  13.604 -0.1521  0.1198 -0.0689
27021W        W42830  13.881  15.899  14.399 -0.0693  0.1971  0.1896
27022W        W42831  16.082  16.613   2.104 -0.1166  0.0840  0.0477
27023W        W42832   2.576  15.933  11.483  0.3457  0.1593 -0.0289
27024W        W42833   1.942  14.840  15.867 -0.0630 -0.2156  0.0650
27025W        W42834  17.961  16.622   2.004  0.1812  0.0237  0.2151
27026W        W42835   1.602  10.256   2.506  0.2453 -0.1269  0.0054
27027W        W42836  17.826   7.872  11.561 -0.2990  0.1086 -0.0997
27028W        W42837  13.807   3.291   4.196 -0.1830  0.2353  0.0920
27029W        W42838   3.428  11.412  12.374 -0.1348  0.0972  0.0827
27030W        W42839   7.915  16.492  10.880  0.3974 -0.0671  0.1591
27031W        W42840  15.511  17.886  12.023  0.0862  0.0696 -0.0086
27032W        W42841  11.250  10.716   2.288  0.2433 -0.1105 -0.0167
27033W        W42842  17.323   6.431   3.175 -0.0670 -0.0950  0.0872
27034W        W42843  12.366  13.357  11.884 -0.0222  0.0827  0.1344
27035W        W42844   9.041  15.530  13.959  0.0192 -0.0553  0.0285
27036W        W42845  17.433   5.685   4.768  0.1794  0.1139 -0.5523
27037W        W42846   5.788  15.234  11.825 -0.0561 -0.0742 -0.2231
27038W        W42847   5.357   9.338   1.309 -0.2804 -0.3067 -0.0781
27039W        W42848  13.313  17.953   5.381  0.0858 -0.1931  0.0225
27040W        W42849   3.741   5.299   0.136 -0.0068 -0.0135 -0.1423
27041W        W42850  16.467  16.230  14.661 -0.0456  0.1731 -0.1537
27042W        W42851   3.560  13.654   0.250 -0.1057  0.1867  0.1398
27043W        W42852  15.111  10.640  12.440 -0.1342 -0.0900  0.0366
27044W        W42853   7.089   9.069  10.837 -0.2586 -0.1422  0.0207
27045W        W42854  10.844  14.543   5.741 -0.3191 -0.1845  0.0753
27046W        W42855  13.422   8.240   3.126 -0.0728  0.0804  0.1449
27047W        W42856  15.088   2.054  14.862  0.1584 -0.1715 -0.2142
27048W        W42857  16.803  14.809  14.813  0.0761  0.2428  0.0365
27049W        W42858  14.567   3.086  13.067  0.0094  0.0605  0.2095
27050W        W42859   3.105   9.361   1.627  0.2443 -0.0401  0.0869
27051W        W42860  11.820   4.098   5.705 -0.0890  0.0970 -0.0264
27052W        W42861  11.220   7.258  11.034  0.0518  0.1572  0.1418
27053W        W42862   3.891  12.457   0.653 -0.1393  0.1040 -0.0830
27054W        W42863   2.962  15.993   5.466  0.0777 -0.0323  0.1026
27055W        W42864  12.480  12.898  12.132 -0.0598  0.0647 -0.1033
27056W        W42865  11.877   6.715  15.382 -0.0636 -0.0914  0.2611
27057W        W42866   8.382  11.799   5.958 -0.2447  0.0687 -0.0359
27058W        W42867   1.249  13.410   1.485  0.1796 -0.1916 -0.1903
27059W        W42868   8.447  16.056   2.406  0.3576 -0.1370  0.0157
27060W        W42869  11.649   8.106   4.756 -0.1071 -0.0339 -0.2673
27061W        W42870   1.338   7.837  14.945  0.1333  0.1126  0.1751
27062W        W42871   6.171  17.557  15.412 -0.1823 -0.0303  0.1299
27063W        W42872   4.418   8.301  16.058 -0.2618  0.0823  0.3281
27064W        W42873   9.220   2.207   2.517  0.1959 -0.1007 -0.0395
27065W        W42874   7.842   0.861  12.383 -0.3602 -0.1443 -0.2834
27066W        W42875  17.370  14.460   4.906  0.1122 -0.0346 -0.0037
27067W        W42876   1.324   0.561   3.319  0.3984  0.3212  0.0251
27068W        W42877  13.339   2.773   4.100 -0.0193 -0.1789  0.2501
27069W        W42878  14.786  17.436  13.555 -0.1395 -0.0012  0.0638
27070W        W42879  12.993   4.606  14.955  0.2625 -0.0344 -0.3306
27071W        W42880   8.138   5.243   3.216  0.1307  0.0075 -0.1418
27072W        W42881   9.724  16.306   3.823 -0.0151  0.1126 -0.1088
27073W        W42882  17.092   6.380  12.589 -0.1811 -0.1175  0.1997
27074W        W42883  14.292  10.869   1.008  0.0455 -0.2255 -0.0831
27075W        W42884  14.113  14.793   5.707 -0.1168  0.1439 -0.1411
27076W        W42885  10.741   4.967   1.922 -0.3279  0.0105  0.0076
27077W        W42886  16.034   7.454  11.785 -0.0710 -0.1652 -0.3625
27078W        W42887   2.106  12.769  13.350  0.0530  0.2127  0.0990
27079W        W42888  18.082  12.024   3.030 -0.1717  0.2913 -0.2300
27080W        W42889  17.099   3.748  13.528  0.0964  0.1407  0.0501
27081W        W42890  16.895   5.486   3.911 -0.2901 -0.4104  0.0102
27082W        W42891   6.766   3.497   4.143  0.1103 -0.0498 -0.0193
27083W        W42892   7.438  17.948   4.952  0.2137 -0.0275 -0.1588
27084W        W42893  18.119   8.741   4.842 -0.0359  0.1847  0.2025
27085W        W42894   3.566   1.274   3.967 -0.2741 -0.0529 -0.0994
27086W        W42895  16.393  14.450  14.909  0.2316 -0.1213  0.1254
27087W        W42896   2.939  13.366  15.867  0.1071 -0.0313 -0.1123
27088W        W42897  16.414   2.674   5.274 -0.2248  0.3147  0.1219
27089W        W42898  15.042   9.729   4.319 -0.1197 -0.1241  0.3503
27090W        W42899   4.830   7.574   4.796 -0.0917 -0.2447 -0.0668
27091W        W42900   9.727  13.429  11.785 -0.0085 -0.3790  0.0100
27092W        W42901   4.174  13.891  15.473  0.0233 -0.0717 -0.2939
27093W        W42902   1.427   3.128  14.916 -0.1618  0.4385 -0.0816
27094W        W42903   8.339   2.831   4.769 -0.0036  0.0531 -0.3826
27095W        W42904  13.490  14.002   0.293  0.1275 -0.4109  0.2812
27096W        W42905   0.022   9.349  11.359 -0.2227  0.1970  0.0690
27097W        W42906   7.006   1.798  15.699 -0.1277 -0.2954 -0.2949
27098W        W42907   0.595  13.569  14.348 -0.2870 -0.0430 -0.2664
27099W        W42908   0.049  15.732  12.715 -0.1090  0.0255  0.1891
27100W        W42909   1.708  10.944  15.867  0.1409 -0.0128  0.1109
27101W        W42910  13.418   3.733  12.974  0.1569 -0.0182  0.0433
27102W        W42911  10.570  14.324  16.061 -0.1517  0.1995  0.1055
27103W        W42912   7.180  16.150   4.069  0.0551  0.0133  0.2112
27104W        W42913   4.973  18.019   2.746 -0.1590 -0.1544  0.1722
27105W        W42914  12.213  16.506  14.495  0.0034  0.2004  0.1499
27106W        W42915  14.941   7.952   1.018  0.1971  0.5471  0.0324
27107W        W42916   1.103  15.325   0.601  0.1283 -0.1564 -0.1822
27108W        W42917   3.257   5.058   3.906  0.0037 -0.0004  0.2173
27109W        W42918   6.629  18.202   0.646 -0.1292  0.1613  0.1937
27110W        W42919  12.479   9.164   5.350  0.4111 -0.1674 -0.0401
27111W        W42920   8.083   0.218   4.538  0.1492 -0.3461  0.1708
27112W        W42921  13.788  15.535   5.416  0.1451  0.0831  0.1381
27113W        W42922   0.676   8.037  15.741 -0.0360 -0.0024  0.1309
27114W        W42923   8.560   1.201   3.034 -0.1095  0.2226 -0.1542
27115W        W42924   6.622  16.065  16.363  0.0550  0.1977  0.2115
27116W        W42925   9.111   9.564  13.135 -0.2730  0.3710  0.2312
27117W        W42926  15.897  12.804   6.211  0.0960 -0.0632 -0.0313
27118W        W42927   5.097   4.448  12.473 -0.1569  0.0992  0.2482
27119W        W42928  15.182  15.780   1.501  0.2499  0.1510 -0.0876
27120W        W42929   1.583   8.496   3.104 -0.0636  0.2484  0.1191
27121W        W42930   7.851   3.124   0.984  0.1994  0.1949 -0.3111
27122W        W42931  18.216  16.148   4.635 -0.0200  0.1643  0.2890
27123W        W42932   8.920  15.222  11.245  0.1789 -0.3042  0.1274
27124W        W42933  16.855   6.686   2.285  0.0419  0.1833 -0.0976
27125W        W42934   4.898   7.914   0.025 -0.1274  0.0701  0.0129
27126W        W42935   5.346  15.342  14.011  0.0313  0.2255 -0.3100
27127W        W42936  10.758  15.455  12.398 -0.1926 -0.0919  0.1815
27128W        W42937  16.967   6.786   3.068 -0.0129 -0.2347 -0.0255
27129W        W42938  17.617   5.833   5.762 -0.1015  0.3798 -0.2618
27130W        W42939   4.629   4.061   0.915 -0.2283 -0.1372 -0.2332
27131W        W42940   2.117   7.199   0.780 -0.1509  0.1876 -0.1705
27132W        W42941  10.667  13.617  12.407  0.1631 -0.2421  0.0010
27133W        W42942   2.330  11.247   1.315 -0.1305  0.0024 -0.3613
27134W        W42943  15.335   3.779  11.756  0.1919  0.2012  0.1026
27135W        W42944   6.652  13.174  10.943  0.0287  0.4524 -0.0601
27136W        W42945   8.657  10.004  16.245 -0.1671  0.0588 -0.1065
27137W        W42946   1.139   7.953  11.730 -0.2478 -0.3751  0.1041
27138W        W42947   2.110   1.544  11.988  0.0902  0.1529  0.2447
27139W        W42948  17.231  18.126   0.646 -0.1171  0.2288  0.1307
27140W        W42949   4.186  10.385  12.818 -0.0092 -0.0073  0.4116
27141W        W42950   9.441  11.394   2.232  0.1844  0.3042  0.3748
27142W        W42951  10.054  13.482   4.534 -0.0459 -0.3201 -0.3586
27143W        W42952  16.257  17.153   2.042 -0.0805  0.0281 -0.0186
27144W        W42953   0.673  13.400  11.650 -0.1831  0.5115  0.3960
27145W        W42954  13.102   7.073  15.011 -0.0245  0.0069 -0.0382
27146W        W42955  13.959   1.216   2.114  0.2243  0.0615 -0.0369
27147W        W42956   8.650   0.233  15.323  0.2180  0.1190 -0.2913
27148W        W42957  18.050   3.093   6.023  0.0827  0.5174 -0.3100
27149W        W42958  17.138   3.442  13.953 -0.0124 -0.1024  0.2883
27150W        W42959  11.674   8.587   3.595  0.0274 -0.0377  0.0271
27151W        W42960   6.114   0.593   9.687  0.0836 -0.1476  0.0624
27152W        W42961  10.836   5.824   0.429  0.0304 -0.1308 -0.2943
27153W        W42962   4.122   2.717   0.422  0.2948  0.2028  0.1075
27154W        W42963   5.702   5.859   2.604 -0.0821  0.1218 -0.1199
27155W        W42964   3.928   2.080  11.351  0.0776 -0.1397 -0.0200
27156W        W42965   4.173   5.619  14.012 -0.0670  0.1798 -0.1390
27157W        W42966   4.074   6.619   3.160 -0.1389 -0.4469 -0.3798
27158W        W42967   3.912   2.019   2.866  0.1798  0.0670  0.0446
27159W        W42968  17.561   5.951   4.340 -0.4095  0.0221  0.0854
27160W        W42969   3.770  16.354   5.618  0.3695  0.2089 -0.0202
27161W        W42970   6.601   0.886  16.137 -0.2043 -0.1904  0.0145
27162W        W42971  10.045  10.949   4.308  0.0551  0.1813  0.0868
27163W        W42972   9.767  13.496   2.995 -0.2088 -0.1405  0.2224
27164W        W42973   8.365  10.207  11.252  0.3235 -0.0948 -0.1258
27165W        W42974   4.342  11.967   4.086  0.1010  0.1319  0.0868
27166W        W42975  13.485   0.786   3.020 -0.3132  0.1402  0.1639
27167W        W42976   1.649  12.074   5.179  0.1613 -0.0367  0.1157
27168W        W42977  10.645  12.569  15.352  0.1925 -0.1631  0.0458
27169W        W42978  13.422   3.093   5.499  0.2090  0.1434 -0.2403
27170W        W42979   7.298  11.407   0.539 -0.1255  0.0030 -0.1260
27171W        W42980   7.016   7.950  11.946 -0.2074 -0.0662  0.0055
27172W        W42981   4.630   5.415  12.436 -0.1232  0.2705  0.0304
27173W        W42982   4.769   8.290   0.308  0.2402 -0.1554 -0.0733
27174W        W42983  15.723   6.579  14.932 -0.0856 -0.0008  0.0469
27175W        W42984  12.009  14.289   2.562 -0.0537 -0.0981  0.0280
27176W        W42985  17.172  11.880   1.291 -0.1613  0.0977 -0.1575
27177W        W42986  11.468   4.349  14.769  0.2485 -0.1056  0.1931
27178W        W42987  14.252   9.416  14.337 -0.1103 -0.0346 -0.0602
27179W        W42988   4.851   1.181   2.417 -0.2263  0.3096 -0.1687
27180W        W42989  18.021   5.867  15.672 -0.2715  0.0253 -0.1475
27181W        W42990  13.117   6.978  14.070  0.0438  0.2281 -0.1111
27182W        W42991   0.416  11.826   4.940 -0.0661 -0.0520  0.1504
27183W        W42992   9.453   2.921  14.673  0.2095  0.1250 -0.0784
27184W        W42993   3.384  15.440   0.451  0.1884 -0.1352 -0.0770
27185W        W42994   9.265  15.082  13.891  0.1096 -0.3091 -0.1672
27186W        W42995  15.171   2.054  15.688  0.1578  0.1137 -0.0019
27187W        W42996  10.716   8.630  13.312  0.2041  0.0299 -0.2792
27188W        W42997   6.745   1.571   3.541 -0.1755  0.0653 -0.1128
27189W        W42998  12.298   9.900   2.296  0.1163 -0.0576 -0.1653
27190W        W42999  16.155   7.831  16.211 -0.1865  0.3215 -0.0664
27191W        W43000  16.703   8.288   5.418  0.1230 -0.0892  0.1148
27192W        W43001   5.686   3.178  12.771  0.1577 -0.1546  0.1315
27193W        W43002  16.563   6.354   4.529  0.1205 -0.0979 -0.4898
27194W        W43003   6.580   4.458   5.329  0.1585  0.0457 -0.2077
27195W        W43004  14.638   4.399  12.653  0.0050 -0.0909  0.4764
27196W        W43005  13.673  17.808   6.073 -0.0012  0.0469 -0.1081
27197W        W43006  16.181   1.979   4.223  0.4380 -0.1722 -0.1819
27198W        W43007  11.633   5.381  15.998 -0.0346  0.2891 -0.0261
27199W        W43008  16.587  10.957   1.076  0.3285  0.1608  0.0318
27200W        W43009   6.783  17.126   6.069  0.0078  0.1402  0.3508
27201W        W43010   4.308   5.029  12.381  0.3029  0.0949 -0.1177
27202W        W43011   3.635   0.005  12.033  0.0997 -0.1887  0.4769
27203W        W43012   6.591  11.572   5.198 -0.0777  0.0012 -0.0110
27204W        W43013  14.985  11.725  12.525 -0.3092  0.0261 -0.1066
27205W        W43014  10.727  11.708  13.622 -0.0826  0.0853  0.1285
27206W        W43015   2.620   2.254   4.304 -0.0833  0.1266 -0.2193
27207W        W43016   8.393   7.821   1.149 -0.5121  0.2994  0.1061
27208W        W43017   4.812   1.447   4.723  0.1278  0.0915 -0.6200
27209W        W43018   1.827   0.709   0.770 -0.1136  0.1019  0.1709
27210W        W43019   3.445  17.110  11.084 -0.1165 -0.0250  0.0411
27211W        W43020   6.068  14.995   0.139  0.2468  0.0836  0.2554
27212W        W43021   5.348   6.698  15.427 -0.0513  0.0627 -0.3723
27213W        W43022   2.588  15.547  12.887  0.1133 -0.2203  0.1333
27214W        W43023   6.619   3.127  13.940 -0.3084  0.1397  0.3574
27215W        W43024   3.889  17.321   5.255  0.1632  0.1233  0.2000
27216W        W43025  16.430  12.955   4.434  0.2956 -0.3084 -0.0978
27217W        W43026  12.301   5.221   2.969  0.0239  0.0937  0.2674
27218W        W43027  12.803  16.787  15.539  0.0088 -0.2251 -0.3115
27219W        W43028  13.204  13.028   5.309  0.1128  0.1089  0.0140
27220W        W43029  14.412  12.390   0.194 -0.0156 -0.1188  0.3058
27221W        W43030  15.550  16.465   1.015  0.0446 -0.2305 -0.1528
27222W        W43031  10.952  16.886   4.884  0.1513 -0.1289  0.1404
27223W        W43032   8.092  13.297  10.953  0.3412 -0.2539  0.1467
27224W        W43033   1.857  15.924   3.984 -0.1307 -0.2442  0.2675
27225W        W43034   3.539  13.267  12.481 -0.0789 -0.0055  0.1924
27226W        W43035   0.326   3.676  15.517 -0.1442 -0.1254 -0.2451
27227W        W43036   9.570  17.246  11.632  0.1058  0.0363 -0.1842
27228W        W43037   7.427   5.156   1.566  0.1084 -0.2048  0.0014
27229W        W43038  11.755   9.012  14.442 -0.1819 -0.2101 -0.2417
27230W        W43039   6.008   9.106   1.655  0.0723  0.0468  0.1750
27231W        W43040   8.541   9.698   0.281  0.3358  0.2708  0.0804
27232W        W43041  11.791   8.824   4.898  0.0440  0.2391 -0.1280
27233W        W43042  14.381  11.160   5.580 -0.1436 -0.1880  0.0173
27234W        W43043   2.849  14.579   5.233  0.3624 -0.1294 -0.0280
27235W        W43044  11.805  11.929  11.724  0.3333  0.0465 -0.1241
27236W        W43045   2.411   2.853  14.450  0.1649 -0.2306  0.0163
27237W        W43046   7.290  16.932   3.737 -0.0354  0.0473 -0.0073
27238W        W43047  14.104   3.579   0.509 -0.2421  0.0080 -0.0554
27239W        W43048   2.912  13.050   1.657  0.0569  0.1345 -0.0836
27240W        W43049   2.840   6.874  13.013 -0.2249  0.1589  0.3273
27241W        W43050   7.542   8.888   1.444 -0.0884 -0.3374  0.2686
27242W        W43051   3.888  13.596   2.524  0.0054  0.3642  0.1268
27243W        W43052  13.360   9.034   5.020 -0.0397  0.1387 -0.1566
27244W        W43053   9.810   6.491   1.147  0.0706  0.0039  0.2833
27245W        W43054  16.105   1.898  11.968 -0.4199  0.3906 -0.0479
27246W        W43055  10.559  16.304   2.746  0.0918  0.0827  0.3110
27247W        W43056  16.423  16.776   0.077  0.1420  0.2894 -0.0752
27248W        W43057  17.025  12.350   2.171 -0.0267  0.2310  0.3070
27249W        W43058   1.666   0.531   3.719  0.4031 -0.1333 -0.1043
27250W        W43059   5.563  13.398  12.995 -0.0244  0.1515 -0.1726
27251W        W43060   7.536   5.849  14.953 -0.0409 -0.0433 -0.0311
27252W        W43061   4.061   3.239  13.872  0.4994 -0.0705  0.1306
27253W        W43062  10.010   1.215  13.191  0.0206 -0.1188  0.1455
27254W        W43063   3.002   8.149  13.458  0.1843 -0.1124 -0.3232
27255W        W43064   8.469  16.854  10.697  0.1828 -0.1951 -0.2495
27256W        W43065   4.686  11.547   4.323  0.2000 -0.0633  0.0601
27257W        W43066  17.674  14.437  12.585  0.0441  0.0667  0.3217
27258W        W43067  10.219   9.120  11.327 -0.2253  0.0565  0.0521
27259W        W43068   5.628   3.572   3.611 -0.2072  0.3152  0.0967
27260W        W43069   8.700   6.341  15.484 -0.1327  0.6129 -0.1784
27261W        W43070   5.557   4.584   0.521  0.1379 -0.0314 -0.1984
27262W        W43071   6.117  17.901   3.178  0.1253  0.0064 -0.2733
27263W        W43072   8.515  15.345   0.490 -0.0153  0.0510  0.1408
27264W        W43073   6.561   7.781  15.625 -0.3036 -0.0891 -0.0609
27265W        W43074  10.679  11.202  15.596 -0.0165  0.2901 -0.0842
27266W        W43075   1.725   7.003   4.165  0.2689  0.1511  0.1176
27267W        W43076   7.733   8.699  15.041 -0.0822  0.0371  0.4627
27268W        W43077   2.150  10.146  11.684 -0.0097  0.1283 -0.0130
27269W        W43078   9.837   8.506   9.696  0.2844  0.1560 -0.4131
27270W        W43079   4.632   3.820  14.868 -0.1434 -0.2786  0.4444
27271W        W43080  18.152   2.674   0.894 -0.2271 -0.2493  0.0961
27272W        W43081  13.730   2.315  15.802 -0.1186  0.1699  0.0559
27273W        W43082  10.299  17.876   0.899  0.0411  0.1354 -0.2375
27274W        W43083  10.472   5.985  15.352 -0.3863 -0.2699 -0.4284
27275W        W43084   2.283  18.174   0.846  0.1138  0.1981  0.1568
27276W        W43085  14.853   3.859   3.940 -0.0573 -0.1848  0.2471
27277W        W43086   5.067  13.236   3.612  0.3867  0.1996  0.2565
27278W        W43087  16.670   9.623   2.553 -0.1902  0.1010 -0.1936
27279W        W43088  12.308  16.126  12.168  0.0388 -0.2742  0.0616
27280W        W43089  16.227   0.916   1.435  0.2900  0.1592 -0.1325
27281W        W43090   9.152   6.072   3.062  0.1480 -0.2985  0.1111
27282W        W43091   1.071   9.482  11.880  0.1500  0.0159 -0.3894
27283W        W43092  10.051   6.111  15.040  0.0118 -0.1040 -0.0491
27284W        W43093   1.637   2.367   0.954  0.1199  0.2927 -0.2286
27285W        W43094   0.179   3.036   3.952 -0.3885  0.0559  0.0413
27286W        W43095   5.698  16.742   1.004 -0.0567  0.2454  0.0734
27287W        W43096  10.581  16.507  11.222  0.4669 -0.1510  0.0253
27288W        W43097  12.590  15.413   0.174 -0.1543 -0.1684 -0.1772
27289W        W43098  13.251   8.430   3.527 -0.2582  0.2258  0.0222
27290W        W43099   7.499  15.938   1.387  0.1952 -0.0975  0.1755
27291W        W43100  13.605  17.337  13.901  0.0309  0.3454  0.0294
27292W        W43101  10.420  10.959  15.218 -0.2029  0.0651 -0.0066
27293W        W43102  15.980  11.816   4.167 -0.2508  0.3089  0.0582
27294W        W43103   8.736  14.497   3.992  0.0534  0.1519 -0.0591
27295W        W43104  11.173  11.287  15.680  0.0897 -0.3337 -0.2208
27296W        W43105  17.122  16.689   2.983  0.1045 -0.0492  0.1959
27297W        W43106   3.456  14.397   1.070  0.1068 -0.0411  0.2162
27298W        W43107  13.554   2.218  13.349 -0.2559 -0.0202  0.2155
27299W        W43108   0.255   3.545  12.675  0.0055 -0.0592 -0.0574
27300W        W43109   0.350   1.403   4.050 -0.2502  0.0902  0.0900
27301W        W43110  12.734  14.033  14.916 -0.0192  0.0937 -0.1484
27302W        W43111  16.904   8.430   2.077 -0.0432 -0.0620  0.2551
27303W        W43112   3.908  14.284   1.745 -0.0052 -0.0868 -0.0489
27304W        W43113   3.574   2.666   0.112  0.0734 -0.0591  0.1898
27305W        W43114   0.275   9.574  12.318 -0.0121  0.3558  0.0528
27306W        W43115   2.408  14.756  11.224 -0.0590  0.3956 -0.1541
27307W        W43116   5.249   5.176  13.705 -0.1128 -0.0315  0.6061
27308W        W43117   0.563  10.428  13.205 -0.0601  0.0981 -0.0090
27309W        W43118  16.906   3.148   1.811 -0.0450  0.0126  0.3118
27310W        W43119  11.648   6.185  14.620 -0.2370 -0.0237  0.0709
27311W        W43120  12.792  13.833  13.524 -0.2888  0.0053  0.2302
27312W        W43121  17.887  11.011   0.074  0.0150  0.2385 -0.2929
27313W        W43122  10.582   7.618   5.572  0.1733 -0.3704  0.1421
27314W        W43123   3.722   4.164  15.884  0.0616 -0.1265 -0.2074
27315W        W43124  11.911   1.331  15.475  0.0139  0.0321  0.4206
27316W        W43125  10.144  16.353   1.886  0.0104 -0.2364  0.1776
27317W        W43126  11.173   9.682   1.830  0.2492  0.0175  0.1421
27318W        W43127   1.416  11.788  15.847 -0.0873 -0.2561 -0.3286
27319W        W43128  13.392  17.833  15.825 -0.2153  0.0104 -0.0362
27320W        W43129   6.916  16.570   3.418  0.0517  0.0347 -0.0902
27321W        W43130  11.040   4.563   4.858 -0.1867 -0.0779 -0.0152
27322W        W43131   3.277   2.632  13.700  0.3808 -0.0399 -0.2704
27323W        W43132  18.210   6.867  14.106 -0.1014  0.3199  0.0682
27324W        W43133  12.751  12.055   2.770 -0.3627  0.0016  0.1100
27325W        W43134   9.838   7.018  11.894  0.0891 -0.1811 -0.0407
27326W        W43135  12.597   2.677   3.717 -0.0861  0.5751  0.1652
27327W        W43136  11.238   1.058  11.428 -0.0170  0.2557 -0.0551
27328W        W43137   6.054  17.394  12.386 -0.0422 -0.1485  0.1505
27329W        W43138  17.095   3.421  12.003 -0.4594 -0.0468 -0.0132
27330W        W43139  16.776  17.896  13.829 -0.1625 -0.3177 -0.0979
27331W        W43140  11.183   4.450   0.738  0.3124  0.2589  0.1148
27332W        W43141  15.245   3.468  12.966 -0.1328 -0.3649 -0.0359
27333W        W43142  17.752   3.593  13.751 -0.0775 -0.0715 -0.2708
27334W        W43143   2.466  11.418   3.776 -0.1775 -0.0350 -0.2690
27335W        W43144  15.437   6.879  11.211 -0.0229  0.0126  0.0117
27336W        W43145   6.282   4.843  11.787 -0.0916 -0.0241  0.5079
27337W        W43146  15.689   9.922  16.019 -0.1907 -0.1170  0.0983
27338W        W43147   5.665  16.317  12.720 -0.4680  0.0547  0.0990
27339W        W43148  16.185   4.042  15.937  0.0625 -0.1723 -0.0420
27340W        W43149  11.768  12.154  12.187 -0.0684  0.0172  0.1968
27341W        W43150  11.615   5.446  11.648  0.0348 -0.0311  0.1114
27342W        W43151   2.739  17.604   2.939  0.0873  0.0500 -0.1471
27343W        W43152   5.189  12.444   3.870  0.0083  0.1384 -0.1567
27344W        W43153  17.989   9.654   1.362 -0.0444 -0.0357  0.0788
27345W        W43154   6.081  17.102   4.787 -0.2351  0.1450  0.0289
27346W        W43155   5.130  13.438   0.223 -0.0812  0.3879  0.2157
27347W        W43156   2.928   5.606  13.748 -0.3160  0.0811  0.2719
27348W        W43157   8.209   2.378  12.783 -0.0865 -0.1194 -0.0149
27349W        W43158  11.937   6.489   0.996  0.1201 -0.0371  0.0889
27350W        W43159  17.374  16.307   1.574 -0.3625 -0.4094  0.0317
27351W        W43160   8.438  12.044  11.213  0.0060  0.0011 -0.0782
27352W        W43161   9.751  13.001  14.357 -0.1917 -0.0640  0.0519
27353W        W43162   7.317  13.217   3.040  0.2083  0.1724 -0.3661
27354W        W43163  15.621   2.099   0.100 -0.0950  0.1140  0.0025
27355W        W43164   8.240  13.428  13.369  0.2021 -0.0820 -0.0323
27356W        W43165  13.340   6.735  16.283 -0.2527 -0.0937  0.3661
27357W        W43166   0.042  18.088   2.271 -0.1023 -0.1476  0.2872
27358W        W43167  17.006  12.482  15.687  0.0986 -0.1478  0.3290
27359W        W43168   3.442   0.089   4.255 -0.1559  0.0947 -0.1804
27360W        W43169   6.549   2.496   5.297  0.2171  0.0021  0.1781
27361W        W43170  14.033   4.969  13.471 -0.0467 -0.1696  0.1197
27362W        W43171   7.738  12.315  13.722 -0.1428 -0.0574 -0.4983
27363W        W43172   1.414   9.807   1.252  0.3044  0.1236  0.0595
27364W        W43173   8.398   0.134   3.280  0.2274 -0.2450 -0.0335
27365W        W43174  16.474   5.599   5.141 -0.2122 -0.0031  0.4279
27366W        W43175   4.470   3.746  12.736 -0.1165 -0.0996 -0.3985
27367W        W43176   6.153   7.223  15.950  0.2188  0.0326 -0.0392
27368W        W43177   6.375  13.477  15.558 -0.2017 -0.0178 -0.0161
27369W        W43178  11.297   8.501   4.968 -0.0957 -0.0198 -0.2208
27370W        W43179  17.934   5.709  16.358 -0.1631 -0.0579  0.1043
27371W        W43180   4.842   6.039   4.888 -0.1721  0.1938 -0.3128
27372W        W43181   5.674  13.765   1.620 -0.0225  0.1150 -0.3152
27373W        W43182  14.276   5.726   1.240 -0.1095 -0.1356  0.2027
27374W        W43183   4.124   7.167  12.178 -0.2120  0.0460 -0.4433
27375W        W43184   3.184   7.050  11.999  0.1967  0.0978  0.1738
27376W        W43185   3.092  11.833  15.878  0.0442 -0.1831  0.0655
27377W        W43186  10.873   3.762   5.279  0.0261 -0.3455  0.1834
27378W        W43187   0.481   1.120  11.959 -0.3015  0.1152 -0.0489
27379W        W43188   2.201   3.350   1.819  0.2675 -0.1663  0.1491
27380W        W43189   0.538  10.677   0.039 -0.1582  0.0456  0.0217
27381W        W43190  11.715  10.565  10.273  0.0421  0.0530  0.2017
27382W        W43191  17.801  10.101  11.552  0.0864  0.1755  0.0988
27383W        W43192  11.160   7.302  15.751  0.3331 -0.0944  0.0467
27384W        W43193  10.991  17.403   0.360  0.0193 -0.1896 -0.0717
27385W        W43194  12.758   8.580  14.763  0.0828  0.1215 -0.0513
27386W        W43195  11.374   2.135   0.551  0.1872 -0.1000 -0.0224
27387W        W43196  10.724   7.344  11.918 -0.2075 -0.1063 -0.1873
27388W        W43197  12.478   5.092   0.063 -0.0246 -0.1467  0.1003
27389W        W43198   7.016  12.535  11.332  0.2481  0.0247  0.0084
27390W        W43199   1.254   4.104   3.131  0.5391 -0.2121 -0.1168
27391W        W43200   3.075   2.462   2.302 -0.2688 -0.3876 -0.3620
27392W        W43201  14.162   9.885  13.589  0.0309  0.1361 -0.0028
27393W        W43202  11.642  13.933  14.308  0.0965 -0.1395  0.2287
27394W        W43203  13.953   3.032   5.622  0.0056  0.0640  0.1516
27395W        W43204   7.424   2.386   5.508 -0.0263  0.5090  0.0004
27396W        W43205  15.359   7.179  10.419  0.0318 -0.2086 -0.2231
27397W        W43206  12.051  14.472   1.782 -0.0995  0.0306 -0.0091
27398W        W43207  13.580  12.786  12.521 -0.0069 -0.3310 -0.0235
27399W        W43208  14.524   6.989   1.330  0.2475 -0.1434 -0.0160
27400W        W43209   9.681  10.550  11.414  0.0394 -0.1675 -0.0524
27401W        W43210   9.000  12.781   2.221  0.2468  0.1112 -0.2164
27402W        W43211   9.351  12.907   4.952  0.3837  0.2148  0.1979
27403W        W43212  11.488   6.694  12.745  0.0534 -0.2109 -0.2856
27404W        W43213   7.027  12.491   2.647 -0.0033 -0.1504  0.0408
27405W        W43214  17.442   5.422  12.504 -0.0168  0.0580 -0.1483
27406W        W43215  10.338  15.226  15.755 -0.0733 -0.2198 -0.0070
27407W        W43216  16.227  10.669   3.874 -0.1080  0.2837  0.1872
27408W        W43217  11.346   4.092  13.069  0.0701 -0.0184 -0.2074
27409W        W43218  12.671  16.233   1.599 -0.1001 -0.0504 -0.0181
27410W        W43219  17.703  16.074   3.942  0.3086 -0.1302 -0.2519
27411W        W43220  13.036   3.588   4.980 -0.1547  0.1254  0.2389
27412W        W43221   9.850  10.178   0.602 -0.3739  0.1600 -0.1269
27413W        W43222  13.721   0.567  15.244 -0.0257 -0.1047  0.0736
27414W        W43223  11.317   3.846   4.987 -0.1630 -0.0988 -0.0145
27415W        W43224  10.177  15.718   3.417 -0.1789 -0.0748  0.2011
27416W        W43225  13.096   5.213   3.192 -0.1726 -0.2541 -0.2598
27417W        W43226  18.042   3.232  15.138  0.0219  0.0365 -0.2252
27418W        W43227  14.429   5.169  13.176 -0.1087 -0.1612  0.2201
27419W        W43228   9.740  16.388   0.239  0.0358 -0.0199  0.0532
27420W        W43229  16.891  14.254   1.469  0.2840 -0.0396 -0.0654
27421W        W43230  11.531  15.634   4.840 -0.2014 -0.0418  0.0014
27422W        W43231  17.506   6.308  11.587 -0.4134  0.0226  0.0436
27423W        W43232   5.288   5.677   1.234 -0.0456  0.1467 -0.1539
27424W        W43233   2.019  10.635  14.515  0.1184  0.1284 -0.2592
27425W        W43234   9.513  12.182  11.527  0.0619 -0.1172 -0.0719
27426W        W43235  12.371   8.191  16.199 -0.3830  0.0167 -0.4867
27427W        W43236   6.126   8.213  11.698  0.1398  0.1295 -0.0277
27428W        W43237   8.478  10.203  15.282 -0.0842 -0.1005 -0.0939
27429W        W43238   3.489   9.212   1.235 -0.0304 -0.1332 -0.2610
27430W        W43239   4.526   0.840  15.678 -0.0316 -0.1985  0.0966
27431W        W43240  15.032   3.284   1.081  0.0510  0.1564 -0.1240
27432W        W43241   5.176   3.796   2.096 -0.1056  0.2728 -0.0108
27433W        W43242   8.447  11.706   5.419 -0.0494  0.0047  0.3931
27434W        W43243   7.307  13.690  14.925 -0.1551 -0.2725 -0.0874
27435W        W43244   1.275  17.590   4.634  0.1366 -0.1949 -0.2858
27436W        W43245  16.923  13.106   1.033 -0.0011  0.0230  0.3117
27437W        W43246   2.331  16.973  13.229 -0.4332 -0.0979 -0.4063
27438W        W43247   4.429   1.344   0.084  0.0008 -0.4148 -0.1923
27439W        W43248  13.172  11.177   1.436 -0.3720  0.2277  0.0206
27440W        W43249   0.818  16.723   3.685 -0.3035 -0.2005 -0.2799
27441W        W43250   9.470   5.239  16.172  0.1306 -0.3479 -0.1366
27442W        W43251   6.236   5.755   5.388  0.1168 -0.2720 -0.1833
27443W        W43252  17.410   5.934   2.202 -0.1280 -0.2182 -0.1580
27444W        W43253  13.455   3.750   4.735  0.2733  0.1200 -0.1033
27445W        W43254   7.309  12.701   3.125  0.0378 -0.0226 -0.0614
27446W        W43255   5.165   5.570  13.316  0.0848 -0.0045 -0.1982
27447W        W43256   2.232  11.720   1.087 -0.1811  0.2720 -0.1375
27448W        W43257   0.439   2.659  14.459 -0.1678  0.5600  0.1273
27449W        W43258   6.459  10.808   1.553  0.3154 -0.0216 -0.0123
27450W        W43259  15.963   4.845   1.906  0.1969  0.1818  0.1530
27451W        W43260   2.594  12.091  11.377 -0.0518  0.2589 -0.0166
27452W        W43261   6.619   5.611   5.748  0.1899 -0.4273 -0.1439
27453W        W43262  10.642   7.064   2.454  0.6049 -0.1441  0.2444
27454W        W43263   3.309  16.171   4.479  0.1371  0.3044 -0.1488
27455W        W43264   6.624   1.881   2.242  0.1600  0.0365  0.4126
27456W        W43265   8.035  17.205   4.689  0.1808 -0.0491 -0.1121
27457W        W43266  17.257  15.763  13.524 -0.0184 -0.2029 -0.0234
27458W        W43267   9.846   4.222   3.395  0.0706 -0.0250 -0.0277
27459W        W43268  18.099   1.896   1.244 -0.0134  0.3103  0.0379
27460W        W43269   1.255  12.674  11.649 -0.0827  0.3721  0.0800
27461W        W43270   5.121   6.317   5.531 -0.1859  0.1887  0.2589
27462W        W43271   1.685   8.693   5.406  0.3146 -0.0172  0.1739
27463W        W43272  10.578  13.495  15.822 -0.0938 -0.0302 -0.1467
27464W        W43273  12.444   0.203   1.908 -0.0654 -0.1301 -0.0426
27465W        W43274   3.279  14.935   5.101 -0.2849  0.0156  0.0544
27466W        W43275   2.484   8.648  12.355 -0.2217 -0.2133  0.0390
27467W        W43276   3.351  11.018   3.113 -0.1031 -0.3094 -0.0823
27468W        W43277   5.030  14.930  12.252  0.0623 -0.1059  0.2718
27469W        W43278   0.767  12.930  11.333 -0.0909 -0.0938 -0.3086
27470W        W43279   4.953  12.206   1.897 -0.0247  0.1186 -0.0289
27471W        W43280  10.219   4.679   3.220  0.1602  0.0287  0.0193
27472W        W43281   7.145   9.271  11.964  0.1499  0.2009  0.1000
27473W        W43282   7.840   0.462   0.400 -0.2108 -0.1267 -0.1085
27474W        W43283  15.194   9.985  10.972 -0.0543  0.0708 -0.0580
27475W        W43284  10.563   0.020   1.100 -0.0561 -0.0743  0.1127
27476W        W43285  10.736  12.322   1.610 -0.0641 -0.2952 -0.1151
27477W        W43286   8.278  17.589  13.540 -0.0249 -0.2280 -0.1539
27478W        W43287  15.219  13.825   0.674 -0.1410 -0.0323  0.1521
27479W        W43288   5.828  15.593   2.657  0.1873 -0.1654  0.1222
27480W        W43289  16.735  15.218  16.194  0.1533  0.1110  0.3602
27481W        W43290  16.868   8.749   3.341 -0.0335 -0.3185  0.3458
27482W        W43291   6.914  10.840   3.508 -0.0645 -0.1241 -0.0071
27483W        W43292   0.040   6.866  14.927  0.3967  0.4693 -0.1828
27484W        W43293   2.242   3.946   0.045 -0.1841 -0.1629 -0.0970
27485W        W43294   5.069   2.835  13.783  0.2278  0.0223  0.1347
27486W        W43295   8.751  10.920   1.537 -0.1053 -0.0778  0.0417
27487W        W43296   4.384   8.697   4.444  0.0028 -0.2534  0.1673
27488W        W43297   9.017   5.800  11.676  0.0313  0.3142 -0.0536
27489W        W43298   6.080  18.022   3.717 -0.1205 -0.3746 -0.1607
27490W        W43299  15.772   4.218  14.140  0.1552 -0.0566 -0.0931
27491W        W43300  18.009  11.720  13.157  0.0547  0.1664  0.1363
27492W        W43301   4.582   3.615   1.652 -0.1564  0.0074  0.0426
27493W        W43302  13.658  10.139   4.484 -0.0475  0.0485  0.2167
27494W        W43303   9.590  11.061   4.391 -0.4937 -0.1342 -0.0080
27495W        W43304   4.641   3.031  14.059 -0.0769  0.2303  0.2195
27496W        W43305   3.080   2.355   4.141  0.1692  0.2111 -0.2580
27497W        W43306  15.489  11.821   5.866 -0.1344 -0.2509  0.0510
27498W        W43307  11.927   3.417  16.192 -0.0292 -0.1788  0.1120
27499W        W43308  11.385  10.685  15.330  0.1792  0.1253 -0.2581
27500W        W43309  14.769  16.593  12.651 -0.2870 -0.1472  0.1374
27501W        W43310   8.152  15.227   5.472 -0.0830 -0.0269  0.1794
27502W        W43311  17.853  12.735  13.962  0.4283 -0.1819  0.0514
27503W        W43312   1.065  13.990   4.368  0.0497 -0.1400  0.1649
27504W        W43313  16.501   1.775   5.635 -0.0110 -0.0988  0.1560
27505W        W43314  11.701   9.064   0.918 -0.0232 -0.0784  0.0940
27506W        W43315  11.150   2.242  12.050 -0.1607  0.1065  0.0512
27507W        W43316   0.595  17.358  14.362 -0.2696 -0.1869  0.1991
27508W        W43317   3.398  11.730   0.189 -0.0151 -0.2506 -0.4047
27509W        W43318  13.699   8.017   4.233  0.4713  0.1985 -0.2755
27510W        W43319   4.525   3.202  11.844 -0.2582  0.0406 -0.4344
27511W        W43320   2.102   6.245  13.317 -0.1075  0.0208 -0.3799
27512W        W43321   1.564  12.524   0.439  0.1057  0.0543 -0.1512
27513W        W43322   9.956  15.858   3.853 -0.2381 -0.1838  0.0747
27514W        W43323   4.588  13.625  12.027 -0.2077  0.2325 -0.1499
27515W        W43324   2.294  10.992  10.906  0.2409 -0.0023  0.2452
27516W        W43325   9.396  15.686   4.615  0.0105  0.0160  0.1696
27517W        W43326  11.926  13.563  14.444  0.1211  0.1662 -0.4062
27518W        W43327   6.618   5.764  11.913  0.2455 -0.0097 -0.4427
27519W        W43328  15.453  17.802   1.416 -0.0314 -0.2257 -0.1875
27520W        W43329   2.347  15.872  13.757 -0.1347  0.2796 -0.1007
27521W        W43330   2.204  11.374   2.348 -0.0255 -0.0182  0.2876
27522W        W43331  17.914  10.285   3.341 -0.0936  0.0778  0.0544
27523W        W43332  16.603   0.248  15.865 -0.1853 -0.1463 -0.2856
27524W        W43333  11.521  16.118   4.486  0.2909 -0.0116  0.1375
27525W        W43334  17.874  16.049  15.798  0.1847 -0.1608 -0.0394
27526W        W43335   7.378  14.732  13.066  0.1278  0.1394 -0.0197
27527W        W43336  17.937  17.137   2.727 -0.0001 -0.2221  0.0690
27528W        W43337   7.304   1.151   0.384 -0.0087  0.0653 -0.0015
27529W        W43338  14.497   7.999   1.219  0.2646  0.0763 -0.2411
27530W        W43339  11.022  17.858   0.557  0.1255  0.0766 -0.1491
27531W        W43340   7.349   3.447  12.519  0.2679 -0.2315  0.0389
27532W        W43341  17.113  17.339  11.951 -0.1624  0.0355 -0.0796
27533W        W43342  11.350  12.310  11.580 -0.2229 -0.1005  0.2554
27534W        W43343   2.813  16.509  16.008  0.1736  0.1850  0.0771
27535W        W43344   4.711   0.411  14.487 -0.2683 -0.0240  0.0786
27536W        W43345  10.965   6.268   2.540  0.2257 -0.1441 -0.1123
27537W        W43346  14.991   1.894  10.958 -0.1089  0.0509 -0.0952
27538W        W43347   4.537   0.739  14.832  0.0380  0.2422 -0.0581
27539W        W43348   8.396  10.123  14.796 -0.1404  0.5090 -0.4989
27540W        W43349  13.976  16.819   5.890  0.1156 -0.1127  0.0946
27541W        W43350  12.975  12.448  15.126  0.0904  0.2347  0.0869
27542W        W43351   2.116   0.865   1.099  0.0934  0.1875 -0.0479
27543W        W43352   2.767   2.372  11.039  0.0210  0.3087  0.1447
27544W        W43353   0.875  16.903  11.499 -0.0144 -0.1299  0.3001
27545W        W43354   5.681   3.648   1.480  0.0886 -0.0762 -0.0717
27546W        W43355   1.263   4.808   0.513  0.0892  0.4048  0.3370
27547W        W43356  16.937   9.795   4.782  0.0866 -0.0009  0.0652
27548W        W43357  17.123  14.425  15.661  0.1403  0.0571 -0.0107
27549W        W43358   9.430  13.944   5.195  0.1326  0.2093  0.0913
27550W        W43359  16.649  17.033   5.085 -0.0058  0.0217  0.0148
27551W        W43360  16.772  16.602  15.484  0.0900 -0.0114 -0.0099
27552W        W43361   3.618  16.232  15.575  0.2220  0.1019 -0.0738
27553W        W43362   3.394  10.628   1.562 -0.1772  0.6669  0.1569
27554W        W43363  16.263   1.937  15.659  0.1142 -0.0729  0.0044
27555W        W43364   7.579  14.580  15.081 -0.2203 -0.0476 -0.1784
27556W        W43365   4.081   7.039   1.725 -0.1032 -0.2297 -0.0951
27557W        W43366  16.647   4.519  14.804  0.3726  0.2368  0.0687
27558W        W43367   3.620  12.845  11.631 -0.2067 -0.2555 -0.1563
27559W        W43368   4.493  11.402   3.333 -0.2657  0.2490 -0.4162
27560W        W43369  12.026  15.695   0.815  0.1433 -0.1115  0.0810
27561W        W43370  16.825   8.666  11.404 -0.0478  0.2069 -0.0474
27562W        W43371  15.853   5.784   0.237  0.2082 -0.0999 -0.1597
27563W        W43372  16.364   9.577   0.414  0.2384 -0.2020 -0.3314
27564W        W43373   4.480   8.864  10.395  0.0845 -0.1405 -0.0638
27565W        W43374   4.625   4.071   3.448  0.2417 -0.0913 -0.0538
27566W        W43375   9.646  14.887  15.552 -0.0030  0.0646  0.3087
27567W        W43376   8.479  11.760   4.892 -0.1879 -0.3456  0.3179
27568W        W43377  17.323   0.182  14.379 -0.0977  0.0094  0.0959
27569W        W43378  12.231   6.496  14.020 -0.2138 -0.3002 -0.0549
27570W        W43379  16.543   9.516   4.597  0.1032 -0.1627 -0.2343
27571W        W43380  18.210  11.347  14.966  0.1935 -0.2894  0.1186
27572W        W43381  17.102   7.438   1.954  0.0913 -0.0904 -0.3382
27573W        W43382  12.127   1.853   2.129 -0.0789 -0.2288 -0.1662
27574W        W43383   0.772  12.800  15.023 -0.1156 -0.0777  0.0167
27575W        W43384  16.232   6.769   2.178  0.1837 -0.3874  0.0169
27576W        W43385   5.507   0.096  13.389 -0.0230  0.1054 -0.1845
27577W        W43386   2.796  10.526  15.225 -0.0124 -0.3229 -0.0402
27578W        W43387  16.471  18.024   1.446 -0.2295  0.1255  0.1015
27579W        W43388   4.250   9.734  12.701 -0.0013 -0.1792  0.0772
27580W        W43389  14.739  12.196   1.520 -0.3335 -0.1679 -0.3260
27581W        W43390  16.623  11.814  12.992 -0.2019 -0.3031  0.0067
27582W        W43391   5.269   6.757  12.705 -0.0404 -0.3679 -0.1806
27583W        W43392  16.985  12.287  14.669  0.1705  0.0252  0.0581
27584W        W43393  10.772  13.578   3.424 -0.1195 -0.0292 -0.0857
27585W        W43394  14.234   4.237   3.583 -0.1571 -0.4133  0.1643
27586W        W43395  18.075   9.467  13.721  0.1227 -0.0303  0.0161
27587W        W43396   8.094  11.917   1.388 -0.0529  0.0320 -0.0268
27588W        W43397  13.683  15.095   4.785  0.0511  0.0551 -0.0388
27589W        W43398  18.137   8.515  10.798 -0.0312  0.1440 -0.2472
27590W        W43399   3.577  11.492   0.627 -0.0934  0.0363  0.2211
27591W        W43400  16.544   1.042   2.938  0.1106  0.0877  0.0774
27592W        W43401  16.022  11.509  11.794  0.0538 -0.1692 -0.1956
27593W        W43402   7.485   0.503   9.699  0.3475 -0.1341 -0.0985
27594W        W43403  15.594  13.509   2.350 -0.2598  0.1263  0.2379
27595W        W43404  16.701  16.487  13.730 -0.2459  0.2321 -0.1236
27596W        W43405   1.341  16.653  12.188 -0.1929 -0.1815 -0.0576
27597W        W43406   4.570  12.360  13.150  0.2562  0.0446  0.2111
27598W        W43407   8.943   3.737   0.148 -0.1951  0.1966  0.0465
27599W        W43408  17.638  11.568   0.247 -0.0821  0.0684 -0.3016
27600W        W43409   3.023   5.300   4.657  0.2155  0.0278  0.0739
27601W        W43410   0.334  10.524  15.409  0.1544 -0.0219  0.3528
27602W        W43411   1.919   5.992   3.509 -0.1624 -0.1694  0.0984
27603W        W43412   3.061  15.430   2.958 -0.0575 -0.0546 -0.0020
27604W        W43413  10.378  17.515   1.909 -0.2472  0.0563 -0.1004
27605W        W43414  17.910  10.307  12.659 -0.1738 -0.0457 -0.2464
27606W        W43415   9.887   7.514  15.260 -0.0039  0.3234  0.3385
27607W        W43416   2.055  16.783  15.409 -0.1739 -0.0161 -0.3682
27608W        W43417  15.363  17.915   2.162 -0.1078  0.2987 -0.1243
27609W        W43418  10.970   2.007  14.300  0.2353  0.1327 -0.1814
27610W        W43419   1.548  10.205   1.547  0.1649  0.0859  0.0358
27611W        W43420   9.757   5.843   3.816 -0.0009  0.3827 -0.0404
27612W        W43421   2.262  16.323  15.312  0.1661  0.2124  0.1035
27613W        W43422   0.462   4.343  15.787 -0.0096 -0.0531 -0.0788
27614W        W43423  17.705   4.036   1.256  0.1587 -0.1188 -0.0967
27615W        W43424   3.647   2.698   5.429  0.2977  0.0690 -0.1249
27616W        W43425   7.211  15.657   0.592 -0.1900  0.1845  0.2580
27617W        W43426   6.977  11.220   5.512 -0.0245  0.0604 -0.0294
27618W        W43427   6.161  16.366   2.329 -0.0214 -0.1034  0.2974
27619W        W43428   2.872   1.601  15.143 -0.1997 -0.1014 -0.1390
27620W        W43429  14.561   7.804  16.171 -0.1838 -0.0219 -0.2925
27621W        W43430   5.896  17.971   0.453  0.3046 -0.0461 -0.0562
27622W        W43431  17.041  11.390   3.331  0.2226 -0.2466 -0.2644
27623W        W43432   4.457   3.269   3.440  0.1011  0.1926 -0.1073
27624W        W43433  15.455   4.527   3.429 -0.1490  0.2439 -0.4227
27625W        W43434   8.394   2.200   0.255  0.2335 -0.1081 -0.0264
27626W        W43435   9.614  11.799   3.197  0.4311  0.0456 -0.0447
27627W        W43436  14.640  12.010   0.424 -0.0410  0.1709  0.0340
27628W        W43437   6.545  14.589  14.112 -0.1151  0.2490  0.0183
27629W        W43438   8.568  13.439   0.295 -0.0410 -0.1104 -0.0421
27630W        W43439  17.592   1.334  10.548  0.5221  0.0031 -0.0601
27631W        W43440   3.686  17.677  11.802  0.3658  0.0370  0.3532
27632W        W43441   4.138  11.270   1.910  0.2219  0.1368  0.0700
27633W        W43442   9.595  16.794   0.671  0.0487  0.0839  0.0467
27634W        W43443  12.290  17.915   4.990 -0.0499 -0.2586 -0.0351
27635W        W43444   8.364   4.779   3.193 -0.2660 -0.2364  0.0871
27636W        W43445   1.662   1.983  15.911 -0.1194 -0.3855 -0.0356
27637W        W43446  18.143   7.455   1.148  0.0377 -0.1676 -0.0288
27638W        W43447   7.307  14.536  13.616 -0.1818  0.1670  0.2381
27639W        W43448  10.541   3.927   1.014 -0.0485 -0.1481 -0.2688
27640W        W43449   0.752   9.472  15.190 -0.1932 -0.2918 -0.0811
27641W        W43450  11.323   5.056   2.640 -0.1792  0.0509 -0.1171
27642W        W43451  12.816   7.347  14.320  0.4107 -0.0250  0.2314
27643W        W43452  18.141   0.256  13.732  0.0433  0.0640  0.0065
27644W        W43453  15.864  17.403   2.230  0.3543  0.2000  0.0899
27645W        W43454  12.240  17.288   2.366  0.0877  0.2541 -0.1308
27646W        W43455   5.638  17.338  11.704 -0.1316  0.3003  0.0049
27647W        W43456   2.935   4.930  12.120  0.6643  0.0739  0.0716
27648W        W43457   3.837  15.385   3.658  0.1241  0.0326  0.1155
27649W        W43458  14.424   7.346  12.759  0.3145  0.1192  0.0161
27650W        W43459   1.442  14.095   1.103  0.1684  0.3024 -0.0846
27651W        W43460   1.833   9.011  15.323  0.1578 -0.2044  0.1003
27652W        W43461   2.061  13.952  15.492 -0.0443  0.0362  0.2509
27653W        W43462   9.780   6.059   0.404  0.2339  0.1547  0.0212
27654W        W43463   7.309   8.023   0.367 -0.0475 -0.2152  0.1519
27655W        W43464  10.252   7.730   1.728  0.1229  0.1485 -0.2173
27656W        W43465  16.540   9.561  13.896 -0.0194  0.2927  0.0771
27657W        W43466   5.082  17.918  14.665 -0.1546  0.0414 -0.1473
27658W        W43467   4.402  17.390  13.011 -0.0709  0.0079 -0.2295
27659W        W43468   6.777  14.591   3.217 -0.3174  0.3918  0.0482
27660W        W43469  14.905  12.034   4.717  0.0379 -0.2096  0.3891
27661W        W43470  15.798   7.879  13.627 -0.0928 -0.0433 -0.1099
27662W        W43471  11.855   8.704  16.342  0.0109 -0.0071  0.1934
27663W        W43472   3.266   1.327  11.647 -0.1329 -0.1050 -0.1266
27664W        W43473   8.176  14.505   4.476  0.0636 -0.0353  0.3366
27665W        W43474   5.993   7.648   1.915 -0.1454 -0.1177  0.1160
27666W        W43475  14.468   2.519   4.250  0.1458 -0.0701  0.0392
27667W        W43476   0.453  13.874  16.130  0.2474  0.3103 -0.1612
27668W        W43477  14.674   2.864  11.948  0.4138  0.0643 -0.0971
27669W        W43478   5.934   0.701   4.365 -0.1996  0.1754 -0.3435
27670W        W43479   2.098  14.935   1.037  0.0585 -0.2307 -0.5643
27671W        W43480  10.521   1.159   4.062 -0.3533  0.3840 -0.1093
27672W        W43481   0.120  16.683   0.091 -0.1352 -0.1395  0.3857
27673W        W43482  17.199  12.389   2.808 -0.2407  0.0386  0.2367
27674W        W43483   3.764   9.575  11.278  0.1421 -0.2963 -0.1519
27675W        W43484   9.986  11.900   0.121 -0.1637 -0.2882 -0.0917
27676W        W43485   1.790   2.420  16.079  0.1340 -0.2278 -0.1991
27677W        W43486   1.425   9.490   5.277  0.3531 -0.1221 -0.2186
27678W        W43487  11.512   4.464  12.689 -0.1032  0.1209  0.1836
27679W        W43488  12.220  16.797  15.507 -0.0049 -0.2214  0.2461
27680W        W43489   0.887  13.375  16.122  0.2524 -0.0067 -0.1073
27681W        W43490   5.228   4.852  11.349  0.1040 -0.3361 -0.0441
27682W        W43491  16.444   7.356   4.490 -0.1163 -0.2148  0.2792
27683W        W43492   8.704   4.049  14.751  0.1629  0.0114 -0.0283
27684W        W43493   0.347  17.113  14.979 -0.1408  0.1047  0.1749
27685W        W43494   2.193   7.164   2.825  0.1185  0.1719 -0.4331
27686W        W43495  14.830  16.853   0.888  0.0906 -0.0940  0.0879
27687W        W43496   4.162  16.111   1.731 -0.0227  0.3420 -0.1406
27688W        W43497   4.927   6.666   2.614 -0.1053 -0.0030 -0.0909
27689W        W43498   3.060  18.206   4.735 -0.0755 -0.2197 -0.1231
27690W        W43499  16.677  17.133  14.945 -0.1613 -0.0431 -0.3311
27691W        W43500  17.247   4.184  11.768 -0.1137 -0.2173  0.1588
27692W        W43501   9.868   0.367   2.746  0.4925 -0.3131 -0.2634
27693W        W43502   9.267   4.460  15.493  0.0746  0.1995 -0.3522
27694W        W43503   9.645   3.597  15.462  0.1870 -0.0787  0.1662
27695W        W43504  11.561  16.059   1.523 -0.0471 -0.1283 -0.1156
27696W        W43505  15.528  12.335  15.953  0.0796  0.1676 -0.2029
27697W        W43506   7.657  13.445  12.792  0.1095 -0.0873  0.2134
27698W        W43507   4.838   6.101  12.155 -0.4376 -0.3090 -0.1246
27699W        W43508   2.121  11.739  13.880 -0.1237  0.0432 -0.1788
27700W        W43509  17.028   2.207   1.659 -0.2230  0.1283  0.0771
27701W        W43510  10.468   9.631   0.699  0.2185 -0.1403 -0.0924
27702W        W43511  11.871   8.352  13.826 -0.0240  0.1945 -0.0532
27703W        W43512  10.829  15.133  11.596 -0.3457 -0.0171  0.0698
27704W        W43513  12.075  17.220   5.351  0.0589 -0.1168  0.2523
27705W        W43514  15.182   8.466  11.077 -0.0230  0.1105  0.1093
27706W        W43515   0.388   2.957   5.913  0.3215  0.1216  0.3650
27707W        W43516  14.586  11.829   5.178 -0.0187  0.1937 -0.4714
27708W        W43517   1.477   9.018  16.346 -0.0256 -0.1553  0.0162
27709W        W43518  13.181  15.021   2.214 -0.0057  0.3293 -0.0789
27710W        W43519   7.949   5.457  15.955  0.0861 -0.0560  0.1693
27711W        W43520   5.611   3.007   2.387  0.0165 -0.1623  0.0193
27712W        W43521   2.482   6.885  14.892  0.1523  0.0819  0.2801
27713W        W43522   0.578   2.632  11.678  0.0328 -0.1254 -0.1366
27714W        W43523   3.826   2.318  15.425 -0.0084  0.0255 -0.0168
27715W        W43524  10.801   8.305  11.763  0.1445 -0.0617  0.0965
27716W        W43525   9.607   7.656  14.846  0.1341  0.2515 -0.0660
27717W        W43526  14.097  16.230   2.074  0.3070 -0.1695 -0.0925
27718W        W43527   6.057   1.744  15.503  0.0531 -0.1944  0.0016
27719W        W43528  14.779   9.110   3.851 -0.2401  0.0606  0.4658
27720W        W43529  10.180   4.195  15.478 -0.0400  0.0345 -0.1320
27721W        W43530  16.502   7.594   0.662 -0.3752  0.2348  0.0374
27722W        W43531  17.833  13.246  15.279  0.2016  0.0710 -0.0326
27723W        W43532   2.046   5.887  12.438  0.0680  0.0973  0.2342
27724W        W43533  17.990   5.447   2.686 -0.0023  0.0832  0.0995
27725W        W43534  11.018   0.014   3.239 -0.0028  0.1357 -0.2500
27726W        W43535  14.364   3.712   4.950  0.0385  0.1646  0.0683
27727W        W43536   5.617  12.689  12.400 -0.2412  0.0831  0.3078
27728W        W43537  12.574  15.095  12.262 -0.0977  0.1557 -0.2716
27729W        W43538  11.598  12.722   3.252 -0.4099 -0.0852 -0.1753
27730W        W43539   1.245   1.898   3.657  0.0171  0.0749 -0.0974
27731W        W43540  16.520   7.438  11.793 -0.0622  0.0793 -0.4884
27732W        W43541   6.423   3.632   1.115 -0.0331 -0.0839 -0.4730
27733W        W43542   7.298  16.083  14.809 -0.3015 -0.1204  0.0399
27734W        W43543  12.247  12.153   3.704  0.0528 -0.1388 -0.1863
27735W        W43544   9.645   2.040  13.073 -0.3136  0.2632 -0.0047
27736W        W43545   3.471  14.089   1.538  0.0941 -0.1914  0.0867
27737W        W43546  11.160   1.999  10.555 -0.2027  0.0883  0.2346
27738W        W43547   6.544   9.766  15.382  0.1378 -0.1566 -0.1706
27739W        W43548  13.547  16.648  12.563 -0.0729 -0.0220  0.3985
27740W        W43549   9.963  14.145   5.342 -0.0587  0.3756  0.4480
27741W        W43550   3.516   8.748   2.807  0.0967 -0.0888 -0.0031
27742W        W43551  16.118   2.420   1.189  0.1969 -0.0207  0.2098
27743W        W43552   6.231  12.605   4.081  0.5430 -0.0202 -0.0319
27744W        W43553   7.629   9.371   0.335  0.0876  0.0133 -0.2106
27745W        W43554   4.141   3.177  15.840  0.1064 -0.0285  0.1116
27746W        W43555  10.010   8.148   1.624  0.1045 -0.1871 -0.2454
27747W        W43556  13.759   4.077   6.484  0.1144  0.2263  0.0611
27748W        W43557   7.590   6.125   5.175 -0.2505 -0.0770  0.2472
27749W        W43558  16.254  10.886  11.122  0.2683 -0.2555  0.0379
27750W        W43559   2.379  17.399   4.101  0.2121 -0.1744  0.2551
27751W        W43560  14.810   7.273   5.264 -0.0453 -0.1686 -0.1508
27752W        W43561   9.593   4.365  11.429 -0.1075  0.0965  0.0123
27753W        W43562   8.211  15.630   2.201  0.0691 -0.2236 -0.0741
27754W        W43563   5.384  11.354  12.028  0.0585  0.0058  0.1493
27755W        W43564   8.098   7.113  14.293 -0.1384 -0.0485 -0.1358
27756W        W43565  12.631   8.605  12.536 -0.1928  0.1708  0.2442
27757W        W43566  12.381  11.142   0.743  0.0216 -0.1794  0.1587
27758W        W43567  12.357   6.598   2.511  0.2995 -0.3333 -0.1425
27759W        W43568   6.663   4.158  14.093  0.2248 -0.0347  0.0403
27760W        W43569  11.815   7.008   1.714 -0.2200 -0.0393  0.2163
27761W        W43570  15.416   8.521  15.002 -0.0111 -0.0704 -0.1563
27762W        W43571   9.316  16.599   1.570  0.0566 -0.1085 -0.0408
27763W        W43572   6.191  12.306   0.008  0.0870  0.2813  0.1104
27764W        W43573   8.361  17.769  14.953 -0.4119  0.0443  0.0926
27765W        W43574  11.519  16.206  13.133  0.0051  0.1211  0.2712
27766W        W43575  10.512  13.617   1.383  0.4280 -0.0320  0.0453
27767W        W43576  10.719   2.173   5.175  0.0621  0.0117 -0.2924
27768W        W43577  17.812  17.249  14.722  0.1056 -0.2263 -0.2235
27769W        W43578   6.549  12.452   1.861  0.4108 -0.0698  0.2041
27770W        W43579  12.274   9.623   3.246 -0.1249 -0.3438  0.0326
27771W        W43580   2.596  17.726  14.885 -0.2289  0.0238  0.0580
27772W        W43581   6.894  16.889   4.768 -0.0895  0.0513  0.3401
27773W        W43582   1.851  12.616   2.030 -0.0766 -0.1743 -0.4922
27774W        W43583   1.455   1.446  11.769  0.1634  0.0579  0.0592
27775W        W43584  13.885  13.479  15.471  0.3075  0.0623  0.0135
27776W        W43585   0.980  11.505   4.100 -0.5405 -0.0805 -0.0455
27777W        W43586   5.883   1.040   2.454 -0.2074 -0.0526  0.0817
27778W        W43587   5.572   1.185  13.796  0.0217 -0.4351 -0.1395
27779W        W43588   8.506  15.602  15.774 -0.0253  0.3330 -0.0492
27780W        W43589  15.244   6.992   4.634  0.1231  0.1451 -0.0238
27781W        W43590   7.746   4.382  16.191 -0.0587  0.1243  0.2791
27782W        W43591  17.937   6.787  15.940 -0.1635  0.0162  0.0087
27783W        W43592   2.058  13.637  13.693 -0.1463 -0.0485 -0.1899
27784W        W43593  13.275   7.925   3.998  0.0780 -0.0745  0.0508
27785W        W43594  14.259   5.690   0.278  0.5018 -0.1386 -0.0090
27786W        W43595  12.183   6.196   2.872  0.1383 -0.2956  0.2841
27787W        W43596  15.966  13.337   5.110 -0.1141 -0.3348 -0.1326
27788W        W43597   0.540   6.179  15.751 -0.1356 -0.0560 -0.1078
27789W        W43598   3.895   5.575   1.041 -0.0621 -0.1451  0.1792
27790W        W43599  12.348   7.700   5.502 -0.1926 -0.2525  0.0771
27791W        W43600   2.994   8.109   2.880  0.1684  0.0750  0.3163
27792W        W43601   2.883   4.758   0.085  0.1295 -0.1144 -0.0835
27793W        W43602  15.044  17.356   4.018  0.2946  0.2054  0.0997
27794W        W43603   3.691  14.251  13.511 -0.0625  0.1588 -0.0664
27795W        W43604   9.331   7.062   3.039 -0.1525  0.0917  0.1394
27796W        W43605  17.786   1.784  13.289 -0.0274 -0.0760 -0.2704
27797W        W43606   1.939   5.316  15.034 -0.4157 -0.0619  0.0622
27798W        W43607   0.920  13.182   3.379  0.1434  0.3808  0.0282
27799W        W43608   6.324  11.654  15.210 -0.0631 -0.0011 -0.0677
27800W        W43609   0.193   1.707   0.723 -0.1474 -0.0921  0.1423
27801W        W43610  14.781  10.782  15.903  0.2707 -0.0704  0.2070
27802W        W43611  14.995  13.002   6.062  0.0052  0.0160  0.0596
27803W        W43612  13.691   8.781  11.581  0.2522 -0.0137  0.0581
27804W        W43613  10.282   9.687  10.505  0.1364 -0.0990  0.0685
27805W        W43614   3.822  14.569   0.713  0.1037 -0.1066  0.0167
27806W        W43615   2.541  12.189  16.232 -0.0210 -0.2578  0.1013
27807W        W43616   2.748  13.434   1.370 -0.1655 -0.0889 -0.3301
27808W        W43617  14.488  13.029  14.106  0.2602  0.1530  0.0997
27809W        W43618   9.145   2.027   0.126 -0.1074 -0.0182 -0.1838
27810W        W43619   8.419  13.229   1.391  0.1984  0.0604  0.0381
27811W        W43620   4.046   9.108  13.287 -0.0045  0.1486  0.0142
27812W        W43621  14.820   1.341  12.429  0.2365 -0.0143  0.0149
27813W        W43622  17.405   5.501  11.997 -0.0892  0.0940 -0.0669
27814W        W43623  17.640  10.363   3.972  0.0449  0.0363 -0.0522
27815W        W43624   2.789   0.958   0.378 -0.1078 -0.2516  0.2250
27816W        W43625  17.025  18.082   5.166 -0.0189 -0.2223  0.1137
27817W        W43626   8.886  16.247  14.703  0.3330 -0.0901 -0.1964
27818W        W43627  13.607   7.487  13.365 -0.0079  0.2383  0.0708
27819W        W43628  13.679   8.995  12.039  0.0484 -0.3615 -0.2207
27820W        W43629  14.744  13.651   2.091 -0.3430 -0.0811 -0.0584
27821W        W43630   5.302   2.174   5.405  0.1554 -0.0533 -0.1727
27822W        W43631   8.694  16.657  13.214 -0.1161  0.0451  0.0370
27823W        W43632   9.710   8.819  11.570  0.1101  0.0194  0.1039
27824W        W43633   8.754   9.257  12.359  0.1749 -0.1767  0.3247
27825W        W43634  17.988  11.336   2.456  0.2791 -0.2616  0.1592
27826W        W43635   0.029  15.690   0.278  0.0610 -0.0301  0.1375
27827W        W43636  12.824  17.239   1.523 -0.4915 -0.0585  0.0959
27828W        W43637  13.430  13.547  14.929 -0.0424  0.2203 -0.3967
27829W        W43638  16.770  16.130  12.877 -0.0898  0.2996  0.0857
27830W        W43639   4.163  14.814   4.774 -0.0045  0.2586 -0.1675
27831W        W43640  16.077   6.038   1.383 -0.1364  0.2123  0.3165
27832W        W43641  15.217  11.799   1.205  0.0342  0.0404 -0.0361
27833W        W43642   2.771   4.713   2.058  0.2166 -0.1077  0.1746
27834W        W43643   0.626  15.339   4.089  0.2890  0.0835  0.2197
27835W        W43644   8.756  18.113   2.991  0.1584 -0.0639 -0.0249
27836W        W43645  12.408  12.530  11.780  0.1945 -0.1350 -0.0056
27837W        W43646   7.452   1.887   5.442  0.1746 -0.0098 -0.0142
27838W        W43647   3.168   2.848  10.556 -0.2299  0.0120  0.0793
27839W        W43648   4.628   1.345  15.639  0.1266 -0.0799 -0.1087
27840W        W43649   1.712   5.686   6.739 -0.0299 -0.2160 -0.2113
27841W        W43650   8.981   2.994  15.771  0.0796  0.3627 -0.0201
27842W        W43651   3.788  12.027  14.039  0.4111  0.0848 -0.0862
27843W        W43652  12.902   4.974  12.559  0.4095 -0.0079  0.1871
27844W        W43653   7.320  13.540   3.770 -0.0673  0.0540 -0.1572
27845W        W43654   8.058  12.403  16.346  0.2791  0.1664  0.1080
27846W        W43655   3.538  14.999   0.623  0.1774  0.2458  0.0502
27847W        W43656   8.090   6.807   2.978  0.2130  0.0441 -0.1237
27848W        W43657   6.620  11.941  12.006 -0.0802  0.3443 -0.3998
27849W        W43658   8.745  17.261   6.018 -0.3580  0.0079  0.0593
27850W        W43659   1.954   6.665   4.923 -0.0430 -0.0801  0.2172
27851W        W43660  11.751  11.568   3.159  0.2163  0.0912 -0.1689
27852W        W43661   7.779  16.233   6.171  0.1350 -0.0831 -0.2034
27853W        W43662  15.090   2.215  13.689  0.3224 -0.0141 -0.0169
27854W        W43663   9.991  16.223   4.217 -0.0595  0.1104  0.1370
27855W        W43664  16.745   4.800  12.287 -0.0249 -0.0414 -0.0223
27856W        W43665   7.565  10.219   3.332 -0.0560  0.0333  0.3298
27857W        W43666   7.014   4.913  14.012  0.0457 -0.3264  0.2185
27858W        W43667   6.322  17.025  12.012 -0.1806  0.1248  0.0227
27859W        W43668   4.405   9.697  13.929  0.2120  0.1260 -0.0698
27860W        W43669   1.473   4.385  13.895 -0.0019  0.0417  0.0387
27861W        W43670  15.519   1.708  13.269  0.0978  0.1701  0.1301
27862W        W43671  17.074   6.406   1.775  0.1232 -0.0998  0.1186
27863W        W43672   0.374  12.826  13.292 -0.2997  0.3668  0.0581
27864W        W43673   0.730   4.415   2.814  0.3506 -0.1657  0.1088
27865W        W43674  10.665   4.355  15.712 -0.0963  0.0858  0.0849
27866W        W43675  14.066   8.332  13.194 -0.2295  0.4007 -0.0423
27867W        W43676   2.275  13.516  11.783  0.0581 -0.1917 -0.2292
27868W        W43677   1.761  11.451   1.284  0.0607 -0.0842 -0.0045
27869W        W43678   8.263  18.124   2.092 -0.3174 -0.2073  0.0708
27870W        W43679   9.104   4.597  12.920 -0.1962  0.0455  0.0897
27871W        W43680   3.048   8.165  15.242 -0.1800 -0.1032 -0.0075
27872W        W43681   2.441   9.634  14.702 -0.0971  0.1547 -0.1267
27873W        W43682  16.210  14.747   2.936 -0.1087 -0.1470  0.0118
27874W        W43683   6.095   1.141   4.301 -0.0168 -0.2615  0.0142
27875W        W43684   8.149  12.748  10.165 -0.1547  0.2339 -0.2668
27876W        W43685   7.527  13.646  14.219  0.0393  0.0707  0.1168
27877W        W43686  15.251  12.341   1.040 -0.0738 -0.0211 -0.1562
27878W        W43687  11.780  15.534  14.665  0.1417 -0.0569  0.1177
27879W        W43688   6.717   2.468  11.271  0.1599  0.0469 -0.1879
27880W        W43689   2.832  16.556   2.518  0.0815 -0.2326 -0.0433
27881W        W43690  13.865   3.409  14.780  0.1600 -0.0800  0.3027
27882W        W43691   2.395  16.192   1.300  0.2248  0.1479 -0.0582
27883W        W43692   1.790   5.355  13.612  0.0076  0.2542  0.5400
27884W        W43693   8.644   4.862   1.322 -0.0335 -0.4081 -0.1050
27885W        W43694  13.935  17.979  13.100  0.4001  0.2674  0.0372
27886W        W43695  17.660   3.947   4.827 -0.0838  0.0254 -0.0005
27887W        W43696  10.542   5.421   3.670 -0.2692 -0.0650 -0.0774
27888W        W43697   3.196  16.599   1.426 -0.2356 -0.0877 -0.2663
27889W        W43698   4.607  12.444  13.813 -0.2573  0.0033 -0.2661
27890W        W43699   9.210  17.167   5.787 -0.1754 -0.0221  0.2454
27891W        W43700   4.119   1.091   1.382  0.2115 -0.1407 -0.4764
27892W        W43701  13.085  14.575   3.138 -0.1106  0.1002 -0.3476
27893W        W43702   7.249   6.139  15.732 -0.0242 -0.0644 -0.1290
27894W        W43703  13.510   7.102   3.500 -0.0696  0.0994  0.0860
27895W        W43704   6.195  10.850   1.957 -0.3589  0.0015 -0.0804
27896W        W43705   2.137  18.106   2.223 -0.1071  0.0672  0.0786
27897W        W43706  12.315   3.653   3.419  0.2268 -0.1521  0.0800
27898W        W43707  12.330   5.656  14.351 -0.4135  0.0668 -0.2774
27899W        W43708   3.934   0.127  16.089  0.1999  0.1875  0.0934
27900W        W43709  11.360  14.404  12.956 -0.2483  0.0022 -0.2490
27901W        W43710  11.807  17.243  12.464  0.0689  0.0919  0.4626
27902W        W43711  14.719   1.810  15.659 -0.3837 -0.0431  0.0648
27903W        W43712   7.612   2.539   3.254  0.0258 -0.2148  0.2317
27904W        W43713   2.958  16.318  14.472 -0.1877 -0.1651  0.3103
27905W        W43714   3.679   9.272  13.055 -0.3515  0.1998  0.1233
27906W        W43715  17.600   4.329  16.339 -0.4591  0.0287  0.0751
27907W        W43716   0.427   1.378   2.384 -0.0937 -0.2221  0.0448
27908W        W43717   0.899   4.288   4.063  0.2748 -0.1915 -0.1606
27909W        W43718   8.604  14.412  12.840  0.1057  0.0771 -0.0472
27910W        W43719  16.907  14.109   2.221  0.1778  0.0384 -0.2147
27911W        W43720   2.438   7.065   5.411  0.1729 -0.1717 -0.0416
27912W        W43721   9.563   7.611  11.726  0.1907  0.2310  0.1259
27913W        W43722   7.895  10.108  14.747 -0.0422  0.2524  0.0768
27914W        W43723  15.730   8.428   6.266 -0.1323  0.0160  0.1178
27915W        W43724  12.506   9.101   3.494 -0.0590  0.1077  0.2385
27916W        W43725   2.678   1.818  16.227  0.2467  0.1193  0.0818
27917W        W43726  16.804   8.289  12.915  0.1291 -0.1849  0.2120
27918W        W43727  14.036  14.427  15.452 -0.3597  0.2807  0.2372
27919W        W43728   8.281   0.486  16.257  0.2299  0.1617  0.1613
27920W        W43729  10.752  11.656   3.364  0.0382 -0.0538 -0.2244
27921W        W43730  14.838  11.452   1.025  0.1614  0.0976  0.3430
27922W        W43731  16.117  17.156   3.018  0.2695  0.0431  0.2189
27923W        W43732   1.325  17.855  14.769 -0.0821 -0.2552 -0.0458
27924W        W43733   7.022  12.827  15.014 -0.0067  0.2692 -0.0804
27925W        W43734  16.315  11.550   4.877  0.0479 -0.0581  0.0756
27926W        W43735  14.826  10.829  12.097 -0.0446  0.0218 -0.2319
27927W        W43736  17.641  17.259  12.607  0.3661  0.1307 -0.2142
27928W        W43737  16.530  10.325   4.087  0.3878  0.3514  0.1306
27929W        W43738   6.519   0.189  11.291  0.2606  0.2242  0.2185
27930W        W43739  17.300   3.230  12.460 -0.0551  0.1104 -0.2941
27931W        W43740  16.005   3.117  16.086 -0.0692 -0.0346 -0.1566
27932W        W43741   5.943  14.836  11.531  0.3692  0.2763  0.1116
27933W        W43742   2.598  13.123   4.868 -0.2889 -0.0622 -0.2217
27934W        W43743   6.890  17.523   0.495  0.1728  0.0182  0.2265
27935W        W43744  16.699  17.048   2.296  0.0240 -0.0136  0.1509
27936W        W43745   3.878  10.120   4.743 -0.1188 -0.0882 -0.0832
27937W        W43746   3.533   8.856   1.661  0.0519  0.0382  0.3044
27938W        W43747   0.182   6.649  15.424 -0.2635  0.1404 -0.1081
27939W        W43748  17.200  13.913   6.200 -0.2522  0.2748  0.1900
27940W        W43749  16.566  13.288   3.502  0.1264 -0.1087  0.0148
27941W        W43750   9.207  13.490   0.331 -0.1036 -0.0284  0.0513
27942W        W43751   3.239  16.410  11.643 -0.2465 -0.2331  0.0469
27943W        W43752   3.809   7.739  13.940 -0.1809 -0.6952 -0.0695
27944W        W43753  12.033  17.193  11.975 -0.2715 -0.1194 -0.0667
27945W        W43754  17.984   4.255   4.116 -0.0101  0.1686 -0.0600
27946W        W43755   9.858   9.653   0.839 -0.1971 -0.3916 -0.1057
27947W        W43756  15.444   9.992   0.268 -0.1071 -0.3078  0.0777
27948W        W43757  14.280   3.009   2.914  0.0571  0.0341  0.1257
27949W        W43758  17.899   1.541   0.878 -0.2150 -0.2624  0.1805
27950W        W43759   3.470   3.018  14.714 -0.1157 -0.1745  0.5037
27951W        W43760   1.233   4.557   2.772  0.0051  0.2968  0.0800
27952W        W43761   8.014  11.221   1.082 -0.0171 -0.0407 -0.4135
27953W        W43762  16.743   1.269  12.978  0.2297  0.1400 -0.2302
27954W        W43763  17.073  10.135  13.500 -0.0387 -0.0828 -0.0797
27955W        W43764  11.665  11.024   0.415 -0.1401 -0.0568  0.0850
27956W        W43765  14.490   9.654   2.551 -0.0861 -0.0576 -0.3326
27957W        W43766   0.513   7.761  15.333 -0.0148 -0.3210 -0.2174
27958W        W43767  16.213   0.277   2.096 -0.1121  0.0021  0.1666
27959W        W43768   6.456  17.006  13.672 -0.2145  0.1498  0.2465
27960W        W43769   8.230  16.006  15.990 -0.1044 -0.0209  0.1811
27961W        W43770   8.476  15.854   4.740  0.1173  0.1489  0.0684
27962W        W43771  10.862  15.291   2.787  0.0669 -0.0335  0.0054
27963W        W43772   9.293  12.682   3.914  0.2000  0.0183  0.0009
27964W        W43773   5.699   4.277  13.006  0.2882 -0.3142 -0.0322
27965W        W43774   5.534   0.014  16.044 -0.2713 -0.2236  0.2248
27966W        W43775   4.007  10.338  14.544 -0.1648 -0.0501 -0.1532
27967W        W43776   7.788   0.319   3.551  0.1576 -0.1349 -0.0500
27968W        W43777   5.984   7.331   1.111  0.2921  0.1536 -0.2253
27969W        W43778   7.799   3.407  13.622 -0.0565  0.4716  0.1751
27970W        W43779   7.247  17.328  15.253  0.0713 -0.3177 -0.2510
27971W        W43780  13.598   9.041  13.653 -0.3242 -0.1508 -0.0439
27972W        W43781   6.098   6.712  13.260 -0.4382  0.1086  0.2177
27973W        W43782  11.169  11.005  12.549  0.3258  0.1102 -0.2238
27974W        W43783   1.848   9.949   2.153  0.0813 -0.0151  0.2688
27975W        W43784   0.450  14.376   1.138 -0.2830  0.0180  0.3132
27976W        W43785  16.351   9.515   5.121  0.0229 -0.1297  0.0613
27977W        W43786  17.036   5.070   5.457 -0.0285  0.4895 -0.0444
27978W        W43787  13.710  11.305   2.752  0.1337  0.1727  0.0604
27979W        W43788  13.126   8.281   0.268  0.1393  0.0909 -0.1009
27980W        W43789  15.212   5.763   5.563 -0.0620 -0.1083  0.0690
27981W        W43790   2.511  12.425  15.351  0.1168 -0.0623  0.0809
27982W        W43791  17.555  14.283  15.559  0.0071  0.0919 -0.0815
27983W        W43792   4.410   8.008   0.061  0.0815 -0.0651 -0.2856
27984W        W43793  14.646  14.224   2.400 -0.1540  0.0855  0.1498
27985W        W43794  17.695  11.715  12.749 -0.5024  0.3163  0.1828
27986W        W43795   4.290  14.773  14.953  0.3423 -0.3954 -0.2594
27987W        W43796   2.455   0.932  11.940 -0.0513  0.1778  0.1703
27988W        W43797   6.778  13.022  11.857 -0.0852  0.0159  0.1277
27989W        W43798  12.185  13.535   4.190 -0.0467 -0.4019 -0.1599
27990W        W43799   0.838  12.034  15.175 -0.1518 -0.1132  0.0166
27991W        W43800   5.506  13.799   0.394 -0.1489  0.6408  0.0368
27992W        W43801   3.395  18.064   3.106 -0.1543  0.2089  0.4295
27993W        W43802   2.463  10.420  13.543 -0.2496 -0.3939  0.3652
27994W        W43803  15.020   8.978  12.176  0.3153 -0.1860  0.1200
27995W        W43804   3.391  16.103   5.797  0.1766  0.0706 -0.0276
27996W        W43805  15.896   4.930  12.931 -0.0868  0.1658  0.0610
27997W        W43806   5.099   6.029  13.469 -0.3078 -0.0037  0.1531
27998W        W43807  14.871   6.973  15.546  0.1359 -0.0759 -0.0251
27999W        W43808   5.417  12.290   3.479 -0.1641  0.0872 -0.1904
28000W        W43809  14.775  15.718   4.975 -0.0668 -0.0456 -0.1819
28001W        W43810  10.624   5.806   4.036 -0.2574 -0.2296  0.4194
28002W        W43811  10.446   3.791  15.762  0.0258 -0.1287  0.1171
28003W        W43812  16.636   7.585   2.225  0.1455  0.2990  0.0871
28004W        W43813   2.986   6.297   3.583 -0.1377  0.3457  0.2561
28005W        W43814   7.401   5.967   3.162 -0.0320  0.0078 -0.4315
28006W        W43815   3.200   5.856   5.434  0.0580 -0.1496 -0.1341
28007W        W43816  15.102   0.942  16.023  0.1122 -0.1484  0.0640
28008W        W43817   8.767   4.059  11.776 -0.0950 -0.1736 -0.0537
28009W        W43818   4.271   1.953   2.518  0.3088  0.2453 -0.0564
28010W        W43819  12.666  12.911  15.138  0.1357 -0.0115  0.0922
28011W        W43820   4.807   8.039   2.368 -0.0207  0.0314  0.1254
28012W        W43821   1.992  12.287  14.863  0.2117 -0.0367  0.1406
28013W        W43822   4.892  10.923   5.215 -0.2273 -0.1402 -0.2383
28014W        W43823  13.320   1.111   0.618 -0.0926  0.1944  0.0623
28015W        W43824   6.616  17.313  15.981  0.0695  0.1324 -0.0642
28016W        W43825  17.591  16.659   4.845  0.2401 -0.0342 -0.0139
28017W        W43826   7.469  10.591  14.253  0.1561 -0.0920  0.3075
28018W        W43827   3.036   4.869   5.528  0.1423 -0.1594  0.0704
28019W        W43828  15.817  17.466   1.725 -0.0665 -0.2279 -0.0752
28020W        W43829   2.573  14.828  11.718 -0.0534  0.4958  0.2973
28021W        W43830  13.341   2.314   5.647 -0.2326  0.2094 -0.0605
28022W        W43831   8.493   0.383   2.000 -0.0088 -0.3981  0.0213
28023W        W43832   0.386   8.892  12.303 -0.0535  0.0161 -0.2660
28024W        W43833  10.847   6.525  16.056  0.1917  0.0522  0.2039
28025W        W43834   5.603   5.889  13.537  0.0125  0.2322 -0.0995
28026W        W43835   8.155  12.369  12.100  0.1943  0.2877  0.0200
28027W        W43836  10.851  16.178  13.742 -0.0497 -0.0270  0.3572
28028W        W43837   0.096   4.558  16.003  0.1677 -0.1018 -0.4241
28029W        W43838  12.014   4.334   1.456 -0.1741 -0.0349 -0.2072
28030W        W43839  17.498  14.674   2.176  0.2699  0.5598  0.0580
28031W        W43840   0.528  13.222   4.822  0.0028  0.1700 -0.3503
28032W        W43841   1.815  13.910   1.917 -0.1550  0.1016  0.0814
28033W        W43842   1.390   8.309  11.547  0.0874 -0.1643  0.1808
28034W        W43843   8.658  16.345   4.059  0.0145 -0.1788  0.2714
28035W        W43844   0.043   2.417   3.787  0.2449 -0.0384  0.0880
28036W        W43845  13.578   1.985   3.587 -0.1931 -0.2464 -0.0196
28037W        W43846   6.427   3.274   3.064 -0.0827  0.1765  0.0088
28038W        W43847  11.506  13.355   4.694  0.0428  0.2387 -0.0142
28039W        W43848   1.613  12.066   4.700  0.3427 -0.1785  0.1734
28040W        W43849   7.911  15.951  12.562 -0.2239  0.0535 -0.2736
28041W        W43850  12.252  13.873  13.742 -0.4291 -0.2832  0.2204
28042W        W43851   2.816  12.620   0.700  0.0036  0.1075  0.3763
28043W        W43852   1.788   8.014   3.277 -0.1112 -0.0305  0.1954
28044W        W43853   9.182  14.739  14.273  0.2723 -0.0223 -0.1681
28045W        W43854   7.775   2.786  12.888  0.1044 -0.3536  0.0239
28046W        W43855   0.691  12.474  16.016 -0.0195 -0.1801 -0.0976
28047W        W43856   3.744  16.233  11.722  0.2269 -0.2469  0.2812
28048W        W43857   3.120  14.067  14.384  0.3340  0.0611  0.2056
28049W        W43858  13.808  11.030   4.032  0.1677  0.0234 -0.0742
28050W        W43859   6.811   7.457  11.728  0.1068 -0.3308 -0.0823
28051W        W43860   6.515   9.195   1.465  0.3740  0.2601 -0.0501
28052W        W43861   0.903  11.005   1.613 -0.2492  0.0610  0.0682
28053W        W43862   4.484   7.937   1.332  0.0937 -0.1511  0.1511
28054W        W43863   9.807   1.605   5.213 -0.0084 -0.2019 -0.1221
28055W        W43864  14.875  11.618   2.752  0.2155 -0.3584 -0.3920
28056W        W43865  18.138   1.318   0.438 -0.0227  0.0397 -0.0415
28057W        W43866   2.392  10.997  14.483  0.0357 -0.2740 -0.0641
28058W        W43867   3.276  12.617   3.234  0.2199 -0.3440  0.1763
28059W        W43868   2.688  13.898   4.488 -0.0228 -0.1848  0.2579
28060W        W43869   0.574  12.408   3.010 -0.0343  0.0690  0.0803
28061W        W43870   9.416   7.710  15.936 -0.1049  0.0549  0.0760
28062W        W43871  13.752   0.467   5.543 -0.0232 -0.0139 -0.0645
28063W        W43872  10.508   7.124   4.268  0.0451  0.0777 -0.3456
28064W        W43873  11.918  16.159   0.056 -0.1209  0.0833 -0.1286
28065W        W43874  10.446  13.502  14.219  0.0178 -0.1012 -0.1612
28066W        W43875  15.707   2.121   4.479  0.1865 -0.1908 -0.3487
28067W        W43876  13.163   2.393  15.123 -0.0636  0.1603  0.2708
28068W        W43877   5.642  11.160  11.545 -0.0497  0.1138  0.1104
28069W        W43878   5.169   8.185  15.468  0.0589  0.0270 -0.0240
28070W        W43879   9.178   3.423   4.437 -0.1122  0.0235 -0.1983
28071W        W43880   7.632  17.363   1.508 -0.1432 -0.3132  0.2198
28072W        W43881  10.971   7.653  14.511 -0.2385  0.0368 -0.1532
28073W        W43882   0.613  14.054  15.118  0.1422 -0.0817 -0.2069
28074W        W43883   5.180   7.182  14.124 -0.0495  0.0197  0.0717
28075W        W43884  16.401  12.726  15.735  0.0951 -0.1719 -0.3805
28076W        W43885   9.076  14.058  16.017  0.1573 -0.1415  0.1488
28077W        W43886   9.174  12.917   5.591 -0.0510 -0.0639 -0.2029
28078W        W43887  13.142   7.629  13.197 -0.0398  0.0693  0.0789
28079W        W43888   0.175   0.262  14.431  0.0780 -0.2276 -0.0868
28080W        W43889   6.070  14.165  13.002  0.1194  0.2849 -0.0773
28081W        W43890   8.131  15.967  13.071 -0.3012  0.3797  0.1223
28082W        W43891   3.235   2.273   4.721 -0.3853 -0.1596 -0.0595
28083W        W43892   0.074  16.079   5.210  0.0300  0.2477 -0.1860
28084W        W43893   7.793   0.159   1.501 -0.0778 -0.2843 -0.0785
28085W        W43894   5.984  17.989  15.654 -0.3966  0.0182  0.0309
28086W        W43895  15.969   9.235  10.854 -0.2087 -0.2584 -0.3571
28087W        W43896  13.752  12.522   3.156  0.0541 -0.2903 -0.0024
28088W        W43897   7.479   2.228   5.007 -0.2104  0.1093  0.0954
28089W        W43898   4.906   7.780   1.054 -0.0901  0.1249 -0.0995
28090W        W43899  15.387  15.188   3.542  0.1959 -0.3249  0.2296
28091W        W43900   0.625   9.648   0.283  0.0053 -0.0645 -0.6755
28092W        W43901   6.183   2.959  16.195  0.1516 -0.2668 -0.1715
28093W        W43902  13.524   5.629  14.046 -0.4060  0.1151 -0.1991
28094W        W43903   2.406   3.003  16.077 -0.1559 -0.1022 -0.0343
28095W        W43904   4.058   9.763   3.027 -0.2320 -0.0543  0.2000
28096W        W43905  10.770   7.668   4.072 -0.0258  0.1722 -0.2642
28097W        W43906   8.016   4.615   2.193  0.0881 -0.0389 -0.0312
28098W        W43907   5.877   6.212   5.574 -0.0845  0.0407  0.0225
28099W        W43908   6.677   0.642   2.724 -0.0739  0.1818  0.1248
28100W        W43909   2.193  10.990  12.774 -0.1837  0.0450 -0.1794
28101W        W43910   9.461   1.549   3.480 -0.0329 -0.2895 -0.2458
28102W        W43911   9.002  11.209   2.832  0.0747  0.2409 -0.0074
28103W        W43912  12.836  15.329   5.581  0.1574 -0.0844 -0.1300
28104W        W43913   1.434   7.516  13.085  0.0021  0.0511  0.0178
28105W        W43914   5.168   8.057   0.638  0.0362 -0.0204 -0.1084
28106W        W43915   0.080   9.195  14.618 -0.1815  0.0733  0.0222
28107W        W43916   7.616  16.430  15.049  0.2547 -0.1473 -0.6036
28108W        W43917   8.648  11.422  14.234 -0.0019  0.1572 -0.1301
28109W        W43918   0.681   8.317  15.312 -0.2379  0.3337 -0.3287
28110W        W43919   0.880  13.205   4.312  0.1126  0.4749  0.1169
28111W        W43920  12.016  13.578   1.921 -0.5591 -0.3548 -0.1146
28112W        W43921  17.541   6.207   6.124  0.2538  0.2563  0.2393
28113W        W43922   4.789   1.431   1.926 -0.1213  0.3524  0.0462
28114W        W43923   4.200   8.255   5.646 -0.0638  0.0892  0.3272
28115W        W43924   6.058  12.424  14.838 -0.2790  0.1400  0.1568
28116W        W43925   7.142   3.157  15.675 -0.1039 -0.0052 -0.2656
28117W        W43926  16.354  14.225  15.439  0.2991  0.1364  0.0826
28118W        W43927  10.459  17.248  14.495  0.2331 -0.0215 -0.0697
28119W        W43928   4.653  11.115   3.696  0.1540 -0.2314 -0.2980
28120W        W43929   6.144   0.345   4.058 -0.0878 -0.0102  0.0965
28121W        W43930   7.634   6.606   5.287  0.1076 -0.0701 -0.2125
28122W        W43931   3.832   2.715   1.138 -0.0250  0.3157  0.0352
28123W        W43932  14.113  11.358   0.561 -0.0818 -0.0641  0.0419
28124W        W43933   0.635   7.966   4.476  0.2525 -0.0283  0.0664
28125W        W43934   4.067   8.058   6.088  0.0133 -0.1291 -0.0662
28126W        W43935  11.503   0.019  15.016 -0.0336  0.0806  0.3341
28127W        W43936   6.556   8.148   3.859 -0.1506  0.1064  0.0959
28128W        W43937   7.540   8.504   2.363 -0.0071  0.1909 -0.0358
28129W        W43938   9.605   9.479  14.906  0.1249 -0.0475 -0.2434
28130W        W43939   5.042  14.072   3.312  0.0553  0.2253 -0.0461
28131W        W43940   0.121  15.080  15.964  0.2212 -0.2835  0.0303
28132W        W43941   3.461   4.550  14.890 -0.0979 -0.0774  0.0286
28133W        W43942  15.648   8.907  11.092 -0.0595  0.0632 -0.1652
28134W        W43943  15.384  13.942  14.430  0.0531 -0.2180 -0.1249
28135W        W43944   4.679   7.385   1.324 -0.1193  0.1404 -0.0407
28136W        W43945  14.886   4.621  11.324  0.1574 -0.1741 -0.0729
28137W        W43946  10.442   5.257   4.872 -0.0883 -0.0971 -0.1140
28138W        W43947   4.134  17.521   3.360 -0.1043 -0.1418  0.0396
28139W        W43948  12.835   7.372  12.862 -0.1644  0.0930 -0.0307
28140W        W43949   7.845   8.306  12.132 -0.0673  0.2110 -0.0608
28141W        W43950  16.086   9.279  13.946  0.1381 -0.2041  0.0562
28142W        W43951  15.931  12.232   2.667 -0.0357 -0.3409 -0.0992
28143W        W43952   2.908  14.845   2.490 -0.0476 -0.0862  0.1430
28144W        W43953   9.230   7.667   1.750 -0.0290  0.2329  0.0881
28145W        W43954   8.731  16.289   1.162 -0.1197 -0.0363  0.1813
28146W        W43955   6.275  15.206  12.985 -0.0249  0.2412  0.4853
28147W        W43956  10.294   2.917   1.928  0.2034 -0.1327  0.4296
28148W        W43957   9.908   6.943   3.026 -0.2381  0.2244 -0.0296
28149W        W43958   9.986   6.571   0.652 -0.0882 -0.0321 -0.2839
28150W        W43959  15.426   3.346   4.959  0.1524  0.0239 -0.0646
28151W        W43960   1.640   8.500   2.583  0.0112 -0.2323  0.0070
28152W        W43961   3.729   7.201  14.470  0.1374  0.1096  0.0935
28153W        W43962  16.441   9.196  14.817  0.0520 -0.1047  0.1459
28154W        W43963   4.218   9.102   5.957  0.0037 -0.3464 -0.0937
28155W        W43964   8.106   8.036   0.774  0.0236  0.1730 -0.0647
28156W        W43965   2.721   9.955   3.967  0.0486 -0.0685  0.0183
28157W        W43966   5.769   1.633  12.007 -0.0580 -0.1386 -0.3206
28158W        W43967  10.694  18.046  14.464 -0.2117  0.0850  0.0452
28159W        W43968   3.722   3.528  14.125 -0.2438 -0.2036 -0.1258
28160W        W43969  18.152   5.498  11.493  0.0406  0.3160 -0.0493
28161W        W43970  12.485   0.653  12.811  0.1584 -0.1438 -0.0286
28162W        W43971  11.862  12.153  11.294 -0.5032 -0.1375  0.0239
28163W        W43972   9.413  14.879   3.317 -0.0770  0.0647  0.2732
28164W        W43973  17.498   2.375   6.424 -0.0630  0.0552 -0.0190
28165W        W43974   3.678   3.249  11.486  0.1642  0.0283  0.1318
28166W        W43975  16.211   2.215   2.841  0.3655  0.0359 -0.1313
28167W        W43976  16.781   0.788   2.464  0.1145  0.3576  0.0416
28168W        W43977   6.198   0.376   5.041 -0.2764 -0.1013  0.1631
28169W        W43978  10.644   3.124  10.908  0.4076  0.0670  0.1406
28170W        W43979  11.866  11.060   2.816  0.0773 -0.0891  0.0441
28171W        W43980   7.673   2.067  13.935  0.0593  0.2733 -0.0216
28172W        W43981  13.828   6.102  11.531  0.1566  0.0944 -0.0419
28173W        W43982   2.568   4.946   5.277  0.1766 -0.0578 -0.0348
28174W        W43983  12.265  11.077  13.381 -0.0615  0.0547  0.1636
28175W        W43984   1.276  10.129  11.246  0.1205  0.1365 -0.1993
28176W        W43985   3.758  14.256  10.292 -0.3156  0.3503  0.2045
28177W        W43986   4.281   9.802  15.661 -0.0085 -0.0766  0.0183
28178W        W43987  10.639   6.821  12.207  0.4257  0.1279  0.0144
28179W        W43988  17.956  13.526   5.422  0.1896 -0.0272  0.0295
28180W        W43989  14.420  13.317   4.179  0.0335 -0.1146  0.1677
28181W        W43990  10.586   7.467  11.454 -0.0026  0.3011 -0.0511
28182W        W43991  14.940  14.138  13.342  0.2378 -0.1658  0.0745
28183W        W43992   6.062   2.654  15.283  0.0717  0.1612 -0.2947
28184W        W43993   3.866   4.677   5.978 -0.2423 -0.1910  0.1384
28185W        W43994   5.134   0.648  11.219  0.0120  0.1001  0.2380
28186W        W43995  11.688  13.103  15.992  0.0722  0.2716 -0.0948
28187W        W43996  10.202   3.253   0.408 -0.2755 -0.0179 -0.0145
28188W        W43997  15.792  10.020  15.106  0.1751  0.2439  0.2490
28189W        W43998  17.872  17.774   0.941  0.2657  0.1550 -0.1482
28190W        W43999   8.626  15.381   2.043 -0.1878 -0.0570  0.1680
28191W        W44000   9.507   5.516   2.932  0.1067  0.2188  0.1643
28192W        W44001   0.311   7.004   5.266  0.0204  0.2215  0.1330
28193W        W44002   8.978  16.276   2.943 -0.4520  0.1632  0.1024
28194W        W44003  12.964  18.098   4.631  0.2427  0.1370 -0.2553
28195W        W44004   2.466   3.372   2.286 -0.1544 -0.1345 -0.3753
28196W        W44005   2.878  13.698  16.304  0.2307 -0.1839 -0.3056
28197W        W44006  10.024  17.052   2.990 -0.0482  0.0860 -0.1145
28198W        W44007   9.164   7.373   2.645 -0.0490  0.2466  0.0947
28199W        W44008  14.327  15.753   0.486 -0.1134  0.0152  0.1985
28200W        W44009  15.794   0.641  15.410  0.0044  0.0370  0.2630
28201W        W44010  13.437   3.582   3.259  0.1134  0.1447  0.1565
28202W        W44011  15.441   2.872  11.689 -0.2560  0.1793 -0.0154
28203W        W44012  13.714  17.302  15.745 -0.1758 -0.0813 -0.1012
28204W        W44013   6.341  14.688  12.917  0.0146  0.1250 -0.0180
28205W        W44014  14.461   6.307   1.326  0.0145  0.1111 -0.2447
28206W        W44015  12.738   8.539   0.225 -0.0977  0.1748  0.2126
28207W        W44016   1.048   1.381   1.083  0.2234  0.1680  0.3035
28208W        W44017  12.354   4.329   2.684 -0.1299 -0.4240 -0.2715
28209W        W44018   7.681   7.076   3.511 -0.1685  0.3481  0.0476
28210W        W44019  16.407   5.398   6.015  0.1070 -0.0504  0.0457
28211W        W44020  11.768   8.783  13.016  0.1137 -0.0106  0.1841
28212W        W44021   5.564  17.437   1.714 -0.1136  0.0989 -0.2129
28213W        W44022  12.914   8.776   1.706  0.1848 -0.0325 -0.4588
28214W        W44023   5.672   7.704  14.662 -0.3486  0.0059 -0.0148
28215W        W44024   9.112   9.405  13.684  0.4008  0.3623  0.1557
28216W        W44025  14.048  16.482  16.132  0.3218 -0.1011  0.3978
28217W        W44026   0.724   9.524   5.241 -0.0498  0.2429  0.1541
28218W        W44027   7.214   6.279   4.851 -0.2398 -0.1506  0.2766
28219W        W44028   0.431  14.327   0.650 -0.2384  0.1201 -0.2633
28220W        W44029   2.515  17.481   2.448  0.1399 -0.3002 -0.0320
28221W        W44030   4.943   4.951  12.704  0.2809 -0.1180 -0.3197
28222W        W44031   9.254   8.296   3.584  0.0169  0.0349 -0.2878
28223W        W44032   4.547  13.434   3.405  0.1309 -0.3008 -0.1148
28224W        W44033   6.430   3.855  10.985 -0.1465 -0.0342 -0.0205
28225W        W44034   9.167   6.901  14.963  0.0056  0.1058  0.0324
28226W        W44035   6.734   2.570  13.012  0.0229 -0.0787 -0.3128
28227W        W44036  10.411   5.758  11.314 -0.1070 -0.0245 -0.1195
28228W        W44037   4.045   4.641  15.690  0.0781  0.1070  0.0560
28229W        W44038   1.068   0.009  13.504  0.2259  0.0162  0.2584
28230W        W44039  16.769   2.259  12.530 -0.0560  0.0561 -0.4640
28231W        W44040   5.982  14.185  15.603  0.2449  0.0557 -0.0294
28232W        W44041   9.546   3.936   1.337  0.1610 -0.0654 -0.0213
28233W        W44042   5.222   4.656   5.172 -0.1127  0.1551  0.0709
28234W        W44043   1.141  10.722  15.093  0.0786  0.1131 -0.0442
28235W        W44044  10.908  12.683   2.545  0.2496  0.3603 -0.1029
28236W        W44045  17.443   9.731  11.482 -0.3548 -0.0055  0.0802
28237W        W44046   7.161   3.900   6.082 -0.5317  0.2705  0.2194
28238W        W44047  11.606   6.262  12.502 -0.2258 -0.2441  0.0939
28239W        W44048  16.229  13.654   0.438  0.3768 -0.3011 -0.3762
28240W        W44049   4.444  10.203  14.829  0.4226  0.1296 -0.2590
28241W        W44050  13.410  15.254   5.305  0.4173 -0.3131 -0.2708
28242W        W44051  10.819  10.807   0.799  0.0594 -0.1923 -0.1519
28243W        W44052  10.159  14.893   1.180  0.0949 -0.1602  0.2259
28244W        W44053   4.938  11.376  16.353 -0.0064 -0.1413  0.0285
28245W        W44054  13.853  17.736   0.896 -0.1448 -0.1994  0.2858
28246W        W44055   3.248   3.217   2.724  0.3918 -0.3572 -0.0178
28247W        W44056   6.251  15.181  11.966  0.0822  0.3136  0.0622
28248W        W44057   6.164  16.386   0.040  0.2608  0.3301 -0.1739
28249W        W44058   2.676   0.250  13.137  0.0834 -0.0054  0.2460
28250W        W44059   7.288   9.858  15.878 -0.0414  0.2489 -0.0243
28251W        W44060   4.548   9.561  12.044  0.0876 -0.1008 -0.0567
28252W        W44061  10.398   9.696   3.803 -0.0236 -0.1008 -0.1766
28253W        W44062  13.342   1.267   2.820 -0.2635 -0.2487  0.0349
28254W        W44063   6.887   2.783  15.443  0.0554  0.2706  0.1417
28255W        W44064   3.139   3.475   0.219  0.2370 -0.1485  0.0676
28256W        W44065   0.964   8.324  12.662  0.2744  0.2325  0.2525
28257W        W44066   6.742   3.991   3.063  0.0660 -0.1906  0.2360
28258W        W44067   2.683   3.856   5.356  0.1749  0.1530  0.0784
28259W        W44068   3.098   4.353   3.632 -0.2967  0.0029 -0.0052
28260W        W44069  10.700   6.005  12.950  0.0771  0.2472  0.0161
28261W        W44070  16.097   3.571  12.018  0.0416 -0.0693 -0.1213
28262W        W44071  11.646  14.887   6.384  0.1847 -0.0679  0.0786
28263W        W44072  16.840  13.155  13.891  0.0104 -0.3205 -0.1761
28264W        W44073   4.449   3.296  14.501 -0.1528 -0.0687  0.0860
28265W        W44074  15.704   5.904  15.580  0.0850 -0.2226 -0.1777
28266W        W44075   7.484   4.980  11.066  0.2344 -0.1908  0.0254
28267W        W44076  16.458   7.288  13.324  0.0062 -0.0055  0.0115
28268W        W44077   9.335  12.989  11.612 -0.1837 -0.0269  0.5886
28269W        W44078   8.904  11.024  15.137  0.0366  0.0609  0.2425
28270W        W44079   7.428   4.935  12.883  0.0438 -0.0371 -0.3304
28271W        W44080  16.324   8.121  12.876 -0.0069 -0.2959  0.1577
28272W        W44081   2.294   6.576  16.055 -0.0760  0.4227 -0.0683
28273W        W44082  12.646  15.609   2.377 -0.2955 -0.1468  0.0257
28274W        W44083  14.813   7.460   1.058  0.0303  0.0816  0.1286
28275W        W44084   6.003   3.380  16.297 -0.2721 -0.1611  0.2110
28276W        W44085   2.963   5.608  13.095 -0.0958 -0.0804  0.1909
28277W        W44086   9.323   0.011  14.152  0.1302  0.0516  0.0648
28278W        W44087   4.982   3.616  12.758  0.1564  0.0989  0.3023
28279W        W44088   3.967   9.453  11.787  0.0486 -0.1709  0.1065
28280W        W44089   6.346  16.307   0.534  0.1351  0.0193  0.2241
28281W        W44090   5.489   4.482   4.771 -0.0582 -0.0358 -0.0148
28282W        W44091  17.048   6.229  11.783 -0.0482 -0.2777  0.0869
28283W        W44092   7.510   0.937  13.279  0.0934 -0.5039 -0.0742
28284W        W44093  11.212   5.366   2.187  0.0299 -0.2757 -0.2421
28285W        W44094   4.816   0.808   5.372  0.2227 -0.0799  0.3681
28286W        W44095  13.115   4.935   2.385  0.2262  0.0261  0.1742
28287W        W44096   8.742  13.424   5.067  0.3521 -0.0412  0.2215
28288W        W44097  11.858  15.343   3.975  0.3848  0.1974  0.2493
28289W        W44098  12.829  14.530   5.181 -0.0845  0.2631  0.2517
28290W        W44099  16.905   6.937  15.578 -0.1305 -0.1730 -0.1941
28291W        W44100  11.790  11.152  11.964  0.1670 -0.2458 -0.0171
28292W        W44101  13.337  13.704   3.584  0.1838  0.0449  0.0817
28293W        W44102   4.578  11.705   0.617  0.1571 -0.1349 -0.5061
28294W        W44103  17.836   3.868  11.298 -0.3108  0.3662 -0.1080
28295W        W44104  10.212  15.657   0.759  0.0932 -0.0221  0.1851
28296W        W44105   0.632   4.388   4.711 -0.0620 -0.0350  0.2101
28297W        W44106   4.888  17.584   2.513  0.0458  0.1117  0.2119
28298W        W44107   3.821  12.923  15.087 -0.0867 -0.1752  0.0600
28299W        W44108  12.362   1.820   3.870  0.0099 -0.0940 -0.1664
28300W        W44109   5.409   9.094   3.205 -0.1924 -0.0612  0.2674
28301W        W44110   8.806   0.887  14.467 -0.2330 -0.3823 -0.1143
28302W        W44111   2.697   2.827   0.681 -0.3657  0.0260  0.1421
28303W        W44112  13.629  11.787   2.712  0.1336 -0.1739  0.0600
28304W        W44113   1.270  13.258  11.033  0.0178  0.1912 -0.0295
28305W        W44114  11.239  11.282  16.136  0.2177  0.2781 -0.5371
28306W        W44115   6.689   3.458   5.294  0.0305 -0.0144  0.1191
28307W        W44116   8.806   4.506  12.522 -0.1456  0.3213  0.1136
28308W        W44117  17.495   8.242   4.504 -0.3348  0.2011  0.1860
28309W        W44118   6.771  18.009   0.215  0.0045  0.0324  0.3395
28310W        W44119   9.281   4.571   2.002  0.1555 -0.2735 -0.4109
28311W        W44120  17.095   7.436  12.687  0.0719  0.0586 -0.0659
28312W        W44121  13.565   7.528   4.211  0.0330  0.0487  0.6359
28313W        W44122   3.540   1.155   2.485  0.3520  0.0648  0.0021
28314W        W44123  10.323   6.613  10.979  0.5126  0.0371  0.2221
28315W        W44124  10.642   1.068  14.469 -0.0752 -0.1433  0.2005
28316W        W44125  14.523   1.098   4.805 -0.0614 -0.0163 -0.0364
28317W        W44126   0.756  10.815  15.405  0.2136 -0.0100  0.1865
28318W        W44127   1.125  11.000   2.070 -0.0016 -0.0592  0.1767
28319W        W44128  10.610  17.942   5.812  0.2714 -0.0061 -0.1758
28320W        W44129  10.407  14.871  12.773  0.0395  0.3847  0.2266
28321W        W44130  12.094   3.534   1.649 -0.0915  0.1809  0.0863
28322W        W44131  12.306   6.911  11.027 -0.0285 -0.0683 -0.1400
28323W        W44132   5.786  10.243  13.152  0.0785  0.3884  0.2108
28324W        W44133   6.589  18.104   2.243 -0.0029 -0.0122  0.2305
28325W        W44134  13.420   3.293   4.972  0.2842  0.1736  0.1746
28326W        W44135  10.695  14.359   0.635 -0.0682  0.1148  0.3235
28327W        W44136   6.945   0.293   2.428 -0.1798 -0.4216  0.1678
28328W        W44137   3.868   5.370  15.937 -0.0628 -0.3809  0.2452
28329W        W44138   0.297  13.807   2.787 -0.2010  0.2038  0.1898
28330W        W44139  16.341  16.504   6.181 -0.0964 -0.1647  0.1079
28331W        W44140   9.089  11.851   1.410 -0.1272 -0.2127  0.0793
28332W        W44141  14.064   5.259   1.271 -0.1386  0.3030  0.2464
28333W        W44142  11.087   5.481  11.862 -0.1505  0.0559 -0.1243
28334W        W44143   2.217   3.892   2.000  0.0355  0.0522  0.2627
28335W        W44144  11.334   3.841   3.443 -0.2517 -0.2392 -0.1336
28336W        W44145   7.536   6.321   3.830  0.0923  0.1219 -0.1540
28337W        W44146  10.314   7.796   4.043 -0.1887  0.0241  0.0257
28338W        W44147   0.806  17.844  14.662  0.1878  0.2394 -0.1122
28339W        W44148   0.752  17.997   4.395  0.2261  0.1939  0.1272
28340W        W44149   7.810   7.271   4.670 -0.0448 -0.5038  0.1240
28341W        W44150   9.273   1.028   2.658  0.4328 -0.1174  0.0424
28342W        W44151   4.011   4.756  13.675  0.0857  0.0468  0.0721
28343W        W44152   9.987   8.928  10.922 -0.0952  0.3093 -0.0526
28344W        W44153   3.623   4.076   4.777 -0.0551  0.1972 -0.0611
28345W        W44154  10.065   8.015  12.147  0.1425 -0.2667 -0.2372
28346W        W44155  14.877  11.107   2.709 -0.2588 -0.1406 -0.0096
28347W        W44156   9.280   6.230  10.130 -0.0177  0.3195  0.1828
28348W        W44157   3.880  12.811  14.279 -0.0944  0.0632 -0.2414
28349W        W44158  14.787   6.972   4.553 -0.0171  0.1151 -0.1907
28350W        W44159  11.563   5.845  12.803 -0.3407 -0.0901  0.2426
28351W        W44160   2.741   1.663   4.914  0.2154 -0.3878 -0.1940
28352W        W44161   4.730   3.794   4.025 -0.0018  0.0537  0.0382
28353W        W44162  14.667   4.017   5.741  0.2767 -0.0371 -0.0848
28354W        W44163  11.267  15.926  13.520  0.0163 -0.1255  0.3444
28355W        W44164  16.958   1.936   5.472 -0.0820 -0.0511 -0.0443
28356W        W44165   3.364  18.065   3.726 -0.4677 -0.1463 -0.2191
28357W        W44166   7.810  10.459  11.394 -0.1831  0.0701 -0.1331
28358W        W44167  17.380   6.663  14.902  0.0244 -0.0135  0.4778
28359W        W44168   7.443   9.261  14.778  0.0200 -0.1031  0.0524
28360W        W44169   4.418   7.356   0.617 -0.0976 -0.0678 -0.1070
28361W        W44170  17.063  12.621  12.533 -0.2607 -0.1513 -0.1882
28362W        W44171   1.902  11.530  11.565  0.0901 -0.3630  0.0338
28363W        W44172   1.748   6.068  13.049 -0.1037  0.1069 -0.0162
28364W        W44173   0.666  10.771   0.659  0.0346 -0.1473  0.0259
28365W        W44174  13.841   1.942   2.508 -0.4233 -0.0134  0.0968
28366W        W44175  14.069   8.538  16.204  0.0951 -0.3361 -0.0745
28367W        W44176   0.805   2.329  13.172  0.0264  0.2138  0.1408
28368W        W44177   5.390   1.954   4.759 -0.0584  0.1775 -0.1821
28369W        W44178  15.031   3.176   4.124 -0.1507 -0.2642 -0.2589
28370W        W44179   2.056  12.953  11.159  0.0383 -0.0604 -0.1676
28371W        W44180  11.727  14.963  15.499  0.0346 -0.0602  0.1361
28372W        W44181  15.934   4.582  13.735  0.1677 -0.0308  0.0141
28373W        W44182  10.636   2.838  13.252  0.1498 -0.0928 -0.0518
28374W        W44183  17.589  14.533  16.309 -0.2060  0.1757 -0.1802
28375W        W44184  11.240  15.590  14.695  0.2446 -0.2980 -0.1853
28376W        W44185   4.490  18.066  11.469 -0.1306  0.3284  0.0369
28377W        W44186  14.124  11.762   4.056 -0.2437 -0.1948 -0.0853
28378W        W44187   7.730  10.813  11.101  0.1136 -0.0367  0.2157
28379W        W44188   5.996  16.921   2.593 -0.0743  0.0771  0.0246
28380W        W44189   0.771  11.599  14.991  0.2163 -0.1601 -0.0233
28381W        W44190   6.514  16.723   0.738 -0.2443  0.2805 -0.1187
28382W        W44191   4.156   9.448   3.741 -0.0153 -0.1431 -0.1106
28383W        W44192   3.023  12.937   3.635  0.0235 -0.0793 -0.1200
28384W        W44193  13.284  10.225   0.647 -0.3213  0.0505 -0.0820
28385W        W44194   1.975   3.566  15.488 -0.2641  0.0101 -0.0759
28386W        W44195   5.020  17.329  13.356  0.2247 -0.1973 -0.4118
28387W        W44196  13.279   1.040  11.244  0.0076 -0.1673  0.0050
28388W        W44197   3.514   5.251   4.341 -0.1199  0.0019 -0.1304
28389W        W44198   7.280  10.972  14.919  0.0389 -0.3572  0.1831
28390W        W44199  10.261  14.471  14.341  0.2504  0.0602 -0.5449
28391W        W44200  13.991   1.052   4.429 -0.0770 -0.2183  0.1129
28392W        W44201  15.843  17.344  11.419 -0.3930  0.3454  0.1282
28393W        W44202   0.874  16.635   2.343 -0.1442  0.0283 -0.4194
28394W        W44203   6.215  13.133  14.160  0.0952  0.0037 -0.1127
28395W        W44204   3.519  11.246   3.487 -0.0759  0.0702  0.1891
28396W        W44205   8.148  10.254   4.356  0.0736 -0.2543 -0.1687
28397W        W44206   1.091  17.539  15.061  0.0870  0.0059 -0.2988
28398W        W44207  16.862   6.832  14.388 -0.3268 -0.2756  0.1415
28399W        W44208   6.192  14.968  14.174  0.1665 -0.2585 -0.0147
28400W        W44209   6.620   1.833  15.360  0.0917 -0.0331 -0.2533
28401W        W44210  17.976   1.376  12.549 -0.3187 -0.0818  0.1235
28402W        W44211   5.923  16.431  11.367  0.2556  0.0351 -0.1143
28403W        W44212  11.959   7.202   0.948 -0.0832 -0.2073 -0.0125
28404W        W44213   0.385  14.448  13.975 -0.1218 -0.2617  0.0119
28405W        W44214   1.192  13.650  13.851 -0.0383  0.0180 -0.0692
28406W        W44215   8.646   2.883  14.880 -0.0125 -0.4828 -0.0278
28407W        W44216  12.148   0.583   0.924  0.1120 -0.0009  0.0219
28408W        W44217  17.605   8.463  15.474 -0.2218 -0.2531  0.0283
28409W        W44218  15.484   5.462   3.573  0.0893  0.0633  0.2308
28410W        W44219  11.635   9.718  14.053  0.1872 -0.1370  0.1627
28411W        W44220   7.542   6.756   2.551  0.0668  0.0106 -0.0404
28412W        W44221  16.250  17.229   0.851 -0.0052 -0.0414 -0.2496
28413W        W44222  12.444  16.175  11.668  0.0757 -0.0601  0.0799
28414W        W44223  15.575   3.245   1.090 -0.1112  0.0127  0.0944
28415W        W44224   2.706   8.346   2.536 -0.0313 -0.0236 -0.0961
28416W        W44225   8.841   8.590   1.922 -0.1136  0.2737 -0.1438
28417W        W44226   2.778  15.043  11.252 -0.1527  0.2703  0.1265
28418W        W44227  17.538  15.037  15.347 -0.4400  0.0692  0.1092
28419W        W44228  12.555  14.911   0.623 -0.0506 -0.1566 -0.1232
28420W        W44229  15.276   8.067  16.186  0.1224  0.0864 -0.1337
28421W        W44230  10.987  16.385   5.180  0.3191  0.0794 -0.0514
28422W        W44231   9.863  18.214  15.282 -0.0197  0.1120  0.1894
28423W        W44232   4.431   0.459  11.217  0.0049  0.0095  0.1967
28424W        W44233   5.793   3.261  10.836  0.1256 -0.0758  0.1687
28425W        W44234   7.414   1.713  12.128 -0.0283 -0.1598 -0.0907
28426W        W44235   7.720   8.769   0.202 -0.0927 -0.0254 -0.0330
28427W        W44236   3.995   0.150   6.161 -0.2399 -0.0760  0.2192
28428W        W44237  16.039   7.499   4.260 -0.2540 -0.0412 -0.1051
28429W        W44238  15.974  12.366   1.560 -0.1162  0.0106  0.1581
28430W        W44239   8.774   2.338   2.091 -0.0237 -0.1640 -0.2319
28431W        W44240   3.208  12.746   2.749 -0.0075  0.4906 -0.0266
28432W        W44241  11.330  10.152  12.224  0.4511 -0.0820 -0.1466
28433W        W44242  10.917   9.498   2.429  0.2225 -0.0974 -0.3238
28434W        W44243  10.738   0.896   2.741  0.0993 -0.1675  0.0397
28435W        W44244   5.638  10.799   2.905 -0.1355 -0.1902 -0.0984
28436W        W44245   8.922  10.874  14.109 -0.0790 -0.1418 -0.1547
28437W        W44246   7.532  13.285   0.162  0.0829 -0.2419 -0.1182
28438W        W44247  10.523  15.161  11.958  0.1947  0.0879  0.2017
28439W        W44248   5.554  11.238   3.711 -0.1204 -0.0821  0.1426
28440W        W44249  11.533  15.632  11.877 -0.0200  0.1579 -0.1464
28441W        W44250   3.531  13.313  14.888 -0.0324  0.0844  0.0131
28442W        W44251  14.775   6.180   3.024  0.2599  0.0147  0.0967
28443W        W44252   6.144  16.309   4.631 -0.2283 -0.0604  0.1326
28444W        W44253   6.408  12.194  15.169 -0.0638  0.0519  0.0839
28445W        W44254  10.993   1.789   4.966  0.0070 -0.0007  0.1227
28446W        W44255  14.888  10.530   2.861 -0.1925 -0.1240 -0.0363
28447W        W44256  11.253  13.427   3.622 -0.3267 -0.4196  0.3289
28448W        W44257   5.247   0.373  11.711 -0.1293  0.5285 -0.1327
28449W        W44258   9.751  11.489   0.631 -0.0885 -0.3432  0.0624
28450W        W44259   7.097   7.513   0.343  0.3545  0.1256 -0.0344
28451W        W44260   6.945   2.320  13.466  0.1026  0.1303  0.1506
28452W        W44261   8.811  17.962  11.884  0.1736 -0.1517 -0.0432
28453W        W44262   1.972  15.696  13.430  0.0569  0.0258 -0.0526
28454W        W44263  13.625   6.749   2.688  0.0737 -0.0172  0.0414
28455W        W44264   2.129  16.633  16.295  0.0475 -0.2463  0.0601
28456W        W44265   8.587  11.968   2.509 -0.0507 -0.1972 -0.2241
28457W        W44266   2.439   8.915  12.766  0.0521 -0.1077 -0.0124
28458W        W44267  10.128  17.364  12.473 -0.0702  0.3377  0.0617
28459W        W44268   2.835  12.869   4.367  0.2856 -0.1449  0.1268
28460W        W44269   7.769   7.473  14.844 -0.0732 -0.3591 -0.1081
28461W        W44270  16.331   3.703   4.357  0.3039 -0.0475  0.0761
28462W        W44271  15.679   6.228  14.595  0.0111  0.0787 -0.0615
28463W        W44272  15.474  14.403  11.421  0.0254  0.0277  0.0700
28464W        W44273   3.864  10.102  15.054  0.0874 -0.1819  0.1243
28465W        W44274   2.231  10.378  12.144 -0.0774 -0.0907 -0.0736
28466W        W44275   3.734   9.660  12.757 -0.0463  0.0256  0.1900
28467W        W44276  15.648  11.116   2.177  0.0736  0.0839  0.0909
28468W        W44277  10.949   0.519   0.107  0.1911  0.0282 -0.0468
28469W        W44278  10.264   3.481  10.790  0.0610 -0.1277  0.0179
28470W        W44279   1.645   0.698  15.477  0.0017  0.0489 -0.1319
28471W        W44280   1.076   0.540   3.752  0.0860 -0.2534  0.0448
28472W        W44281   5.169  11.719  12.798  0.0349  0.6506 -0.1239
28473W        W44282  11.310   5.774  12.362  0.4245 -0.1931  0.2310
28474W        W44283  13.573   1.431   1.625  0.1824 -0.0530  0.1348
28475W        W44284  16.383   7.863   3.737 -0.4399  0.0014 -0.1424
28476W        W44285  11.508  13.893   0.592  0.1168 -0.0419 -0.1564
28477W        W44286  15.527  18.108   5.546 -0.0190  0.0026 -0.0919
28478W        W44287  16.093  13.806  13.601 -0.3503  0.0041 -0.0759
28479W        W44288   3.045   9.758  11.874  0.1118 -0.1655  0.3238
28480W        W44289   6.981  12.034  13.813  0.0388 -0.1331  0.0241
28481W        W44290  10.440   2.410   1.748 -0.2128  0.0382 -0.0116
28482W        W44291  13.041  12.393   0.217  0.1557  0.2014  0.1531
28483W        W44292  12.509   1.634   5.084  0.1602  0.1353  0.5126
28484W        W44293   5.585   5.142   5.042  0.0784 -0.1327 -0.4053
28485W        W44294   8.668   7.104  14.126 -0.1085  0.2040 -0.0263
28486W        W44295   4.602  17.296  12.568 -0.2050  0.2218  0.0259
28487W        W44296  11.157  15.596   4.508 -0.0263  0.2446 -0.1079
28488W        W44297  14.311  10.844  15.538 -0.0384 -0.0765 -0.0993
28489W        W44298  13.141  16.645  14.513  0.1502  0.2168 -0.3657
28490W        W44299   2.956   6.437   0.273 -0.0997  0.4301  0.0977
28491W        W44300   7.932   7.896  15.744  0.2037  0.1242 -0.0260
28492W        W44301  13.923  10.975  12.133  0.1699 -0.1301  0.0431
28493W        W44302   7.148   0.953  16.108 -0.2048  0.3205  0.1832
28494W        W44303   3.763   5.632   4.574 -0.3142 -0.2055  0.3775
28495W        W44304  18.215  17.149   3.182  0.0082  0.0150 -0.2708
28496W        W44305   0.988   5.260  16.020  0.3947  0.3233 -0.0816
28497W        W44306  18.106  11.837  15.792 -0.0405  0.1013 -0.1187
28498W        W44307  15.821   7.253   6.239 -0.0689 -0.1120 -0.0545
28499W        W44308   5.242  17.951  12.536  0.0165  0.2696 -0.2595
28500W        W44309   1.537   3.425   5.517  0.0108  0.1783 -0.1666
28501W        W44310  16.674   3.234  14.389 -0.1308 -0.0562 -0.0012
28502W        W44311   1.547  15.692  13.141  0.1990  0.1014 -0.0965
28503W        W44312  16.147  14.601   4.591 -0.0349 -0.1373 -0.0469
28504W        W44313   1.254  18.095   0.732 -0.1843 -0.2105 -0.0192
28505W        W44314   6.939   7.700   5.111  0.1709 -0.0616 -0.1125
28506W        W44315  13.527  16.101   2.905  0.1226 -0.2143 -0.5753
28507W        W44316   6.167  12.181   3.741 -0.1352 -0.1799  0.2441
28508W        W44317   8.345  11.737  13.995  0.0796  0.1384 -0.0139
28509W        W44318   3.410   0.219   0.443  0.1490 -0.5743 -0.0816
28510W        W44319  14.276  10.591  11.403 -0.1383 -0.0066 -0.4611
28511W        W44320   3.405  15.150  13.503 -0.1620  0.1547  0.0079
28512W        W44321  17.740   7.518   0.018 -0.0875 -0.0833  0.2050
28513W        W44322   7.113   3.533  14.734 -0.0110 -0.1473 -0.3095
28514W        W44323  17.857   7.257  13.468 -0.1219 -0.0850 -0.1022
28515W        W44324   0.275  10.951  14.589 -0.0951  0.0634 -0.1719
28516W        W44325  18.072   4.127   4.628  0.2292 -0.1556  0.4327
28517W        W44326   5.886   5.495  14.832 -0.2257 -0.1120 -0.0311
28518W        W44327  13.369  10.410  10.705  0.2854  0.0673 -0.2240
28519W        W44328   3.029   5.670   0.728  0.1149 -0.2462  0.0507
28520W        W44329   8.866  16.376   1.613 -0.0063 -0.1382 -0.0096
28521W        W44330   5.034  16.929   5.544 -0.2205 -0.1938  0.1367
28522W        W44331   0.868   2.251   3.674  0.2879  0.0110  0.3571
28523W        W44332  10.828  17.934   1.898  0.0788 -0.2327  0.0870
28524W        W44333  12.521   4.349  14.601 -0.1413 -0.3096  0.0126
28525W        W44334   3.649   2.052  12.137 -0.0142  0.2667  0.1503
28526W        W44335   2.881   5.876  14.213 -0.0951 -0.1239  0.2664
28527W        W44336  16.687   5.533  12.570  0.1185 -0.0525  0.3708
28528W        W44337  14.745   4.724   2.682  0.0206  0.1176  0.0365
28529W        W44338   7.705   4.994  13.832  0.5027 -0.2208 -0.2486
28530W        W44339  13.229  11.705   2.090 -0.0687  0.2206  0.2154
28531W        W44340  12.031   2.190  15.517  0.0430  0.2743 -0.0406
28532W        W44341   2.848   7.178  11.607  0.0309  0.0700 -0.0539
28533W        W44342   2.742  17.246  14.642  0.2417 -0.2442 -0.1418
28534W        W44343  15.059   9.126   3.102 -0.3456  0.0015  0.1013
28535W        W44344  17.636  10.217  15.489 -0.0062 -0.1131  0.1345
28536W        W44345   4.717   5.811  13.806  0.3296 -0.3219 -0.3469
28537W        W44346  15.106  10.497   2.049 -0.3187  0.4782  0.1730
28538W        W44347  11.033  16.998  16.226  0.3123  0.1290 -0.0448
28539W        W44348   9.780  13.644  16.306 -0.1546  0.2143  0.3463
28540W        W44349   9.699   4.901  10.854  0.1236  0.1134  0.0392
28541W        W44350   8.803   4.107   4.837  0.2465  0.3032  0.1176
28542W        W44351   6.660   3.918   5.036  0.2083 -0.1438  0.1572
28543W        W44352  15.005   3.624  13.754 -0.2262 -0.0414 -0.0008
28544W        W44353  16.038  14.326   0.802 -0.0639 -0.2315  0.1225
28545W        W44354   7.111  14.729   2.762 -0.1316 -0.0192 -0.2318
28546W        W44355  12.316  13.543  10.908  0.3648 -0.0223  0.1375
28547W        W44356   0.428  10.727  14.995  0.0863 -0.0312 -0.1123
28548W        W44357  16.685  17.478   4.103  0.1854  0.5809  0.0444
28549W        W44358   5.405   8.864   1.573  0.0763 -0.0553 -0.0493
28550W        W44359   8.124   2.574  16.163  0.1689  0.2875 -0.2965
28551W        W44360   1.967   1.814  14.726  0.0546  0.2288  0.2376
28552W        W44361  16.340   5.589   3.867 -0.1054 -0.0197 -0.3064
28553W        W44362   8.252  11.476   4.381 -0.0291 -0.3754  0.0618
28554W        W44363   4.826   7.710   3.242 -0.4050 -0.0458  0.2454
28555W        W44364   4.248  10.271  13.334 -0.2060  0.0009  0.0241
28556W        W44365   7.850   4.506  15.176 -0.0218 -0.0570 -0.0806
28557W        W44366   7.493  17.182  12.086  0.0965  0.1612  0.1324
28558W        W44367  13.525  12.494  12.124  0.0017 -0.0134 -0.0386
28559W        W44368  15.542  12.626   1.373 -0.0680 -0.1389 -0.0070
28560W        W44369   2.156  13.296   0.451  0.1081  0.1852 -0.0982
28561W        W44370   1.068   3.097  13.930  0.2754  0.1413 -0.0883
28562W        W44371   9.907   1.657   2.140  0.1193 -0.0869  0.3028
28563W        W44372  11.615   2.112  12.000 -0.1506 -0.2734 -0.3352
28564W        W44373   3.973  10.520   5.763 -0.1972 -0.0764  0.1409
28565W        W44374   5.591   0.986  11.274  0.2159  0.0346  0.0085
28566W        W44375   3.074   8.474  13.044 -0.0170 -0.1829 -0.2124
28567W        W44376  16.617   1.673   4.199  0.1122 -0.2358 -0.2980
28568W        W44377  10.882  11.236  13.045 -0.1817  0.2207  0.0999
28569W        W44378  16.723  13.716  15.166 -0.0837 -0.2622 -0.0357
28570W        W44379  14.132   9.349   4.449  0.0490 -0.4796  0.0612
28571W        W44380   6.013  17.745  14.585 -0.0311 -0.0158  0.0746
28572W        W44381  15.052   5.711   5.077  0.1837 -0.0915 -0.2915
28573W        W44382  13.814   1.529   2.912 -0.1031  0.0491 -0.0303
28574W        W44383   8.046   1.236   2.135 -0.0381  0.1135  0.1680
28575W        W44384  17.845  10.360  14.689 -0.4479 -0.0404 -0.1767
28576W        W44385  15.341   6.682  12.016 -0.1422  0.0660  0.1044
28577W        W44386   9.724   4.460  14.979  0.1353 -0.0939 -0.1656
28578W        W44387   2.960   7.650   1.950  0.0009 -0.1354 -0.2903
28579W        W44388   0.022   8.678  13.409  0.1543  0.0111 -0.3441
28580W        W44389  14.015   7.525   0.441 -0.0267  0.1509  0.0099
28581W        W44390  11.713  11.562  10.248  0.0863 -0.4011 -0.0080
28582W        W44391   6.441   8.711  14.676  0.2581 -0.1508  0.1192
28583W        W44392   4.725   2.447  11.927 -0.0535  0.1241 -0.1406
28584W        W44393   5.701   6.926  12.145  0.1912  0.0093  0.0839
28585W        W44394   7.069   4.460   4.230 -0.3425  0.0558 -0.0060
28586W        W44395  10.760   6.809  14.976  0.1460 -0.0044 -0.1916
28587W        W44396   0.329  13.590   1.570 -0.0500  0.0982  0.4374
28588W        W44397   4.316  12.385  15.678 -0.0645  0.0677 -0.0397
28589W        W44398   4.710  10.578   0.280  0.0860  0.0635  0.1008
28590W        W44399  13.025   2.095  15.509  0.2065 -0.1410 -0.0192
28591W        W44400  11.383  16.621   3.729 -0.1477 -0.5280 -0.3104
28592W        W44401   8.137   5.749  14.256  0.0705  0.0224 -0.1763
28593W        W44402  10.214   6.685  11.910  0.1935 -0.2929 -0.1893
28594W        W44403   2.389  16.596   2.758 -0.0092  0.0574 -0.1086
28595W        W44404   7.813   6.391  11.515 -0.0865 -0.0605  0.1309
28596W        W44405  13.631  14.506   0.335  0.1568 -0.1919  0.4970
28597W        W44406  14.132  17.573   2.217  0.0920  0.2020  0.0582
28598W        W44407   1.728   9.542  12.985  0.1461 -0.0438  0.3390
28599W        W44408   6.337   0.452  12.539  0.1124 -0.3549  0.1427
28600W        W44409   0.903   9.711   4.508 -0.1830  0.0394  0.1722
28601W        W44410  11.541  13.201  12.120  0.1716 -0.0127  0.2035
28602W        W44411  14.425   4.468  15.629  0.1027 -0.0971  0.0781
28603W        W44412  17.395  17.257   1.830  0.1481 -0.2167  0.0883
28604W        W44413   5.195  15.575   4.765 -0.1813 -0.1292  0.0476
28605W        W44414  15.207   0.423   2.650  0.0578  0.0172  0.0651
28606W        W44415   2.052   6.951  14.042 -0.0068  0.0456 -0.4172
28607W        W44416  15.017  15.566   1.018 -0.2000 -0.1677 -0.0087
28608W        W44417   9.900   7.370   3.822 -0.2321  0.0967  0.1993
28609W        W44418   0.881  16.937   1.883  0.1571  0.5616 -0.2053
28610W        W44419   0.943   6.178   6.489  0.0516  0.0626 -0.3189
28611W        W44420  11.003  12.609  13.706 -0.0387  0.0377 -0.1448
28612W        W44421   4.936   0.674   2.340  0.1025  0.1609 -0.0770
28613W        W44422   1.479   6.588   1.621 -0.1605  0.0694 -0.0929
28614W        W44423  15.691   7.135  14.999  0.0377  0.1117 -0.3802
28615W        W44424  14.094  17.781  11.906  0.4724  0.1089  0.1748
28616W        W44425   7.092   9.152   1.442  0.3727 -0.2264  0.1000
28617W        W44426  10.547  17.027   3.311  0.1086  0.0846  0.3049
28618W        W44427  11.056   0.499   3.519  0.2896  0.0816 -0.1774
28619W        W44428  12.780  12.616  14.190  0.0635  0.1359 -0.2127
28620W        W44429   4.478  16.925   1.519 -0.0870  0.0660 -0.5100
28621W        W44430   5.322  16.836   2.860 -0.3453  0.4034 -0.0865
28622W        W44431   1.011   0.894   1.238 -0.1980 -0.1894  0.0586
28623W        W44432  10.404   8.751   2.798  0.0813  0.0098 -0.0368
28624W        W44433  10.654  12.839   1.753  0.0108  0.0181  0.1839
28625W        W44434   6.601   9.697  12.857  0.1425 -0.1425  0.0816
28626W        W44435  15.991  12.631   5.666  0.0133 -0.2542 -0.2543
28627W        W44436  10.227  13.909  12.478  0.0491 -0.2598 -0.0932
28628W        W44437  10.472  15.140   2.432 -0.0804  0.1474 -0.4041
28629W        W44438  12.552  17.938   2.218 -0.0267 -0.0695  0.2157
28630W        W44439   0.255  14.687  16.265  0.3264  0.0749 -0.2953
28631W        W44440   3.179  14.654  14.727  0.1830 -0.0154 -0.4901
28632W        W44441   5.447  10.423  12.096 -0.0395  0.2143 -0.1154
28633W        W44442  12.927  10.561   0.568  0.0277  0.2470 -0.1220
28634W        W44443  16.160   1.898   3.719  0.3411 -0.0490  0.2045
28635W        W44444   4.698  18.169  15.500 -0.1271 -0.2632  0.3054
28636W        W44445   9.290   8.040  14.918 -0.0545  0.1633  0.0919
28637W        W44446  15.772   9.850   4.404 -0.3173 -0.1625 -0.0435
28638W        W44447   4.729   2.553  15.689  0.0656  0.0593  0.2562
28639W        W44448   3.869  10.145   1.459 -0.1719 -0.2384 -0.0751
28640W        W44449  16.536  15.204   5.700 -0.1022  0.1664  0.0119
28641W        W44450   0.271   3.490   3.865 -0.0014  0.1603  0.0179
28642W        W44451   0.285   7.837  13.910  0.1598 -0.4687  0.0967
28643W        W44452   8.894  15.405  16.007 -0.1570 -0.0549 -0.2772
28644W        W44453   0.072  15.186   1.148 -0.1255 -0.0499 -0.0578
28645W        W44454   2.906   6.182   2.956  0.2445 -0.0194  0.1114
28646W        W44455  13.796  10.314  14.396 -0.1537  0.0464  0.1250
28647W        W44456   9.766  15.650   2.988 -0.2843  0.4599 -0.0621
28648W        W44457   1.056   2.374  12.579 -0.0513 -0.2495  0.0817
28649W        W44458   4.316  15.887   2.270 -0.2504  0.1838 -0.0175
28650W        W44459   6.423  12.027   4.970 -0.1223  0.0182  0.0386
28651W        W44460  17.597  16.424   0.809  0.1902 -0.1146 -0.2243
28652W        W44461  17.622  11.731   1.598 -0.1108  0.2872  0.2731
28653W        W44462  15.511   2.206  13.507  0.0242  0.0871  0.2822
28654W        W44463  12.623  17.974   3.095 -0.0092  0.0434  0.0122
28655W        W44464  14.951  13.289  11.992 -0.0623  0.0344 -0.2705
28656W        W44465  10.580   3.172  14.541  0.0351 -0.1346  0.1668
28657W        W44466   0.231  10.928   1.186 -0.0732 -0.0540 -0.1183
28658W        W44467  16.917  15.365  12.689  0.0222  0.1765 -0.0639
28659W        W44468  13.402  15.638  14.110  0.3331 -0.1093 -0.1028
28660W        W44469   7.900   9.362   2.756  0.0037 -0.0053 -0.1628
28661W        W44470   1.900  13.619   4.021  0.0239 -0.1458  0.2975
28662W        W44471  11.968   9.506  14.284  0.0903 -0.3945 -0.1622
28663W        W44472  18.059   9.147   5.733  0.1501 -0.1636  0.0761
28664W        W44473   9.464  17.439  15.710 -0.2993 -0.1683  0.1768
28665W        W44474  12.554   9.941  10.761 -0.1674  0.4721  0.4010
28666W        W44475   5.763   9.142   3.673 -0.0198 -0.0892 -0.2107
28667W        W44476  18.057   2.058  15.811 -0.0133  0.0715  0.0851
28668W        W44477  16.000  15.992  15.494 -0.1781  0.1068  0.0052
28669W        W44478  17.216  13.024  11.546 -0.0062  0.1690  0.1835
28670W        W44479   1.855  14.781   2.345 -0.0501  0.0685 -0.0072
28671W        W44480  17.463  17.581   4.496 -0.0185  0.6650  0.1600
28672W        W44481  11.858  10.438  10.752  0.1956  0.0798  0.1680
28673W        W44482  16.854   4.085  12.721 -0.2085 -0.0488 -0.2412
28674W        W44483   0.413   7.445   1.276  0.1165 -0.0650 -0.0138
28675W        W44484   3.203  17.988  15.663 -0.1486  0.4554  0.2380
28676W        W44485   1.036  17.122   4.120 -0.4747 -0.2543  0.0894
28677W        W44486   8.310  16.374   2.010  0.0428  0.1316 -0.1378
28678W        W44487   8.298   5.748   4.501  0.0123  0.0839  0.1604
28679W        W44488  13.993   6.444  14.215 -0.1174 -0.1837  0.2216
28680W        W44489  14.939   6.305  13.172 -0.1330  0.0836 -0.1113
28681W        W44490  10.287   2.404  12.341 -0.0527 -0.2537 -0.0885
28682W        W44491  17.466   4.892   5.804 -0.1499  0.1567  0.0039
28683W        W44492  14.070   9.749   2.248 -0.1668 -0.0319  0.0727
28684W        W44493  13.445   0.515  11.588  0.1537  0.2003 -0.1529
28685W        W44494   0.210  15.500  11.668 -0.2644 -0.0159  0.1214
28686W        W44495   8.860  16.245   5.260  0.4668 -0.0395 -0.3099
28687W        W44496   2.930  16.999   1.573 -0.1778 -0.0407  0.0335
28688W        W44497   4.311  11.213   6.021  0.0497 -0.5219 -0.0130
28689W        W44498  14.678   5.399  16.350 -0.0272  0.1613  0.0271
28690W        W44499   3.276  18.127   5.522 -0.1239  0.2154 -0.2040
28691W        W44500  15.464   4.077   1.469  0.0103 -0.0143 -0.3280
28692W        W44501   9.895   9.858   4.122  0.2254 -0.0337 -0.0005
28693W        W44502  14.506   3.406   2.436 -0.0709  0.0600  0.1541
28694W        W44503  13.652   2.418   6.373 -0.1355  0.0657 -0.0583
28695W        W44504   9.949   7.305  11.482  0.3755 -0.1455  0.0292
28696W        W44505   8.491   3.383   3.760  0.1326  0.0513 -0.0688
28697W        W44506   8.974  17.545  11.080 -0.3054 -0.2872 -0.1307
28698W        W44507   6.297   6.878  15.597 -0.2193 -0.2046  0.0293
28699W        W44508   8.163  16.753   4.889 -0.2626 -0.3504  0.0690
28700W        W44509  14.461  10.617   3.563  0.1680  0.5414 -0.1283
28701W        W44510   8.970  15.927   4.923 -0.1654 -0.0823  0.2215
28702W        W44511   0.127   6.524   1.327 -0.1397 -0.0473  0.4925
28703W        W44512  16.458   7.866   5.203  0.2995 -0.1114 -0.1375
28704W        W44513   1.445  16.828  15.664 -0.0315  0.3687 -0.3921
28705W        W44514   5.360  12.990   2.327 -0.0305  0.0889 -0.1844
28706W        W44515   0.644  12.986  10.257 -0.0334 -0.6178 -0.0622
28707W        W44516  11.516   9.649   4.895  0.0600 -0.0427 -0.3594
28708W        W44517   3.881   5.923  12.179 -0.1232  0.3107 -0.1399
28709W        W44518  16.903  16.769  12.750  0.2341 -0.0692 -0.4640
28710W        W44519   2.408  11.365  12.548 -0.0183 -0.2278  0.0628
28711W        W44520   0.143   5.532  12.758 -0.1263 -0.0619  0.3982
28712W        W44521  12.411  12.242  14.089  0.1574  0.2726  0.0812
28713W        W44522   3.740  17.632  10.453  0.3256 -0.0147  0.1728
28714W        W44523  16.483   2.346  13.333 -0.2818  0.3544  0.3604
28715W        W44524  17.643   5.698  15.927  0.1476 -0.2728 -0.2545
28716W        W44525  14.007   7.923   1.135  0.1224  0.3949  0.0474
28717W        W44526   3.154  12.117   0.459 -0.1801 -0.0873  0.0291
28718W        W44527  13.507  10.867  12.455 -0.2945 -0.2314  0.2414
28719W        W44528  11.151   2.510  14.360  0.2959  0.0247 -0.2232
28720W        W44529   6.917   2.429   3.872 -0.0660 -0.1176  0.0396
28721W        W44530  13.228   2.761   0.183  0.1236 -0.4598 -0.0490
28722W        W44531   1.637  15.120   0.777  0.2364 -0.0320 -0.0656
28723W        W44532  11.108   0.125   0.919  0.0883  0.1850  0.1395
28724W        W44533   9.105   6.075  14.977 -0.0221  0.1743 -0.0404
28725W        W44534   4.570   4.496  15.846 -0.3147  0.0206  0.1427
28726W        W44535  15.971   6.446  16.259  0.2919 -0.2429  0.2465
28727W        W44536  12.305   2.980   3.380  0.0398  0.0705  0.1512
28728W        W44537   5.536   8.362   1.825  0.2129 -0.2197  0.0320
28729W        W44538  10.568   2.589   5.849 -0.3497  0.0101 -0.3851
28730W        W44539   0.757   7.899  13.745  0.0757  0.3045  0.3158
28731W        W44540   0.896   9.491   0.701 -0.1027 -0.0892  0.0201
28732W        W44541  10.796   9.079  14.536 -0.1258 -0.1304 -0.0474
28733W        W44542   2.850   8.308  12.197 -0.0152  0.0079 -0.2094
28734W        W44543   0.725  10.162   5.817 -0.0115  0.1899  0.1846
28735W        W44544   7.538   4.480   2.088  0.1178 -0.0231 -0.2944
28736W        W44545   8.853   0.354  14.308  0.0542  0.0053  0.0967
28737W        W44546  10.972  16.646   3.980 -0.0892  0.3814 -0.2821
28738W        W44547   7.717  17.628  13.472  0.1667 -0.1852 -0.1332
28739W        W44548   4.145  11.701  13.903  0.5162  0.2101  0.0046
28740W        W44549  12.044  12.739   1.700  0.1204  0.1284  0.0012
28741W        W44550   5.119   9.213   4.123  0.4965 -0.0237  0.0987
28742W        W44551   4.733  13.416  11.557 -0.3507  0.1636 -0.0192
28743W        W44552  17.035   4.739   6.019 -0.1756  0.4491  0.0241
28744W        W44553   0.699  12.407  11.319 -0.0340  0.1211 -0.2269
28745W        W44554  18.116   3.723  15.738  0.1368  0.0725 -0.2080
28746W        W44555  10.986  15.649   1.015 -0.2885  0.0009  0.0422
28747W        W44556  14.410   8.023  13.338  0.4954 -0.3573 -0.2857
28748W        W44557   4.236  13.625   2.148 -0.0477 -0.1055  0.1514
28749W        W44558   7.876   7.552  12.574  0.1084 -0.2029 -0.0421
28750W        W44559   9.967   6.078   0.854  0.1140  0.3983  0.0779
28751W        W44560  10.870  11.991  11.318 -0.3395 -0.1544 -0.2767
28752W        W44561  14.591  13.032   2.743 -0.6559  0.0647 -0.1824
28753W        W44562   1.039   2.107  15.124 -0.0778  0.4193  0.1013
28754W        W44563   5.056   8.357   3.865  0.0182 -0.2700  0.2197
28755W        W44564  16.809   9.871   5.844 -0.3091  0.0804 -0.0183
28756W        W44565  10.574  11.244   3.134 -0.1205  0.2071 -0.1772
28757W        W44566  17.610  11.455  12.333  0.3500  0.0032 -0.1293
28758W        W44567  10.899  17.406   1.795  0.1336 -0.0400  0.0097
28759W        W44568  17.706   1.245   1.960  0.0423 -0.2345 -0.0379
28760W        W44569   3.086   5.739  10.771  0.4039 -0.2537 -0.0695
28761W        W44570   9.536   1.125  13.259  0.0711 -0.1010  0.1388
28762W        W44571  13.458  13.307  11.840  0.2140 -0.0674 -0.2763
28763W        W44572  18.008   5.568   5.409 -0.0618 -0.1909 -0.1450
28764W        W44573   7.041   8.279  13.885  0.0161  0.0582 -0.0640
28765W        W44574   3.786  12.663   1.896  0.3197 -0.1358  0.0498
28766W        W44575   1.499   5.259   1.119  0.0625  0.5880 -0.0507
28767W        W44576  15.977  13.316   4.230  0.2321  0.2010  0.1268
28768W        W44577   0.293   8.378   1.503  0.1320 -0.0328 -0.1961
28769W        W44578  18.179  12.435   1.766 -0.1376 -0.0955  0.0663
28770W        W44579   2.932  16.951   2.880  0.1172 -0.0503  0.2802
28771W        W44580  16.900  10.220   1.915 -0.2060  0.0238  0.1728
28772W        W44581  13.184  16.037  13.908  0.0203  0.0170  0.0314
28773W        W44582  13.831  17.869  15.080  0.1808 -0.1752  0.0210
28774W        W44583   5.834  14.261   0.504  0.2895 -0.2775  0.3262
28775W        W44584   0.066   0.690  15.863 -0.0120 -0.0573 -0.1943
28776W        W44585  11.223   3.220   1.255  0.1448 -0.0247 -0.2062
28777W        W44586   1.526   3.078   1.142  0.0269 -0.1336  0.1966
28778W        W44587   5.323   9.812   2.590  0.2198  0.0586  0.1966
28779W        W44588   4.166   0.069  13.615  0.2901  0.0797  0.0652
28780W        W44589   3.957  11.853  13.447 -0.1969  0.1183  0.2096
28781W        W44590   5.260  13.816  13.116  0.0608 -0.3473  0.1421
28782W        W44591  11.227   6.765  13.285  0.0118 -0.0831  0.2280
28783W        W44592  16.568  13.854  14.349 -0.1466  0.1386  0.4047
28784W        W44593  14.603   1.025  11.124  0.2965 -0.1342  0.0388
28785W        W44594   6.461   2.539  15.661 -0.2029 -0.1944 -0.1784
28786W        W44595   4.426   8.375   1.068  0.1537 -0.1019 -0.0131
28787W        W44596   6.408   4.126  12.748 -0.1319 -0.3071  0.2453
28788W        W44597   9.556   1.374   0.142 -0.2902  0.2833  0.0658
28789W        W44598  12.173  10.639  14.984 -0.0873 -0.1401 -0.0260
28790W        W44599  15.554   8.022   1.142  0.1625 -0.1662 -0.0009
28791W        W44600   4.853   6.183   4.285  0.2462 -0.1089  0.1548
28792W        W44601   9.494   1.493   2.962 -0.2527 -0.0731 -0.0489
28793W        W44602  17.870   5.064  11.646  0.1782 -0.0200 -0.2441
28794W        W44603   6.033   5.682  13.278 -0.1269 -0.1526 -0.0755
28795W        W44604   6.666  12.383   4.024  0.0705  0.0656  0.3711
28796W        W44605  13.527   7.143   2.352 -0.1848  0.2057  0.1379
28797W        W44606   7.082  15.919  15.261  0.3970 -0.1649  0.0776
28798W        W44607  11.941  16.608   0.792 -0.2215 -0.0587  0.0351
28799W        W44608  14.275  12.253   3.268 -0.2812 -0.0171  0.0815
28800W        W44609   5.495  14.996   1.031 -0.0084  0.1540  0.1630
28801W        W44610   2.983   8.539  16.108 -0.1335  0.0139 -0.1262
28802W        W44611   8.502  13.157   0.891  0.1879  0.0987 -0.3712
28803W        W44612   8.115   5.257  14.970  0.0871  0.1836 -0.2039
28804W        W44613  15.988   7.712  15.524 -0.1306 -0.3888  0.1775
28805W        W44614  11.542  14.280   6.434  0.0703 -0.3454 -0.2709
28806W        W44615   8.405   2.279   5.178 -0.0540  0.0657  0.0284
28807W        W44616   1.757  10.690   2.832 -0.2196  0.1656  0.0723
28808W        W44617  12.018  15.971  14.353 -0.1063 -0.1593 -0.0502
28809W        W44618   3.354   4.322  13.728 -0.0533  0.1518  0.0271
28810W        W44619   6.066  11.095  11.160  0.0767  0.0856  0.1041
28811W        W44620   1.005   0.490  12.827  0.3690  0.2022 -0.0364
28812W        W44621   2.704   1.028  11.515  0.2187  0.2667  0.1141
28813W        W44622  13.301  10.895   0.467 -0.3313 -0.2024 -0.1113
28814W        W44623   8.355   9.097  16.253 -0.1527  0.3486 -0.1783
28815W        W44624  13.044   9.006  14.974  0.3994 -0.2680  0.1244
28816W        W44625  15.774   2.367   0.559  0.3460  0.0077 -0.1991
28817W        W44626  14.028  13.743   5.102 -0.1039 -0.2263  0.0698
28818W        W44627  15.348   7.154  16.159 -0.0766  0.0918 -0.3453
28819W        W44628   4.987   9.505  12.466  0.4479 -0.1521 -0.2180
28820W        W44629   5.579   7.489   5.237  0.0860 -0.0478 -0.0472
28821W        W44630  16.049   7.648   3.420 -0.2597 -0.0807  0.0735
28822W        W44631   0.072  13.948   1.310  0.0882  0.0499  0.1624
28823W        W44632   0.180   6.994  15.911 -0.1150 -0.2364  0.1173
28824W        W44633  11.382  15.331   5.262  0.2466 -0.1464  0.1290
28825W        W44634   9.655   9.516   1.334  0.0979  0.1616 -0.0010
28826W        W44635   9.908   2.336   0.196 -0.1439  0.0197 -0.0676
28827W        W44636  13.661   3.341   3.629 -0.2458  0.2045 -0.0805
28828W        W44637  13.503   2.032  15.391  0.1017  0.1169  0.2366
28829W        W44638  14.623  14.844  12.910 -0.2414  0.1512  0.1176
28830W        W44639   8.882  14.358  16.336  0.1845  0.2305 -0.0891
28831W        W44640   4.892  14.367  11.302 -0.1223 -0.1517  0.0151
28832W        W44641  12.934  12.183  12.869 -0.1768  0.1895  0.3835
28833W        W44642   1.389  15.259  13.910 -0.2485 -0.2882  0.2989
28834W        W44643   2.487   7.937  13.469 -0.0407  0.2531 -0.1702
28835W        W44644  15.802  13.919   0.618  0.1090  0.1609 -0.0685
28836W        W44645  11.949   8.457  12.732  0.4139  0.2044  0.0699
28837W        W44646   8.038   3.676  11.774 -0.4657 -0.2676 -0.0425
28838W        W44647  10.841  11.837   1.546  0.1848 -0.1471  0.0909
28839W        W44648  10.632   0.126  13.531  0.0510  0.0614 -0.1922
28840W        W44649   6.355   9.048   3.588 -0.1764 -0.4512  0.0735
28841W        W44650  11.501  15.665   3.335  0.2986 -0.1290 -0.4660
28842W        W44651  10.801   4.001  12.991  0.1827 -0.0242  0.0662
28843W        W44652   1.578   0.211  14.129 -0.2719  0.1424  0.0114
28844W        W44653   8.998  14.613   2.968 -0.0319 -0.0589  0.2097
28845W        W44654  14.597  15.357  12.954 -0.0967  0.1689 -0.0715
28846W        W44655  15.888   2.982   1.421  0.1509  0.0923 -0.0416
28847W        W44656   5.237   8.654  11.758  0.0097  0.2634 -0.0626
28848W        W44657   8.822   6.984   0.849  0.0810  0.0049  0.3899
28849W        W44658   2.696  15.884  15.154  0.0869  0.2558  0.2401
28850W        W44659  11.263  14.800  12.136  0.0804  0.3079  0.0335
28851W        W44660  15.443   8.406   4.602 -0.0006  0.1420  0.1674
28852W        W44661  14.772  10.572   9.976  0.3205 -0.2999  0.0277
28853W        W44662  12.609   2.388   2.196  0.0778 -0.3644 -0.0474
28854W        W44663  16.073  16.140   3.863  0.0574  0.2005 -0.0108
28855W        W44664  16.094   9.065   1.308 -0.3010  0.1299  0.0013
28856W        W44665   6.821   2.039   3.539 -0.2448  0.1025  0.2062
28857W        W44666   5.897  10.672  11.469  0.3138  0.0628 -0.0096
28858W        W44667  12.019  17.286   1.404 -0.0821  0.1970  0.3472
28859W        W44668  12.590  11.822  10.730 -0.1384 -0.0701  0.1228
28860W        W44669   1.399   2.133  12.895 -0.2129 -0.0288 -0.1733
28861W        W44670  17.867  17.036   1.784 -0.0705 -0.1272  0.0657
28862W        W44671   6.983   3.646   1.934  0.0078 -0.1235  0.1910
28863W        W44672  14.582  12.452   4.632  0.2080 -0.3711 -0.1240
28864W        W44673   9.932  11.673  13.675 -0.0787  0.2923  0.2628
28865W        W44674  17.938   9.893  12.935 -0.0780  0.1768 -0.3149
28866W        W44675   1.441  10.637   5.279  0.0866 -0.2357  0.2623
28867W        W44676  17.462   7.597   0.479  0.0604  0.3613 -0.1284
28868W        W44677   8.390  18.099   4.822  0.0392 -0.0275  0.0064
28869W        W44678   8.324   5.757   2.992  0.0132 -0.3296 -0.2030
28870W        W44679  11.137   7.471  12.241 -0.3112 -0.1479 -0.0580
28871W        W44680   8.848   4.093   0.450  0.0041 -0.2521 -0.0042
28872W        W44681   1.436   0.239   5.023  0.2471 -0.0306  0.0946
28873W        W44682  11.721  11.873   3.635 -0.0967 -0.2624 -0.0851
28874W        W44683  14.317  14.385   3.166  0.1549 -0.0395  0.1841
28875W        W44684  12.352   4.711   1.679 -0.1432 -0.1391  0.2385
28876W        W44685   1.243   6.703   2.684 -0.0203  0.0932  0.0360
28877W        W44686  10.105  17.470  14.013 -0.0651 -0.2705 -0.1090
28878W        W44687   2.125  13.242  13.142  0.1022 -0.1738  0.2993
28879W        W44688   1.455   1.916  11.556  0.1070 -0.2864  0.5062
28880W        W44689  12.294   2.341   3.818 -0.0322  0.0090 -0.0155
28881W        W44690  11.378   2.797  15.453  0.1716  0.0007 -0.1927
28882W        W44691  12.948   8.375  11.516 -0.2817  0.1184  0.0187
28883W        W44692  16.150   1.302   3.317 -0.2782 -0.1070 -0.1383
28884W        W44693  17.320  10.563  10.152 -0.0695 -0.1307 -0.1483
28885W        W44694  14.786   5.450  12.246 -0.0700 -0.1355  0.0392
28886W        W44695  11.716  18.163  15.694  0.0822  0.0588 -0.1668
28887W        W44696  13.009  16.087   2.948 -0.5540  0.0982  0.0407
28888W        W44697   3.811   7.917  13.375 -0.0658  0.0170 -0.1186
28889W        W44698  16.786  16.139   2.341 -0.0967  0.0623 -0.5854
28890W        W44699   5.057   8.939  14.647 -0.4450 -0.0578 -0.1464
28891W        W44700   1.164   9.536  12.492 -0.0020  0.3082 -0.2715
28892W        W44701   9.477  14.610  13.839 -0.1151 -0.1285  0.1438
28893W        W44702  16.099  14.115   4.865 -0.0440  0.0222  0.0112
28894W        W44703  16.207   1.440  14.469 -0.1498 -0.0065  0.1106
28895W        W44704  13.145   2.532  13.179 -0.1119 -0.0539 -0.2988
28896W        W44705   7.594   5.607   5.042 -0.2704 -0.2710  0.1722
28897W        W44706  10.850  11.624   2.348  0.3350  0.1238 -0.0091
28898W        W44707   0.167   7.956  15.767  0.0179  0.0286  0.3646
28899W        W44708  16.615  11.142   4.308  0.1325  0.0830  0.1537
28900W        W44709  16.940  12.568   5.036  0.1770 -0.0523  0.1301
28901W        W44710  17.512  10.476   3.092  0.0244  0.0271  0.0407
28902W        W44711  17.642  11.864   1.116 -0.0473 -0.1935  0.2704
28903W        W44712   0.009  17.020   2.280 -0.0124 -0.0137 -0.0565
28904W        W44713  11.834  11.812   2.133  0.2330 -0.2752 -0.1854
28905W        W44714  16.203  15.756  11.285 -0.1727 -0.0705  0.0552
28906W        W44715  12.783  12.846   4.504  0.0865 -0.3297 -0.4196
28907W        W44716   6.641   6.416  10.755  0.1599  0.2269 -0.0435
28908W        W44717   3.596   7.426  13.400 -0.0708  0.2067 -0.2527
28909W        W44718   6.888  15.653  12.457  0.2146 -0.1221  0.0075
28910W        W44719  16.715  16.967   1.771  0.0423 -0.1137 -0.0426
28911W        W44720   8.081  13.639  12.921 -0.0778 -0.2585 -0.0122
28912W        W44721   4.250  15.803  16.083 -0.1212 -0.1901 -0.2041
28913W        W44722   2.068  15.149   0.564 -0.0068 -0.0421  0.0467
28914W        W44723   1.313  18.141  10.452 -0.0906  0.3762  0.1985
28915W        W44724   8.179   7.256  13.851  0.0569 -0.1380  0.1473
28916W        W44725  13.265  12.980  12.175 -0.0377 -0.3215 -0.1318
28917W        W44726   8.668  17.537   2.767 -0.2265  0.1203 -0.0763
28918W        W44727  17.058  17.218   5.303  0.0018  0.1026  0.0106
28919W        W44728   3.906   2.737   4.589  0.1292  0.0296  0.0944
28920W        W44729  11.366   4.123   1.505  0.4684  0.2117 -0.1439
28921W        W44730   2.622  17.783   3.864 -0.1698  0.2278 -0.0645
28922W        W44731  14.171   6.929   4.047 -0.2296  0.0860 -0.1353
28923W        W44732  13.139  14.799  15.631 -0.0354 -0.0742 -0.0844
28924W        W44733   0.719   4.588   5.462  0.1237 -0.0261  0.0770
28925W        W44734  12.889  16.075   4.132 -0.2048  0.4560  0.1183
28926W        W44735  13.958   5.870   4.187  0.0324 -0.3030 -0.0211
28927W        W44736   3.888  16.831   2.111 -0.1769  0.0495  0.0855
28928W        W44737   4.382   9.159  11.608 -0.2002  0.1116 -0.0791
28929W        W44738  15.221  15.135   4.420  0.0803  0.2829 -0.0392
28930W        W44739   1.723  18.039  16.121  0.0436 -0.1330  0.0942
28931W        W44740   1.209   5.403  12.448  0.0084 -0.0524 -0.0431
28932W        W44741  16.174  14.864   3.926 -0.0889  0.2746 -0.1393
28933W        W44742  11.530  17.678  12.516 -0.2091 -0.2432  0.0910
28934W        W44743   5.719  14.838   0.505  0.4108 -0.1829  0.2312
28935W        W44744   7.211   0.744  14.418  0.1235  0.0603  0.0240
28936W        W44745   7.661  13.294  11.213  0.3945  0.2062  0.1311
28937W        W44746  15.086  15.983  15.692  0.1109 -0.0343 -0.0035
28938W        W44747  13.302  14.362   0.692  0.3275 -0.2674  0.3442
28939W        W44748   5.226   3.838  15.018 -0.0007  0.1072 -0.0189
28940W        W44749   2.215   4.862   4.414  0.0812  0.1690 -0.0749
28941W        W44750   4.336   5.009  15.919  0.2198  0.0530 -0.2267
28942W        W44751  12.568   2.204  13.755  0.3742 -0.0855  0.0875
28943W        W44752   9.311  11.577  11.764  0.2543  0.1333 -0.1959
28944W        W44753  13.691   7.282  15.428 -0.1144 -0.1899  0.1865
28945W        W44754  11.065   0.330  11.355 -0.0623  0.1112 -0.1888
28946W        W44755  16.586   4.060   0.921  0.3369  0.1055  0.0484
28947W        W44756  13.220   7.914  14.154 -0.0976 -0.3841 -0.0600
28948W        W44757   2.458  15.211   3.720 -0.0723  0.0048 -0.1349
28949W        W44758  10.803   9.726  13.227 -0.0056  0.1200 -0.1370
28950W        W44759   3.531  16.311   1.270  0.0287  0.1475 -0.3355
28951W        W44760   8.349   0.564  10.823 -0.2002 -0.0226  0.0308
28952W        W44761   5.866   3.894  15.601  0.0130 -0.2505 -0.0738
28953W        W44762   6.297   7.938  13.078  0.1513 -0.0365  0.3328
28954W        W44763   3.493   8.132  11.621 -0.2784 -0.1236  0.1659
28955W        W44764  16.919  16.702   3.625  0.3130 -0.3123 -0.2641
28956W        W44765  18.174  16.718   2.836 -0.1624  0.2765 -0.0349
28957W        W44766   3.650   3.161   3.493 -0.3211  0.1696 -0.4271
28958W        W44767  15.707   4.000   1.882  0.2229  0.0444  0.1137
28959W        W44768  11.535   1.544  15.793 -0.1242 -0.1094 -0.0101
28960W        W44769  13.276   6.776   0.427  0.3516  0.2689 -0.1271
28961W        W44770  15.992   9.292  15.401  0.0771 -0.1068 -0.2328
28962W        W44771  16.381   3.076   2.071 -0.3052 -0.1215 -0.1521
28963W        W44772   5.159  13.143  11.806  0.1235 -0.1845  0.4500
28964W        W44773   7.079   9.293   4.452 -0.0723 -0.0964  0.1289
28965W        W44774  15.892  17.992  16.288 -0.4406  0.2183  0.0689
28966W        W44775  15.635   3.309  13.905  0.0108 -0.1171 -0.0677
28967W        W44776  16.158  15.021  13.281 -0.0081  0.2652 -0.0233
28968W        W44777  11.324  11.275  10.958  0.0642 -0.0252  0.0881
28969W        W44778  17.954   7.629   0.568 -0.0753 -0.5023  0.0582
28970W        W44779   9.536  11.721  14.004  0.0444  0.0266 -0.1769
28971W        W44780   1.600   2.724  14.565 -0.0493  0.4446  0.0076
28972W        W44781  17.848   4.357   1.654  0.0014 -0.0968 -0.1755
28973W        W44782  10.840  15.974   4.669 -0.1237 -0.0617 -0.2049
28974W        W44783   8.918  17.218   2.455  0.0895 -0.0833  0.1011
28975W        W44784   3.316   8.202  16.033 -0.0695 -0.4015  0.2194
28976W        W44785  18.070  11.685   4.157 -0.1452  0.3930 -0.0108
28977W        W44786  12.397   6.535   2.000  0.0253  0.1316  0.0512
28978W        W44787  13.534  12.911  14.346 -0.1146 -0.0308  0.3720
28979W        W44788  14.560   7.179  13.243 -0.0186  0.0637 -0.0019
28980W        W44789   6.402   8.034  12.575 -0.2468  0.0390 -0.1198
28981W        W44790  13.673   1.397   0.291 -0.0152  0.0520  0.3043
28982W        W44791  12.105   8.355   9.910 -0.2610 -0.2097 -0.1788
28983W        W44792  11.392   1.720   2.856  0.2603 -0.2369  0.1920
28984W        W44793   9.181  13.912   5.975 -0.1276  0.0364  0.3088
28985W        W44794  13.476  14.132   1.653  0.2233 -0.1840 -0.0628
28986W        W44795   7.821  16.588  12.852 -0.2511 -0.0793 -0.1690
28987W        W44796   4.099  12.158  11.998 -0.1696 -0.2621  0.3320
28988W        W44797   4.756   9.919  16.098 -0.1439  0.2539  0.0238
28989W        W44798   1.793   5.965   4.418 -0.1252 -0.0738  0.1216
28990W        W44799   0.507   3.712  14.638 -0.1977  0.0420 -0.0602
28991W        W44800  18.215   9.960  14.651 -0.2094  0.2630 -0.2654
28992W        W44801   0.950   1.287  11.871  0.0630  0.1617 -0.3498
28993W        W44802  13.983   9.789  12.657 -0.1673 -0.1129  0.0451
28994W        W44803  16.688  12.337  12.178  0.1483 -0.0139 -0.1810
28995W        W44804   3.687  11.023   1.663 -0.2688  0.3927  0.2742
28996W        W44805  14.453   9.744   3.762 -0.1615  0.3722  0.0288
28997W        W44806  12.206  15.730   0.322  0.0561 -0.1109  0.2045
28998W        W44807   5.082  17.412  12.751 -0.3118  0.3211 -0.0024
28999W        W44808   5.221   6.813   3.912 -0.0380  0.1045 -0.1912
29000W        W44809   5.514   3.842   4.680  0.3344 -0.0933  0.0056
29001W        W44810  14.954   6.611  15.989 -0.0299  0.2268 -0.0836
29002W        W44811  11.178  14.792   2.806 -0.1779 -0.0077  0.0367
29003W        W44812  17.481   4.140  13.637  0.3676 -0.3873 -0.2432
29004W        W44813  17.140   5.818  12.688 -0.1977 -0.2207  0.1353
29005W        W44814   9.735  17.123  14.024  0.0433 -0.0210 -0.3032
29006W        W44815  14.947   8.674   3.535  0.1230 -0.1941  0.0598
29007W        W44816  18.061   7.123   4.864  0.2128 -0.2012 -0.1067
29008W        W44817   4.667  17.224  13.824  0.0064 -0.0446  0.0282
29009W        W44818   7.951   2.022   4.827 -0.3341 -0.0370  0.0859
29010W        W44819   1.907  17.362   3.411 -0.0516  0.1510 -0.1146
29011W        W44820   9.200   1.945   3.839 -0.0266  0.0547  0.0782
29012W        W44821   9.818   1.482  16.070  0.0425  0.4478  0.2043
29013W        W44822   8.702  16.516  13.750  0.0565 -0.1122  0.1100
29014W        W44823  17.333  16.664  15.418 -0.0527 -0.3765 -0.0335
29015W        W44824   7.098   9.554   3.943  0.0278  0.1418 -0.1137
29016W        W44825   8.964  10.954  12.978 -0.1967  0.6513 -0.3705
29017W        W44826   2.391   0.436  15.137 -0.2259 -0.3551 -0.0013
29018W        W44827  17.814   1.067  12.094 -0.0524 -0.1310 -0.1094
29019W        W44828   1.457   3.243  12.457 -0.1200  0.1371 -0.1789
29020W        W44829  13.409   4.247   0.745 -0.0446  0.0308 -0.0852
29021W        W44830   1.281   4.933   2.068  0.1608 -0.0234  0.0264
29022W        W44831  11.132  15.217  12.735 -0.1313 -0.2341 -0.3649
29023W        W44832   7.512   3.144   3.913 -0.1504 -0.0859  0.2593
29024W        W44833  17.957   1.005   5.207 -0.0626  0.0547 -0.0319
29025W        W44834   0.176  11.536  11.431  0.1113 -0.0538  0.0742
29026W        W44835   0.152   0.776   2.502  0.0689  0.2188 -0.2072
29027W        W44836  16.211   9.071  14.390  0.1560  0.0941 -0.0622
29028W        W44837  17.804   1.446   5.423 -0.1640 -0.2150  0.3397
29029W        W44838  14.853   6.983  15.003 -0.1801  0.0884 -0.1430
29030W        W44839   2.085  14.524   1.519  0.1081  0.1038 -0.0134
29031W        W44840  10.234   4.850   1.929 -0.0824  0.0291 -0.0187
29032W        W44841   1.284   1.726   6.006  0.1180 -0.0296  0.1329
29033W        W44842   7.678   1.360   0.832  0.4861 -0.0644 -0.1485
29034W        W44843   6.864   1.143   1.235 -0.2160  0.1898  0.1372
29035W        W44844   1.069  16.717  13.910  0.3676 -0.1002 -0.0920
29036W        W44845   0.238   5.610   3.329 -0.1028 -0.0583 -0.0636
29037W        W44846   0.672  14.417  16.000 -0.3542 -0.0644 -0.1240
29038W        W44847   0.893   5.631  11.375  0.1919 -0.0205  0.2801
29039W        W44848   0.935   8.590   3.879 -0.0755  0.0920  0.3112
29040W        W44849   6.313   9.642  11.807 -0.0610 -0.0574  0.0344
29041W        W44850   2.563   6.303  12.500 -0.0176  0.3520  0.1514
29042W        W44851   9.264  18.005   5.122 -0.2615 -0.1849 -0.2028
29043W        W44852   6.273  17.399   3.074  0.2423  0.1437 -0.0387
29044W        W44853   2.247  16.045  12.098 -0.1149 -0.0470  0.1585
29045W        W44854  16.541   6.833  13.026 -0.3332 -0.0048  0.0834
29046W        W44855  12.886  12.659  12.924  0.2184  0.1105 -0.1915
29047W        W44856   4.360   9.167   1.700 -0.2814 -0.1714 -0.0129
29048W        W44857   0.848  10.577   5.193 -0.1272 -0.2952  0.0911
29049W        W44858   3.451   7.352  16.302  0.2577  0.2793 -0.1336
29050W        W44859   4.281   3.722   3.694 -0.3044  0.0876  0.0001
29051W        W44860  15.429   5.103  12.747  0.0823  0.3046 -0.3107
29052W        W44861   5.365  11.736   0.060  0.0256  0.0488 -0.0208
29053W        W44862   7.455   7.597   1.587 -0.0417 -0.5730  0.0293
29054W        W44863   3.002   4.834   4.822  0.0287 -0.1185 -0.0997
29055W        W44864   0.958  16.116   5.144  0.1392  0.0967  0.0990
29056W        W44865   7.794   5.165   5.233 -0.0399 -0.3137 -0.3451
29057W        W44866  16.903  15.103   4.229 -0.2368 -0.1544  0.0082
29058W        W44867  15.368   0.821   2.333 -0.1580 -0.0287  0.1088
29059W        W44868  13.397  14.712  13.910  0.3520 -0.3469  0.0382
29060W        W44869  12.511  14.737   2.583  0.0316 -0.2230  0.2855
29061W        W44870  12.825   7.324  12.306 -0.2118 -0.0314 -0.1028
29062W        W44871  16.530   0.691  12.437 -0.2739  0.0110  0.1726
29063W        W44872   0.710   2.494   5.115  0.2548 -0.0743 -0.2503
29064W        W44873   6.674   1.142  13.068 -0.0378  0.0528  0.1484
29065W        W44874   6.426   9.953   4.617  0.0789 -0.2593 -0.0632
29066W        W44875   7.701  16.682   0.019 -0.2455 -0.0907  0.0500
29067W        W44876  17.737   2.444  16.158  0.0304  0.0297  0.1539
29068W        W44877   4.033  17.154   2.499 -0.1134  0.0356  0.1152
29069W        W44878   8.026   1.165   3.084 -0.0032 -0.0826 -0.0525
29070W        W44879   3.997   7.386  13.077 -0.3929 -0.2749  0.1371
29071W        W44880  12.928   8.802  14.085 -0.2573 -0.3360  0.0663
29072W        W44881   5.912   0.103   2.673 -0.0124 -0.0398  0.1941
29073W        W44882  16.897   1.487   2.934 -0.2780 -0.2433  0.1676
29074W        W44883  12.822  11.732   0.106 -0.0309 -0.0479  0.0563
29075W        W44884   0.582  12.050   1.487 -0.1977  0.0227 -0.3198
29076W        W44885   7.444  12.258  11.384  0.0725 -0.1027 -0.0294
29077W        W44886  15.553   2.322   2.599  0.0469  0.2339  0.0257
29078W        W44887  15.256  15.110  15.108 -0.0657  0.0575 -0.1450
29079W        W44888  17.566   0.351   0.529 -0.0869  0.2635  0.1506
29080W        W44889  16.615   1.724  13.182  0.1193 -0.0429 -0.1263
29081W        W44890  15.390   3.338  10.272  0.2804 -0.4323 -0.0328
29082W        W44891  17.767   7.617  11.967 -0.1177  0.1054  0.0940
29083W        W44892   4.510   2.234  11.519  0.0285  0.0628 -0.0564
29084W        W44893   1.549  13.616   1.171 -0.0543 -0.1460 -0.0723
29085W        W44894  10.226  15.375  13.137 -0.0622  0.1882  0.0470
29086W        W44895   3.099   0.007  13.384 -0.1090 -0.1660  0.0533
29087W        W44896  11.658   3.287   2.402  0.1122 -0.2074  0.0310
29088W        W44897  12.349   6.284  11.406  0.2842 -0.1009  0.2144
29089W        W44898  18.121   5.340   3.711  0.2069  0.1338 -0.1988
29090W        W44899   5.766   2.331   4.773 -0.0785  0.0593  0.2407
29091W        W44900   6.454  12.203  13.075 -0.1101 -0.0767 -0.1788
29092W        W44901   2.106   2.586  15.401 -0.0164  0.1548  0.0898
29093W        W44902  15.691   0.322   1.802  0.0348 -0.1989 -0.0783
29094W        W44903  15.293   6.925  14.728 -0.1326 -0.2213 -0.0037
29095W        W44904  17.019  14.258  11.776 -0.0740  0.1586  0.0531
29096W        W44905   6.175  16.747  11.093 -0.1047 -0.0991 -0.1237
29097W        W44906  16.496   0.360   2.575 -0.1589 -0.1174  0.1258
29098W        W44907  13.361  12.042  14.229  0.0665 -0.0038  0.2140
29099W        W44908   1.640  17.582   1.263 -0.2688  0.1074 -0.1027
29100W        W44909   5.319  17.668  13.202  0.0098 -0.2045  0.0215
29101W        W44910  10.186  14.464   4.994 -0.1123 -0.0353 -0.0114
29102W        W44911  10.360   3.214   2.761  0.1061  0.0187 -0.0012
29103W        W44912   1.862  10.761  16.327 -0.0580  0.0807  0.0215
29104W        W44913  10.594  13.857   0.556  0.1096 -0.2845  0.2045
29105W        W44914  13.634  13.229  15.794  0.0792 -0.2166  0.0060
29106W        W44915   3.504  16.788  14.546 -0.0936 -0.1397 -0.0030
29107W        W44916  16.357   6.871   0.927  0.2332  0.2438 -0.0115
29108W        W44917  11.664  10.789   1.931  0.2240  0.0394 -0.0406
29109W        W44918   6.675   5.255  12.598 -0.0529 -0.2814 -0.0471
29110W        W44919  16.692   0.878  15.227 -0.2001 -0.1689 -0.2945
29111W        W44920   8.115   9.677   0.655 -0.3506  0.0869 -0.0750
29112W        W44921  17.178  11.003   1.326 -0.1253 -0.1566 -0.2486
29113W        W44922   1.415   2.748   0.739 -0.1019 -0.1378  0.4240
29114W        W44923   2.263  11.054   5.207  0.0553  0.2247 -0.1136
29115W        W44924   0.598  15.120   1.014 -0.1460  0.0325  0.1860
29116W        W44925   5.934   3.072  15.648 -0.0526  0.2404  0.1541
29117W        W44926   5.332  11.175   0.789  0.3598  0.0026 -0.0993
29118W        W44927  13.145   1.036   2.369  0.1055  0.1391 -0.1408
29119W        W44928   0.126   4.427  12.474 -0.0113  0.2159  0.0465
29120W        W44929   1.257   8.175   3.859 -0.2769 -0.1392 -0.0341
29121W        W44930  18.036   3.875  12.368  0.1895  0.1352 -0.3426
29122W        W44931   2.937  14.207  10.769  0.1306 -0.0117  0.0859
29123W        W44932  14.610   1.819   1.722  0.0861 -0.4152  0.0372
29124W        W44933   1.497   2.490   5.260 -0.3057 -0.2310 -0.0567
29125W        W44934  17.468  12.654  15.837  0.1284  0.1319 -0.3728
29126W        W44935  17.995  16.271  13.427  0.0984  0.1900 -0.0608
29127W        W44936   2.329   7.588   0.568  0.1390  0.0986  0.2663
29128W        W44937   6.367  10.008   0.409  0.1439 -0.0155 -0.0999
29129W        W44938   3.435   6.809  14.973 -0.0655 -0.0622 -0.4084
29130W        W44939  11.402   5.907   3.332 -0.1167  0.0666 -0.0237
29131W        W44940   0.311   3.843   6.471 -0.0681 -0.0055  0.1715
29132W        W44941   6.170   4.539   0.976 -0.0129  0.2259  0.0354
29133W        W44942   2.322  13.081  15.366 -0.3289  0.0364 -0.3010
29134W        W44943  15.667  15.530   3.318 -0.0134 -0.1781 -0.1606
29135W        W44944   8.840   7.547  10.688  0.0481 -0.1453 -0.1746
29136W        W44945  14.540  17.353  14.025 -0.0496  0.1312  0.3038
29137W        W44946   4.974  15.547   5.897  0.0705  0.3680  0.0493
29138W        W44947   3.051   6.387  14.150 -0.1696 -0.0405  0.1949
29139W        W44948  13.747   0.725   0.941  0.1993  0.2853 -0.1474
29140W        W44949  17.395  11.228  14.634  0.2317  0.0055  0.1448
29141W        W44950  12.665  17.084  12.830 -0.0223  0.3446  0.2240
29142W        W44951   7.720  12.385  14.269  0.0160 -0.0499 -0.4173
29143W        W44952  10.698  16.429   1.184  0.1538  0.1990  0.2671
29144W        W44953  10.586   0.433   3.972  0.1522  0.3857  0.1802
29145W        W44954   5.972  13.610   4.569 -0.1305  0.4972 -0.2430
29146W        W44955   4.461  16.804  12.647  0.3160  0.0294  0.1937
29147W        W44956   0.157   9.282   1.150 -0.2353  0.2591 -0.1454
29148W        W44957   6.095   7.164  11.902 -0.0787 -0.0048  0.1415
29149W        W44958   5.565   8.300  13.500  0.4250 -0.0975 -0.0860
29150W        W44959   1.417   5.868  13.461  0.2059 -0.0795  0.0353
29151W        W44960   0.822   5.588  12.082 -0.0330 -0.3391 -0.0969
29152W        W44961  15.691  14.099   5.692 -0.2318 -0.2719  0.0312
29153W        W44962   0.087   3.020  15.918 -0.3239 -0.1187 -0.0800
29154W        W44963   1.904   4.816   3.256 -0.3863 -0.0327  0.0575
29155W        W44964   6.265  14.729  14.755 -0.1024  0.0855  0.0000
29156W        W44965   2.072  13.862  11.255  0.2432  0.0244  0.1767
29157W        W44966   1.266  10.566   3.337  0.2768 -0.2365 -0.1810
29158W        W44967  14.680   0.503  13.159 -0.0814  0.0081  0.3030
29159W        W44968  17.464   1.317   0.766  0.4236 -0.0056 -0.1445
29160W        W44969  17.704  11.124  11.838  0.1668  0.1031  0.1678
29161W        W44970  10.400  10.064   3.312  0.0942 -0.1083  0.1032
29162W        W44971  12.368   0.197   3.998 -0.0410 -0.1777  0.0498
29163W        W44972  11.970   3.642  13.806  0.3357 -0.0761  0.0392
29164W        W44973   1.610   7.121  14.388  0.1580 -0.1296 -0.4523
29165W        W44974  17.996   5.348  13.532  0.1277  0.1875 -0.1410
29166W        W44975  12.705   9.897  13.221 -0.2670  0.1168  0.0990
29167W        W44976  10.864   7.087   1.626 -0.0768  0.1766 -0.2699
29168W        W44977   4.514  13.554  15.142 -0.2945 -0.0923 -0.0194
29169W        W44978   7.722   6.157  15.317  0.1752  0.1472  0.1426
29170W        W44979  17.454   1.422   3.175 -0.0831 -0.4041  0.0035
29171W        W44980  12.781  12.453   0.666  0.1313  0.2260 -0.1054
29172W        W44981   7.311  16.729  16.007  0.0280  0.2396 -0.0675
29173W        W44982   5.800   8.167   2.201 -0.3049  0.0685  0.0368
29174W        W44983  16.588   0.767   0.595 -0.0198  0.1505  0.3280
29175W        W44984   7.758  11.001  14.055 -0.0551  0.2359 -0.2236
29176W        W44985  15.951   7.183   5.691  0.2109  0.0915 -0.2552
29177W        W44986   6.247   5.393   3.604  0.0341 -0.3359 -0.1045
29178W        W44987  15.105   4.654  13.950  0.0196  0.0768  0.0473
29179W        W44988  17.741  13.375  15.896 -0.0131  0.0024 -0.2372
29180W        W44989   5.518  14.090  14.331  0.1463  0.0377 -0.1322
29181W        W44990  15.065  12.237   0.596 -0.1812  0.0871  0.1807
29182W        W44991   1.903  16.894  15.890 -0.0837 -0.1835 -0.0326
29183W        W44992   4.955  15.485   4.323 -0.4213 -0.2970 -0.4562
29184W        W44993  17.376   0.265  11.763  0.0196  0.3681 -0.1268
29185W        W44994   2.261  12.710   1.594 -0.1346  0.0388  0.0214
29186W        W44995   9.938   5.449  14.297 -0.0377  0.2750  0.1079
29187W        W44996   9.679   3.453   1.837 -0.3380  0.2261  0.1788
29188W        W44997  14.553   0.166  14.884 -0.0597  0.0445 -0.2896
29189W        W44998   3.575   2.604  15.026  0.1025  0.2926  0.1331
29190W        W44999   8.737   4.261  13.809 -0.0752 -0.2905  0.0085
29191W        W45000   6.738   9.025  14.936 -0.0849  0.0597 -0.0601
29192W        W45001   2.579  12.331   4.001 -0.0358 -0.3401  0.0408
29193W        W45002   8.772   9.720  15.336 -0.0694  0.3881 -0.1714
29194W        W45003   6.028  15.761   1.723  0.1294 -0.1631  0.2572
29195W        W45004  17.808   4.728  11.265  0.2807  0.1593  0.1265
29196W        W45005   0.806  12.892  11.908  0.0756  0.0263 -0.1369
29197W        W45006  15.999  17.775   1.350  0.1133  0.2429  0.2455
29198W        W45007   5.270   6.196  10.972  0.3005  0.0153  0.1672
29199W        W45008   7.660  13.086   3.972  0.0159 -0.0543 -0.4163
29200W        W45009  16.674   9.343   2.094  0.0436 -0.0057  0.2839
29201W        W45010  12.895   3.661  15.296 -0.2153  0.0236 -0.1693
29202W        W45011  10.802   0.141  11.925 -0.1047 -0.0685 -0.2109
29203W        W45012  16.947   6.946   1.635 -0.0892 -0.2421  0.1854
29204W        W45013  12.650   8.064   2.640 -0.0372 -0.4146 -0.0038
29205W        W45014   5.998   1.908  12.520 -0.3726  0.2040  0.3410
29206W        W45015   8.969  12.738  11.196  0.3111 -0.1657 -0.2041
29207W        W45016  11.244   4.085  11.695  0.2357  0.1128  0.1517
29208W        W45017  10.316  11.789   3.752  0.0980  0.1354  0.0964
29209W        W45018   5.523   4.958  14.090  0.1115  0.0056  0.0395
29210W        W45019   5.871   3.984  12.503 -0.3695 -0.0842  0.0417
29211W        W45020  13.535  12.847   6.061  0.0396 -0.0154  0.0154
29212W        W45021   9.992  11.998  11.625 -0.1672  0.1401  0.2257
29213W        W45022  11.467   5.363  12.580  0.2068 -0.0762 -0.2955
29214W        W45023   2.551   7.463  16.099 -0.1491 -0.2009 -0.2902
29215W        W45024  16.668  12.634  13.916  0.0538  0.0654  0.1421
29216W        W45025   9.424   9.769   0.607 -0.0752 -0.1091 -0.1391
29217W        W45026   1.887   1.203   0.695 -0.2430 -0.0521  0.0525
29218W        W45027  13.670   6.799   5.284  0.0981 -0.0593  0.2025
29219W        W45028   1.983   8.834   2.920 -0.0770 -0.3450 -0.1839
29220W        W45029   8.512   3.122  13.764  0.3051 -0.0011  0.1021
29221W        W45030  12.963   2.965   3.644  0.0233  0.0999 -0.0825
29222W        W45031   1.458  12.545  14.051  0.0285  0.3536  0.0252
29223W        W45032   5.375   1.431   4.800  0.0006 -0.3161  0.2743
29224W        W45033  12.664   0.612   2.592  0.0188 -0.2878 -0.0698
29225W        W45034   3.231  10.064   4.112 -0.0957  0.3856  0.3886
29226W        W45035   7.899  13.794   0.785 -0.3505  0.1746  0.0810
29227W        W45036  17.801   0.119  14.076 -0.2085 -0.1755  0.0888
29228W        W45037  14.859   0.533   0.828 -0.3158  0.1766  0.3803
29229W        W45038  13.600  17.526   5.052  0.1919  0.1448  0.2814
29230W        W45039   0.283   6.125  14.766  0.2483  0.0747  0.1917
29231W        W45040   9.830   1.090   3.487 -0.1135 -0.0402  0.3826
29232W        W45041   6.800   2.072  10.904 -0.1972 -0.0832 -0.3722
29233W        W45042   3.042   7.899  15.657  0.3557 -0.1319  0.2033
29234W        W45043  16.858   3.088   0.087  0.0943  0.3549 -0.0766
29235W        W45044   9.972   7.661  12.436  0.1825 -0.0285 -0.0849
29236W        W45045   5.268   5.753   5.127  0.1277  0.0964  0.0312
29237W        W45046   7.492   4.000   5.330 -0.1748 -0.4188  0.0215
29238W        W45047  12.960  14.061   4.506  0.0257 -0.1395  0.0656
29239W        W45048  10.057  16.605  13.732 -0.1112  0.1359  0.0464
29240W        W45049   8.450  16.138  14.989  0.0452  0.0470  0.1422
29241W        W45050   9.669   4.159  15.367  0.0469 -0.2356 -0.0108
29242W        W45051   9.633  10.670   0.472  0.2849 -0.0980 -0.0428
29243W        W45052  14.298  14.371   2.097  0.2810 -0.0573  0.3283
29244W        W45053  14.195   5.003  10.943 -0.0881  0.0117 -0.1904
29245W        W45054   6.597   9.747  13.867  0.1984 -0.1718 -0.0222
29246W        W45055   2.829   0.414   4.472 -0.1378 -0.2616  0.0961
29247W        W45056   5.065   8.884  15.211 -0.0743 -0.0343 -0.0114
29248W        W45057   3.293   6.823   1.045 -0.0395  0.0537  0.0490
29249W        W45058  16.162   3.766  14.921  0.0796 -0.0617 -0.1920
29250W        W45059   6.273  15.845   4.930  0.1852  0.0035 -0.0403
29251W        W45060   8.280   0.921   0.269 -0.1008  0.0437  0.2368
29252W        W45061   6.690  12.229   1.460  0.1661  0.0682  0.2424
29253W        W45062  17.184   4.828  14.224  0.2113 -0.0887  0.1414
29254W        W45063   5.217   2.991   2.007 -0.1455 -0.6075  0.0340
29255W        W45064   5.581   9.352   2.646 -0.2636  0.1227  0.3620
29256W        W45065   6.644  16.938   5.264 -0.4723 -0.1590  0.0537
29257W        W45066   0.814  11.888   4.621 -0.0403 -0.2215  0.0029
29258W        W45067   4.288  10.903   3.045 -0.4038  0.1101 -0.1002
29259W        W45068   6.172   6.653   5.518 -0.1582  0.3912  0.2178
29260W        W45069   3.891  13.808  16.311  0.1131 -0.2761 -0.1606
29261W        W45070   8.861   9.350   5.421 -0.1463 -0.3002 -0.2661
29262W        W45071   8.220  17.494  11.372  0.0297 -0.3217  0.0563
29263W        W45072   4.254  17.196  13.521 -0.3263 -0.0281  0.0490
29264W        W45073  10.218  15.276  11.586  0.3732 -0.2371  0.0679
29265W        W45074  13.277  11.570  15.149 -0.1909 -0.0710 -0.1139
29266W        W45075  14.143  13.177  11.473  0.1801  0.1440  0.1997
29267W        W45076  14.404   2.804   2.375 -0.1844 -0.2031  0.0527
29268W        W45077  17.900   8.838   0.472  0.1506 -0.3469  0.2243
29269W        W45078   1.267   8.173   3.334  0.2449 -0.4391 -0.2765
29270W        W45079  14.119  16.728  15.718 -0.2447 -0.5105  0.0658
29271W        W45080  18.027  15.609  14.578  0.1852  0.0742  0.1798
29272W        W45081  14.812   4.287  13.159 -0.0127 -0.0737 -0.1365
29273W        W45082   8.711   8.651  11.751  0.0876  0.4506  0.0052
29274W        W45083  10.456  16.667   2.449 -0.0463 -0.1006  0.2006
29275W        W45084  17.087  12.949  16.314 -0.2215  0.0426  0.0621
29276W        W45085   5.384  16.283   2.764  0.4094 -0.2274  0.0936
29277W        W45086  10.287   6.394   1.100  0.0855  0.0945 -0.2117
29278W        W45087  13.621   4.926   2.426 -0.5756  0.1057  0.1999
29279W        W45088  10.054   2.171  16.084 -0.5081 -0.1161 -0.2036
29280W        W45089   2.122  18.165   4.457  0.0958  0.1831  0.2473
29281W        W45090   8.850   8.302  14.883 -0.0068 -0.3686 -0.3710
29282W        W45091  14.392   5.754  15.476  0.3521 -0.2451  0.0663
29283W        W45092   2.832  17.893  13.053 -0.2239 -0.4293 -0.2474
29284W        W45093  16.447  17.574   4.495  0.1071  0.0734 -0.0370
29285W        W45094  13.036  12.737  11.550  0.1077 -0.1818  0.2427
29286W        W45095  11.030  17.391   1.312 -0.0490  0.2606 -0.0003
29287W        W45096   6.097   4.437   5.446 -0.0750 -0.0646 -0.0472
29288W        W45097  15.799  12.090  13.273 -0.2583 -0.3263 -0.2144
29289W        W45098  17.765   1.950  15.433 -0.0250 -0.0147 -0.1959
29290W        W45099  10.742   8.321  12.930 -0.2924 -0.1317 -0.3485
29291W        W45100   5.001   3.180  15.696  0.1104  0.0159 -0.0572
29292W        W45101   6.094  11.960  12.659  0.1560  0.1221 -0.1322
29293W        W45102   6.049  16.470   3.325  0.0865 -0.1108  0.2815
29294W        W45103  15.638   0.549  13.113  0.0485 -0.0927  0.0119
29295W        W45104  14.518   4.883   0.142  0.1073 -0.0894 -0.1299
29296W        W45105  15.677   1.864   4.007  0.0874  0.2135  0.2490
29297W        W45106   0.588  15.430   5.533  0.1787 -0.0512  0.4718
29298W        W45107   0.171  15.121   5.102  0.1937 -0.1322 -0.2313
29299W        W45108   9.867   0.113   3.590  0.1476 -0.1686  0.2087
29300W        W45109  17.523  10.220  14.314 -0.5300  0.1681 -0.4211
29301W        W45110   4.188  12.685  14.700 -0.0240 -0.0626 -0.5452
29302W        W45111   1.474  17.599  12.982 -0.2741 -0.0230  0.0953
29303W        W45112   6.863   3.680  13.839 -0.0675 -0.0121 -0.1065
29304W        W45113  12.620  12.040   3.301  0.1608  0.2478  0.0709
29305W        W45114  12.125  16.708   4.221  0.0538  0.0988  0.0094
29306W        W45115   0.734  11.522   1.414  0.3530 -0.0394 -0.0467
29307W        W45116   0.098   4.048  16.024 -0.2647  0.4681  0.0067
29308W        W45117   6.010   4.479  15.850  0.1333  0.0389  0.1568
29309W        W45118   0.993   2.705   3.867  0.0528  0.2583 -0.1049
29310W        W45119  13.445  14.834  11.490 -0.0456 -0.0222  0.1428
29311W        W45120   2.842  10.955   0.021 -0.2518  0.0427 -0.1097
29312W        W45121  17.126  12.184   0.896  0.1034  0.0519 -0.2193
29313W        W45122  16.828   0.539  13.848 -0.2942 -0.0710 -0.4774
29314W        W45123  11.462   8.630  16.049  0.2642 -0.0647 -0.0075
29315W        W45124  14.891  17.216   2.388  0.0622 -0.2353  0.0682
29316W        W45125  17.929  16.926   0.524 -0.1127 -0.0849 -0.0921
29317W        W45126  14.953  17.066  14.483  0.0143  0.0935  0.3033
29318W        W45127  16.286   4.275   3.553  0.0009 -0.3532  0.2248
29319W        W45128   5.656   9.498  15.183  0.0283 -0.3456  0.0929
29320W        W45129   9.559   0.115  14.915 -0.0598 -0.3925  0.1028
29321W        W45130  14.210  16.375   3.542 -0.2148 -0.1881 -0.1079
29322W        W45131  15.711  12.902   0.431  0.0804 -0.3608 -0.1565
29323W        W45132   2.245   4.687  15.624 -0.0720  0.1218  0.0720
29324W        W45133  11.282   8.651   0.941  0.1945  0.0773  0.0404
29325W        W45134  11.923   6.538   0.314  0.2326 -0.0927  0.4347
29326W        W45135  15.235  17.027   2.711  0.0249  0.2286  0.1210
29327W        W45136   0.323  12.161   0.325  0.1205 -0.0533 -0.1287
29328W        W45137   5.966  11.134  14.353 -0.0435  0.0724 -0.0309
29329W        W45138  11.356  10.411  15.832  0.1567 -0.2295 -0.1339
29330W        W45139   5.266  11.814  14.766 -0.2021  0.0498  0.1659
29331W        W45140   7.659   7.179  11.465 -0.4346 -0.2139 -0.0513
29332W        W45141   5.071   9.627   0.934 -0.1592 -0.0186 -0.0475
29333W        W45142  15.106   1.237  15.023  0.1946  0.0989  0.1007
29334W        W45143   0.227   2.344  13.363 -0.0397 -0.0838 -0.0751
29335W        W45144   8.977   3.399   3.084  0.3068 -0.0942 -0.1134
29336W        W45145   3.175  12.323   0.935 -0.1769  0.0079 -0.1914
29337W        W45146  13.126  13.891   4.955 -0.3331  0.0593 -0.0505
29338W        W45147   9.912   8.660   1.331 -0.1014  0.0831 -0.0223
29339W        W45148   1.872  17.908  12.154  0.2706  0.2151 -0.1226
29340W        W45149   1.232  14.847  10.956  0.1451 -0.0184 -0.0720
29341W        W45150   1.921  15.335  16.007  0.1614  0.2872  0.1041
29342W        W45151   7.221   1.781   3.772  0.1193 -0.2573 -0.4174
29343W        W45152  10.749  13.004  13.426 -0.0688 -0.1289 -0.3275
29344W        W45153  10.990  13.497  15.543  0.0640 -0.0200 -0.0175
29345W        W45154  16.972  18.060   0.259 -0.0778  0.0190  0.1862
29346W        W45155   2.458   5.411  13.574 -0.0270 -0.1955 -0.4274
29347W        W45156  11.181   7.573  14.052  0.1870  0.1439  0.0183
29348W        W45157  11.901   3.879   1.231  0.3368 -0.0387 -0.2172
29349W        W45158  15.050   0.693  14.855  0.0705 -0.1745  0.1021
29350W        W45159   6.942   2.846   1.143 -0.0459 -0.1125 -0.1177
29351W        W45160  17.602  13.712   3.885  0.2820 -0.0573  0.2843
29352W        W45161   9.409  12.834  14.768  0.1886 -0.1840  0.2249
29353W        W45162  14.764   5.771  16.053  0.0109  0.3571  0.2570
29354W        W45163   3.853  10.606   0.856  0.0450 -0.1384 -0.4864
29355W        W45164  12.483   1.372  11.079  0.1666 -0.1859  0.2131
29356W        W45165  17.492   6.420  13.997 -0.1641  0.1873  0.2287
29357W        W45166   0.437   8.902   2.366 -0.0223  0.2760 -0.0796
29358W        W45167   0.376  13.483  13.689 -0.2267 -0.0547 -0.0342
29359W        W45168  14.062  10.236  11.206  0.2366  0.0419 -0.2136
29360W        W45169   0.106   2.675   1.874  0.0307  0.3435 -0.1286
29361W        W45170   2.607  16.981   2.494 -0.0762  0.1662 -0.1288
29362W        W45171   0.258  15.609   4.530 -0.2375 -0.1751 -0.0846
29363W        W45172   1.856  17.345   5.808 -0.0855 -0.0577 -0.3214
29364W        W45173  18.058   7.195  12.162 -0.1783  0.0122  0.0122
29365W        W45174  12.944   9.805   0.650  0.2520 -0.0644  0.0325
29366W        W45175   4.817   5.011   4.822 -0.2063  0.0662  0.1764
29367W        W45176  13.183  12.871  13.325 -0.2054  0.1830 -0.0667
29368W        W45177  13.544  16.903  14.214  0.0353 -0.1085  0.0831
29369W        W45178  13.358  10.451  13.164 -0.0404  0.2341  0.0590
29370W        W45179  16.770   7.533   5.409  0.3619  0.0534  0.4622
29371W        W45180  15.507   8.825  13.268  0.1187  0.1119 -0.2543
29372W        W45181   2.445   6.753  13.744  0.0336 -0.0361 -0.0669
29373W        W45182   7.493   4.154   2.453  0.0001 -0.0450 -0.2886
29374W        W45183   1.885   3.299  15.983 -0.2664 -0.1945  0.2671
29375W        W45184   3.502  13.007  13.852  0.0353  0.0460 -0.0438
29376W        W45185  17.880   8.992  14.864  0.2996 -0.0654  0.0156
29377W        W45186   5.705   3.601  15.158 -0.0522 -0.1138 -0.0116
29378W        W45187  13.662  12.564  13.390 -0.3154 -0.2580  0.0357
29379W        W45188  15.759   0.336   3.984  0.0219 -0.3644 -0.1243
29380W        W45189   3.755   4.965  12.365 -0.0992  0.0187 -0.0326
29381W        W45190  11.126  16.540   0.065  0.0391 -0.3844 -0.1574
29382W        W45191  12.529   1.392  14.651 -0.0435 -0.3247  0.1370
29383W        W45192   9.573  14.141  13.829 -0.0621  0.4152  0.1391
29384W        W45193   4.163   8.586  15.743 -0.1633  0.1155 -0.1614
29385W        W45194  15.908  12.181   4.498  0.0514 -0.1716 -0.0613
29386W        W45195   4.257   0.023   0.683 -0.0377  0.1216 -0.2416
29387W        W45196  15.519   7.778   0.226 -0.1366  0.0123 -0.2579
29388W        W45197  13.196  16.685   5.691 -0.0760  0.1900 -0.3258
29389W        W45198   8.374  15.232  12.130 -0.1612 -0.0196 -0.0313
29390W        W45199   5.631  15.478   0.782  0.1481 -0.0273  0.0429
29391W        W45200  15.344   0.472  15.673  0.1063 -0.1658 -0.2483
29392W        W45201  13.717  11.492   2.305  0.1239  0.2347 -0.2352
29393W        W45202   5.735  15.113  12.806  0.0156  0.1235  0.0651
29394W        W45203  18.208  16.447  14.717 -0.3982 -0.1594 -0.3127
29395W        W45204   1.725  11.139   5.079 -0.1838 -0.0746  0.0233
29396W        W45205   0.088  10.188   2.377 -0.1021  0.1873 -0.0395
29397W        W45206   3.847   7.671   4.852 -0.2058  0.2431 -0.2131
29398W        W45207   9.885   5.112   3.003  0.1152  0.0042 -0.0931
29399W        W45208  13.768   8.929  16.192 -0.1055 -0.0106 -0.1472
29400W        W45209  16.480   2.348   3.271 -0.2190  0.2162  0.0684
29401W        W45210   0.198  11.434  13.225  0.1362  0.0645 -0.3808
29402W        W45211  14.102  16.840  14.430  0.3041  0.1731  0.0549
29403W        W45212  15.242   3.831  16.230  0.3991  0.2164 -0.0657
29404W        W45213  17.770   0.788  13.297 -0.2823  0.1158  0.0202
29405W        W45214   9.495   4.208   6.018  0.0938  0.1795  0.0818
29406W        W45215   0.658  15.149   5.121 -0.3950  0.0387 -0.1692
29407W        W45216   3.523  16.776   0.333  0.3742  0.1189  0.0484
29408W        W45217   3.917   9.817   5.616 -0.1725  0.2397 -0.0042
29409W        W45218   2.926  10.616   1.359  0.0492  0.0412 -0.1510
29410W        W45219   2.315   6.727   1.177  0.0618  0.2824  0.0766
29411W        W45220   5.724   9.795   4.109 -0.2897  0.1263  0.1579
29412W        W45221   0.146  11.299  11.870  0.0946  0.1097 -0.0404
29413W        W45222  17.358  14.881  12.071  0.0709  0.1600  0.2318
29414W        W45223  14.163   2.062  12.296 -0.0962 -0.0230  0.0339
29415W        W45224  13.240   7.962  11.710  0.3953 -0.1732  0.0905
29416W        W45225  11.656   0.115  14.525  0.0447  0.2924 -0.1285
29417W        W45226  12.145   7.432  14.934  0.0260  0.0104 -0.0923
29418W        W45227  12.998  14.281  14.207 -0.1988  0.1684  0.0733
29419W        W45228   3.378  12.621   0.611 -0.1306 -0.0925  0.0654
29420W        W45229   1.622   7.138   5.045  0.0048  0.3363 -0.2340
29421W        W45230   8.904   6.307  10.619  0.0673 -0.1562 -0.0812
29422W        W45231   6.577  12.685   2.787 -0.2373  0.1116 -0.0264
29423W        W45232   7.846   9.677  16.344  0.1066 -0.0765 -0.2365
29424W        W45233   2.814  16.157  11.846  0.2406 -0.1904  0.4193
29425W        W45234  15.502  16.522   2.759  0.3346  0.0019 -0.0044
29426W        W45235   5.591   1.601  13.451  0.1741 -0.3144  0.2252
29427W        W45236  10.835  18.209  16.164 -0.3031 -0.1725  0.1991
29428W        W45237  11.376  15.468  13.130  0.0899  0.0826 -0.1374
29429W        W45238  13.416  11.918   4.582  0.1261 -0.2940  0.1205
29430W        W45239  13.450   2.863   2.131  0.0738 -0.0276  0.1457
29431W        W45240   3.205  15.197  10.955  0.0147  0.1017 -0.1591
29432W        W45241  18.041  16.507   1.024  0.2672  0.2540  0.0083
29433W        W45242   8.287  12.785   1.136  0.1665  0.0248 -0.2275
29434W        W45243  13.005   3.989  12.575 -0.4715  0.2115 -0.1709
29435W        W45244   5.569  12.254  14.822 -0.0594  0.3060  0.2452
29436W        W45245   7.336  12.920   2.650 -0.2375 -0.0448  0.2329
29437W        W45246  13.734  13.363  14.537 -0.1377  0.1782  0.0614
29438W        W45247   5.900   6.807   1.776  0.2383  0.0296 -0.0673
29439W        W45248  10.925  16.439   3.051 -0.1962  0.0264  0.1917
29440W        W45249  15.709   5.157   4.447  0.0887  0.1346  0.0629
29441W        W45250   0.986   8.459   5.759  0.1132  0.0613  0.1565
29442W        W45251  16.905   3.337  11.464  0.1096  0.1910 -0.2514
29443W        W45252   2.792   3.659  15.671 -0.2118  0.0779 -0.0812
29444W        W45253   3.499   5.502   3.890  0.0471 -0.1023 -0.1546
29445W        W45254  10.027   8.465  14.234  0.0979  0.0105 -0.2467
29446W        W45255  10.088   0.357  14.818  0.3268  0.2052 -0.0728
29447W        W45256   3.444  13.023  15.888  0.3409 -0.3204 -0.1612
29448W        W45257   8.577   3.326  11.258  0.2212  0.3349  0.2800
29449W        W45258   1.111   4.418  15.124  0.2416 -0.3956 -0.0477
29450W        W45259   7.944  11.756  15.574 -0.1055  0.2575  0.2044
29451W        W45260   6.111   4.946  15.642  0.0851  0.0132 -0.1058
29452W        W45261   5.820  14.864  14.578  0.2036  0.0572 -0.5380
29453W        W45262   7.167   0.673   4.206  0.0568  0.1116  0.0269
29454W        W45263   8.616  14.286  11.772  0.1476 -0.2484  0.1058
29455W        W45264   5.803   3.075  15.136  0.1696  0.0865  0.2522
29456W        W45265   5.476   4.634  13.727 -0.3581 -0.2126 -0.0090
29457W        W45266  16.559   1.328  13.473  0.2157 -0.2327 -0.1624
29458W        W45267  12.426  14.757   1.614 -0.1333  0.1633 -0.0166
29459W        W45268   1.628   6.154   0.453 -0.0253  0.0123 -0.1923
29460W        W45269  17.287  10.301   3.533 -0.3423  0.1821  0.0731
29461W        W45270   3.229  16.681   4.728 -0.2368 -0.0776 -0.5282
29462W        W45271  12.683  13.126  12.815 -0.0071  0.2305 -0.0739
29463W        W45272  10.554  18.116   2.427 -0.1291  0.0437  0.0619
29464W        W45273   6.159   6.389  15.820 -0.2468 -0.1806 -0.3021
29465W        W45274  16.643   0.510   5.836  0.0387 -0.0167  0.1806
29466W        W45275  14.711  14.578   1.105 -0.0462 -0.3223  0.1231
29467W        W45276   8.035  15.777   2.614 -0.1211 -0.1885  0.1039
29468W        W45277   6.022   8.914  14.503  0.1171  0.2848 -0.1587
29469W        W45278  15.488   0.045  15.390 -0.1048  0.1803  0.1684
29470W        W45279   8.541  10.595  14.446  0.0797  0.1073  0.2077
29471W        W45280   9.256  16.394  12.739  0.1787 -0.1903  0.0943
29472W        W45281   4.705   7.917   5.351  0.3701  0.0977  0.0433
29473W        W45282   9.754   1.037   2.904 -0.0266  0.1101  0.1776
29474W        W45283   3.344  12.309   4.882 -0.2289  0.0402  0.1388
29475W        W45284  10.086  15.757   0.165 -0.0265  0.3023 -0.0986
29476W        W45285   1.801   9.989  16.044  0.0813  0.0049 -0.1814
29477W        W45286   3.798   2.648  12.124 -0.1512 -0.2426  0.0862
29478W        W45287   0.326   3.955  12.444  0.0025  0.0988  0.1618
29479W        W45288  14.367   2.450   1.231  0.2630  0.4243  0.1384
29480W        W45289  16.296  17.056  11.862  0.3481 -0.2123  0.1361
29481W        W45290   3.738  11.640   4.660 -0.1109 -0.1328 -0.1271
29482W        W45291   8.792   8.321  13.418 -0.4064  0.0214  0.0955
29483W        W45292   1.390   3.673  11.702 -0.0365 -0.1302 -0.1091
29484W        W45293  16.935  11.751  13.853  0.1741 -0.1825 -0.2095
29485W        W45294   8.805  10.452  12.994 -0.2521 -0.0289  0.0394
29486W        W45295  10.637   4.981  14.927  0.1375 -0.2544  0.0010
29487W        W45296  10.826   8.443  10.669  0.4385  0.0214 -0.0473
29488W        W45297  12.259   7.718   1.043  0.1100 -0.0034 -0.0630
29489W        W45298  11.985   1.446   3.954  0.1659 -0.0967  0.0935
29490W        W45299  16.470   7.730  13.638 -0.2423  0.0786  0.0049
29491W        W45300   7.010  16.532  11.400  0.3908 -0.1172 -0.0963
29492W        W45301  13.135   6.681   5.496 -0.1612 -0.0253 -0.2578
29493W        W45302  10.138   9.195   0.537  0.0208 -0.2415 -0.0998
29494W        W45303   6.942   1.870  10.449 -0.3376 -0.0146 -0.0438
29495W        W45304   1.368   9.359   5.907 -0.3116  0.3963 -0.0413
29496W        W45305   7.550  14.925   3.721  0.3629  0.1611 -0.2732
29497W        W45306   0.117  14.170  14.980 -0.0375  0.0527  0.2246
29498W        W45307  10.708   7.230  12.437  0.3007  0.0267  0.0960
29499W        W45308  11.242   6.641   3.959  0.3017  0.0376 -0.2422
29500W        W45309   4.703   4.017  14.199  0.0285  0.4249  0.0999
29501W        W45310  16.833  10.875  15.640  0.0446 -0.0993  0.0490
29502W        W45311   8.257   6.933   1.983  0.3921 -0.0727  0.1227
29503W        W45312  17.552   4.492   3.245 -0.2333  0.0771  0.1536
29504W        W45313  16.875   9.779   5.371 -0.1847 -0.1283 -0.3988
29505W        W45314   2.865  11.013   0.579  0.0171 -0.1796  0.1715
29506W        W45315  14.542   4.032  14.115 -0.1270 -0.0405 -0.1284
29507W        W45316   8.697   1.415   1.467  0.2657 -0.1311 -0.0081
29508W        W45317  13.941  12.354  16.247 -0.1095  0.1176  0.0512
29509W        W45318  17.140   9.380   1.770 -0.0918  0.1049 -0.0040
29510W        W45319   3.374  16.546   0.847  0.0504 -0.0714 -0.2902
29511W        W45320  14.553  14.475  15.224  0.1794 -0.2883  0.0692
29512W        W45321  13.536  10.025  12.935 -0.0292  0.0034 -0.0815
29513W        W45322   7.085  11.426  11.979  0.1016 -0.1409  0.1245
29514W        W45323  10.205   1.686  13.057  0.1765  0.2974 -0.3099
29515W        W45324   1.406   7.437   0.391 -0.1887 -0.2547 -0.0170
29516W        W45325   7.833  13.407   3.118 -0.0192  0.0403 -0.0084
29517W        W45326   7.377   3.700   2.766  0.1162  0.0584  0.0107
29518W        W45327  14.933  10.327   5.583  0.1514  0.4949  0.2969
29519W        W45328   5.658   5.353  13.397  0.3047 -0.3385  0.0661
29520W        W45329   3.572   4.537  16.159 -0.2066  0.2785 -0.1055
29521W        W45330  10.176   5.649  15.102  0.0748 -0.0111 -0.2662
29522W        W45331   6.493   5.716  12.488 -0.1821 -0.1383 -0.1289
29523W        W45332  12.291   1.940   3.371  0.1533 -0.2339 -0.2205
29524W        W45333  13.539   5.797  15.143  0.1744  0.0876 -0.1401
29525W        W45334   4.401  11.488   1.119 -0.0248  0.3570  0.0366
29526W        W45335   4.627  13.868   3.049  0.5516 -0.1945  0.1038
29527W        W45336   1.787   6.356   3.995 -0.0252 -0.0226  0.2115
29528W        W45337   2.105   4.151  11.363 -0.0310 -0.2430  0.2110
29529W        W45338   0.198   4.733  15.556 -0.0368 -0.0260  0.1436
29530W        W45339   4.026  14.881  11.971  0.0733 -0.3230  0.0905
29531W        W45340   7.577   8.398  14.129 -0.1231  0.0346  0.0797
29532W        W45341   1.361  12.261  11.973 -0.2884 -0.1180  0.2929
29533W        W45342  17.032  10.631   2.147 -0.0152  0.0975 -0.1632
29534W        W45343   9.546  11.031  11.210  0.0425  0.0121  0.2930
29535W        W45344   6.193  11.512   4.998 -0.0722  0.1370 -0.1017
29536W        W45345  17.793   6.645  13.680  0.1717 -0.0563 -0.3052
29537W        W45346  10.103  13.835  11.095 -0.1706  0.0335 -0.1532
29538W        W45347   8.197  10.471   3.875 -0.2079 -0.0010 -0.1675
29539W        W45348   7.587   2.683   0.640 -0.1474 -0.0671  0.2594
29540W        W45349   6.952  10.159  11.531  0.0743 -0.2006 -0.0656
29541W        W45350  12.282  16.789   5.478  0.3970 -0.0009  0.2026
29542W        W45351  14.678  16.584   3.628  0.0714 -0.2021  0.3285
29543W        W45352  12.147  13.665   5.189 -0.0936  0.2381 -0.0594
29544W        W45353   6.277   8.459   4.307 -0.0545  0.3910  0.2655
29545W        W45354  13.384  11.911  12.578  0.1676  0.0737  0.0034
29546W        W45355   6.440   2.796   0.755  0.1242  0.1919  0.2320
29547W        W45356   5.225  14.287   5.458 -0.2515 -0.2446  0.1578
29548W        W45357  11.883  13.437  11.854 -0.0915 -0.2834 -0.1085
29549W        W45358   2.268   4.572  13.124 -0.0718  0.3483 -0.2871
29550W        W45359  12.015   6.312  12.779 -0.2974  0.2799 -0.1105
29551W        W45360  10.100  11.389  11.167 -0.3875  0.2052  0.1558
29552W        W45361  12.255   4.278  15.512 -0.0003  0.1079  0.0961
29553W        W45362   2.565   6.442   6.563  0.0535  0.0469  0.2999
29554W        W45363   1.956   4.397  15.392  0.4266  0.3738 -0.2066
29555W        W45364  16.151  15.035  11.008 -0.2123 -0.4004  0.0093
29556W        W45365   4.752   0.181   2.207  0.1639  0.1130 -0.2189
29557W        W45366   0.549   0.989   2.093 -0.2534  0.0138 -0.2916
29558W        W45367   5.454  15.768   0.273  0.2050  0.1118 -0.1636
29559W        W45368  12.121   0.118  14.500 -0.0087  0.0178  0.0116
29560W        W45369  11.153  15.857   5.457  0.1264 -0.0550  0.1281
29561W        W45370  11.546   7.227  12.928 -0.0854  0.1271  0.1505
29562W        W45371   3.912  11.495  12.668 -0.2023 -0.2641 -0.0781
29563W        W45372  16.615  10.706   2.418 -0.2093  0.1799 -0.2141
29564W        W45373  10.502   1.151   3.129 -0.1666 -0.0194  0.0939
29565W        W45374  10.132   0.187   3.142  0.2034  0.0041 -0.0829
29566W        W45375  15.978   7.240   2.338  0.0318  0.1088  0.1237
29567W        W45376   1.275   6.321   3.857  0.0964  0.0807 -0.3833
29568W        W45377   1.114  11.364  11.921  0.0230  0.0951  0.1576
29569W        W45378   9.132  11.841   2.357 -0.0151 -0.1338  0.1961
29570W        W45379   0.537   1.025   1.106 -0.0244  0.1682 -0.0628
29571W        W45380  17.441   3.578   3.153 -0.1697 -0.2273  0.1116
29572W        W45381   1.536  15.250   4.020  0.1904 -0.0010 -0.1327
29573W        W45382  16.043   4.800   1.388  0.0362 -0.0098 -0.5170
29574W        W45383  16.211  14.618  15.770 -0.1114  0.0803  0.1395
29575W        W45384  10.643   5.278   2.362  0.1330 -0.3942  0.0381
29576W        W45385  16.743   3.316  15.646 -0.0140  0.1470  0.1818
29577W        W45386   5.840  17.792   2.803 -0.3492 -0.2068 -0.0617
29578W        W45387  13.271  16.085   4.910 -0.2395 -0.1651  0.0822
29579W        W45388   3.825  13.669   4.326  0.0844 -0.0591 -0.3919
29580W        W45389  17.653   5.206  13.162 -0.1522  0.1163  0.0874
29581W        W45390  17.990  12.911  14.818 -0.2355  0.1364 -0.0665
29582W        W45391   1.736  12.313   3.766  0.0857 -0.0728  0.3067
29583W        W45392   7.561  13.007   5.547 -0.1880  0.3075  0.1819
29584W        W45393   7.678   0.168  13.200  0.2630 -0.0751  0.1926
29585W        W45394  11.345  13.884   0.077  0.0369 -0.3357 -0.0732
29586W        W45395   3.526  17.942  14.344  0.3206 -0.1278 -0.1015
29587W        W45396  12.171   2.422  12.986  0.0427  0.1360 -0.1580
29588W        W45397  12.045   0.613  10.724  0.2064  0.2404  0.1642
29589W        W45398   6.986   3.197  14.340  0.0299 -0.0278 -0.1595
29590W        W45399  12.718  10.972  15.829  0.0581  0.0015 -0.0571
29591W        W45400   8.402   1.583   1.882 -0.2266 -0.0834  0.0580
29592W        W45401  14.631   7.654   3.028  0.3777 -0.1644  0.0974
29593W        W45402  16.971  17.019  11.263 -0.0101 -0.3841  0.0042
29594W        W45403   9.478   3.924   3.599 -0.2876  0.5166 -0.1792
29595W        W45404   3.997  11.258   1.386 -0.0971  0.0034  0.0935
29596W        W45405  11.668   6.633   4.574  0.1367 -0.1046  0.2375
29597W        W45406  14.532   2.997  12.447  0.0460  0.0702  0.1599
29598W        W45407  14.689  16.222  13.196 -0.0369 -0.0043 -0.0114
29599W        W45408  10.771  17.619   0.919  0.4657 -0.0418  0.1854
29600W        W45409   1.146  14.550  12.232 -0.5855  0.0916  0.0155
29601W        W45410   7.981  10.483   1.721  0.2493 -0.0866  0.1736
29602W        W45411   8.523  13.107   3.690  0.2261  0.1816 -0.2603
29603W        W45412   5.870  16.479   0.557 -0.0448  0.2807 -0.0080
29604W        W45413   0.868  12.072   4.064  0.1672 -0.0970 -0.0739
29605W        W45414  11.401  16.231   2.056 -0.0818  0.2170  0.2878
29606W        W45415  15.972  15.898  13.392  0.0975 -0.1892 -0.2052
29607W        W45416  17.506   2.760   1.191 -0.1641  0.2232 -0.1486
29608W        W45417   6.819  13.407  14.960  0.0761  0.1775 -0.2676
29609W        W45418  12.572   2.925   1.191  0.2422  0.1048  0.0494
29610W        W45419  12.743  11.105  13.519  0.2326 -0.0805 -0.2309
29611W        W45420   7.424  10.645  11.528 -0.1382  0.1137 -0.4689
29612W        W45421   4.612  15.938  13.819  0.0689 -0.0040  0.0349
29613W        W45422   0.956  16.635   0.076  0.1061  0.1687 -0.0921
29614W        W45423   0.516  10.373   2.608 -0.0845  0.0569  0.3233
29615W        W45424  13.887  17.058  12.629 -0.1821 -0.0499 -0.1428
29616W        W45425   5.962   9.356   4.129 -0.0929 -0.0887  0.2574
29617W        W45426   3.980   8.936  11.785 -0.1680 -0.2289  0.2719
29618W        W45427   1.346  10.311   1.121  0.3960 -0.0335  0.0642
29619W        W45428   4.413  14.565   2.522  0.2831 -0.2265  0.0034
29620W        W45429   4.014  15.643   0.228 -0.2237  0.2432 -0.4251
29621W        W45430  11.599   2.964  11.731  0.0959 -0.1233 -0.0585
29622W        W45431  10.743  11.404  15.124 -0.1922  0.2314 -0.1373
29623W        W45432   1.560   8.167   5.585  0.0772 -0.2324 -0.0253
29624W        W45433   0.483  17.860   5.206  0.1072  0.3000 -0.1772
29625W        W45434   8.850  16.291  15.731  0.0044  0.1715  0.0023
29626W        W45435  10.156   3.414  14.464  0.5248 -0.2636  0.0566
29627W        W45436   1.278   9.391   2.710 -0.0104  0.0019  0.2529
29628W        W45437   9.535   3.987  14.832  0.2018  0.1799 -0.0908
29629W        W45438  16.923  10.973   5.223 -0.3372 -0.3069 -0.3199
29630W        W45439   2.746  11.923   3.636 -0.1593 -0.1957 -0.2079
29631W        W45440  16.392  18.062  15.970  0.3048 -0.4296 -0.0413
29632W        W45441  10.397  15.958  11.162  0.2159  0.0611  0.1355
29633W        W45442   6.255  16.127  11.958 -0.0745  0.0688 -0.1082
29634W        W45443  13.251   7.891  16.289  0.2963  0.0621 -0.1171
29635W        W45444  15.478  15.357  11.099  0.0620 -0.0795  0.0933
29636W        W45445  11.993   0.707  12.666  0.2374 -0.0006 -0.2001
29637W        W45446   1.483   7.145  12.768  0.5812 -0.0452 -0.3577
29638W        W45447  17.801   9.209  11.974  0.0669  0.1155  0.3680
29639W        W45448   8.232  13.686   1.244  0.1295  0.2745  0.0199
29640W        W45449  11.718  14.347  11.747 -0.3231  0.1766 -0.0911
29641W        W45450   3.241  10.305  15.083  0.2466 -0.1440  0.0709
29642W        W45451   8.657  15.810  12.853  0.0124 -0.2174  0.1198
29643W        W45452   5.413  11.638  11.613  0.1230 -0.1798 -0.1131
29644W        W45453   8.332  16.203   5.057 -0.1806 -0.0612  0.0608
29645W        W45454   2.694  14.366  11.874 -0.2280 -0.1064 -0.1518
29646W        W45455   5.151  17.414  14.123 -0.0903  0.2297  0.0075
29647W        W45456   3.024  10.766   6.266 -0.0595 -0.0457 -0.0073
29648W        W45457  14.589   3.938   4.497 -0.0874 -0.0220 -0.1284
29649W        W45458   0.863  14.377   4.722 -0.2301  0.0878 -0.0187
29650W        W45459  11.071  17.135  11.933  0.1894  0.1458  0.0146
29651W        W45460  14.952   0.092   3.416  0.2923 -0.2245 -0.0705
29652W        W45461   8.461   4.616  10.840 -0.3382 -0.1436 -0.1358
29653W        W45462  14.397  17.126   1.628 -0.0103  0.0026 -0.3833
29654W        W45463  14.492  12.506  16.051  0.1208  0.1383  0.1439
29655W        W45464  10.540   8.733  14.771  0.0251  0.0906  0.0095
29656W        W45465  15.280   3.953  14.735  0.2415 -0.1966  0.1211
29657W        W45466  15.851  12.309   2.163  0.2533 -0.0284  0.1447
29658W        W45467  11.612   5.667   3.682  0.2137  0.1187  0.0254
29659W        W45468   8.672   2.816   5.231  0.0411  0.1755  0.1478
29660W        W45469  15.111   0.854   1.197 -0.0309  0.0277  0.0152
29661W        W45470  10.142   9.650   2.968  0.1851 -0.0608  0.0856
29662W        W45471   0.167   9.200  11.871  0.1082 -0.0569  0.0755
29663W        W45472   5.137  13.748  14.249  0.3006 -0.3212 -0.1275
29664W        W45473  17.091  15.325  13.280 -0.0589  0.1424  0.1255
29665W        W45474   4.024  13.063   3.761  0.1093 -0.1158 -0.1663
29666W        W45475   4.431   5.088  10.743  0.0226  0.1467 -0.3346
29667W        W45476  11.481  15.161  14.616  0.1861  0.2613  0.1390
29668W        W45477   1.167   0.003   1.708  0.0868 -0.1121 -0.0381
29669W        W45478   5.670   6.989  12.714  0.2310 -0.0517 -0.1742
29670W        W45479   6.191   6.834   4.994 -0.3487  0.0160 -0.0598
29671W        W45480  10.585  18.108   0.581 -0.2123  0.0691 -0.2194
29672W        W45481  10.143   3.282  12.277  0.0767 -0.2325 -0.4859
29673W        W45482   6.143  11.295   1.719  0.0506  0.0949  0.0019
29674W        W45483  15.984   5.371   3.582 -0.3510  0.1124 -0.0614
29675W        W45484  17.146  17.321   3.774 -0.3621  0.3244  0.1015
29676W        W45485   6.068   4.436   2.495 -0.2582  0.0099  0.0099
29677W        W45486   5.436  14.317   5.919 -0.0131  0.1322  0.0564
29678W        W45487   5.803   3.112  13.566  0.0653 -0.1742  0.1644
29679W        W45488   6.694  11.936   3.159 -0.3453 -0.0142  0.2295
29680W        W45489   6.573   7.877   3.321  0.0267 -0.0134 -0.0562
29681W        W45490  13.207  11.189   2.821 -0.0010  0.2149  0.0260
29682W        W45491   7.747  11.812  13.539  0.1092  0.2417  0.1110
29683W        W45492   7.272  12.070  13.335 -0.3331  0.0142 -0.0546
29684W        W45493  17.585   0.826   0.668  0.2947  0.1626 -0.1707
29685W        W45494  14.990   5.903  13.501  0.2588  0.1228 -0.2304
29686W        W45495  12.991   4.508   4.299 -0.0461 -0.1331  0.1305
29687W        W45496  17.328  13.564   4.681 -0.3651 -0.0846  0.0205
29688W        W45497  13.087  13.985   1.006  0.1192 -0.0974  0.1327
29689W        W45498   6.788   4.744  13.019  0.1117 -0.1935 -0.0807
29690W        W45499  12.557  12.929  11.604  0.0181 -0.2149 -0.0857
29691W        W45500  13.234  15.799   4.467  0.1227 -0.4574 -0.0986
29692W        W45501  18.165  13.943   2.184 -0.1985 -0.1911  0.2948
29693W        W45502   5.063  12.177  12.900 -0.0949 -0.0215 -0.0072
29694W        W45503   5.548   6.107   3.053 -0.0382 -0.0905 -0.0690
29695W        W45504   8.108   1.309  12.593 -0.1102  0.0936 -0.0945
29696W        W45505  11.807  12.430  11.759 -0.1011 -0.2063 -0.1743
29697W        W45506   7.779  17.763  15.100  0.0740 -0.1401  0.2132
29698W        W45507  10.211   1.305   2.670  0.1083 -0.1298 -0.0178
29699W        W45508  17.251   9.694   0.469  0.1486  0.2205  0.0379
29700W        W45509   7.256   5.235   5.066 -0.0899 -0.1369  0.1883
29701W        W45510   4.254  10.204   2.639 -0.1009  0.2233  0.2197
29702W        W45511  11.568  15.335   0.966  0.2451  0.1393  0.2406
29703W        W45512   5.476   3.571  11.835 -0.0565  0.2522  0.0319
29704W        W45513  12.417   5.065   1.264 -0.0536 -0.2982  0.0529
29705W        W45514  16.495   3.678  11.314  0.1050  0.2030 -0.0102
29706W        W45515  16.748  17.481   3.233  0.3224 -0.2138 -0.0632
29707W        W45516  13.539   1.422  14.965  0.1433 -0.1505 -0.1495
29708W        W45517  11.112  16.487  13.359  0.2718  0.0964 -0.2134
29709W        W45518   2.943   8.867   4.857 -0.0630  0.1345  0.0309
29710W        W45519   3.902   0.455  11.188  0.0680  0.0325  0.1171
29711W        W45520   4.762   0.901  12.393 -0.0234 -0.1387 -0.0507
29712W        W45521   2.514  16.005   0.120  0.0247  0.0851 -0.4177
29713W        W45522  14.378   6.114   2.171 -0.2878 -0.0669 -0.1969
29714W        W45523  11.868  15.453  16.324  0.1515 -0.0759  0.1152
29715W        W45524  16.947  15.955  16.302  0.0414 -0.0630  0.0009
29716W        W45525  14.602  15.242   4.961  0.0642  0.0040  0.0123
29717W        W45526  15.931   0.331  14.258  0.1123  0.0121  0.2603
29718W        W45527   5.702  15.524  16.253 -0.2263  0.1390  0.2751
29719W        W45528  10.140  14.595  15.268 -0.0832 -0.1140 -0.0750
29720W        W45529  17.164   2.222   3.812  0.0814  0.3759  0.0029
29721W        W45530   4.480   0.955   0.790 -0.0770  0.1629  0.1938
29722W        W45531   5.112   2.466  15.258  0.2954  0.0785 -0.0957
29723W        W45532   0.783   5.925   5.106 -0.3418 -0.0657 -0.0039
29724W        W45533   4.158   6.866   4.815 -0.1358  0.2243 -0.0596
29725W        W45534   5.850   6.869   2.754  0.2056 -0.0180  0.0382
29726W        W45535   3.134  17.710   3.286 -0.1869 -0.1176  0.0041
29727W        W45536  13.415  14.914   1.209 -0.2743 -0.0869  0.0476
29728W        W45537   5.646  13.880  11.556  0.1007  0.2270 -0.3588
29729W        W45538  13.109   1.661  12.052  0.0553  0.1605  0.5074
29730W        W45539  10.146   8.819   2.305  0.0616 -0.0135  0.0428
29731W        W45540   0.513  12.184  12.801 -0.1408  0.1484 -0.2785
29732W        W45541   1.205   7.803   1.277 -0.2265 -0.0836 -0.1338
29733W        W45542   3.947   6.597   0.128 -0.1320  0.1869 -0.2198
29734W        W45543  11.903  16.874   1.645  0.0489 -0.1199  0.0542
29735W        W45544  11.250  11.993   4.771  0.0231 -0.2517 -0.0361
29736W        W45545  10.258  15.396   3.864  0.2880 -0.0965 -0.0724
29737W        W45546  16.769   4.854  15.532  0.2392  0.0094 -0.3508
29738W        W45547  16.353  13.451  11.036 -0.1042 -0.1036 -0.2252
29739W        W45548   7.725   7.433  13.709 -0.2809 -0.2001  0.3693
29740W        W45549  14.378  10.035  15.049 -0.0968 -0.1033  0.1996
29741W        W45550   5.494   8.482   6.294  0.2678  0.0658 -0.0021
29742W        W45551   9.362   6.549  11.501 -0.1916 -0.2013  0.2351
29743W        W45552   3.305   4.381   3.138 -0.0013 -0.3401 -0.2079
29744W        W45553  16.662  13.233   5.695  0.0012 -0.0590 -0.1410
29745W        W45554  16.233  11.168  14.434  0.1871 -0.4277 -0.1744
29746W        W45555  11.548   5.558   4.146  0.0565  0.0697  0.1813
29747W        W45556   7.500   1.989   4.518 -0.3135  0.0533  0.1822
29748W        W45557  12.967  11.580  12.628  0.2183 -0.0442 -0.1064
29749W        W45558  13.253  10.773  11.552 -0.3491  0.2662  0.1263
29750W        W45559   0.633  16.258   0.534  0.0117  0.1325 -0.0144
29751W        W45560   9.844  16.823   0.119 -0.1602  0.1391 -0.2684
29752W        W45561   4.294  14.810  13.966  0.1744 -0.0310 -0.1354
29753W        W45562   2.776  14.447  11.394 -0.1326  0.2006  0.1472
29754W        W45563  12.060   7.157  14.086 -0.1343 -0.1414  0.1693
29755W        W45564   2.704  10.253   1.042  0.0191 -0.0612 -0.1811
29756W        W45565  13.052   9.372  14.131  0.0865 -0.1296 -0.0302
29757W        W45566   7.770  11.030  15.151 -0.3156 -0.3467  0.1729
29758W        W45567   2.881   7.300   0.070  0.0664  0.2074  0.0148
29759W        W45568  11.398   7.901   3.063  0.4209  0.2496 -0.0710
29760W        W45569  14.667   9.231  13.044  0.1193 -0.1091  0.1366
29761W        W45570  18.035  11.648   0.855  0.0357 -0.0048 -0.0612
29762W        W45571  10.489   6.305   3.926 -0.1961 -0.0370  0.0512
29763W        W45572  13.182   9.207   1.927  0.1018  0.0662 -0.1209
29764W        W45573  17.475   9.316   4.370  0.1031 -0.0843 -0.1308
29765W        W45574  11.860  14.414  13.132  0.0351  0.1926 -0.0107
29766W        W45575   9.777  10.934  15.632 -0.1340  0.1051 -0.0823
29767W        W45576   7.757   0.932  15.496  0.2510 -0.3056  0.0333
29768W        W45577   0.028  16.223  12.970  0.2092 -0.0681 -0.0298
29769W        W45578   6.332  17.206  11.016  0.0806 -0.3605  0.0977
29770W        W45579  10.938   1.334   0.812  0.0489  0.0865  0.0736
29771W        W45580   3.038  16.737   0.017  0.1261  0.0076  0.0293
29772W        W45581   6.704  16.087  15.574  0.0404  0.1505  0.1260
29773W        W45582   3.754   9.802  15.622  0.0010 -0.0297  0.2654
29774W        W45583  15.661   2.556   1.115 -0.1009 -0.1387 -0.0394
29775W        W45584  17.208   2.710   2.614  0.0596 -0.0126  0.0881
29776W        W45585  13.894   6.478  14.986 -0.4632  0.0869 -0.3562
29777W        W45586   5.378   6.364   3.537 -0.1908 -0.1607 -0.2338
29778W        W45587   3.813   8.310   4.168 -0.0948 -0.2749  0.1086
29779W        W45588  10.839  10.009   1.149 -0.0312  0.1307  0.1496
29780W        W45589   2.192  16.015   0.698 -0.1306  0.4501  0.0515
29781W        W45590  14.818   0.323   2.314  0.0502  0.3770 -0.0640
29782W        W45591  12.483   4.123   1.170  0.1133  0.1311 -0.2541
29783W        W45592   7.273   2.826  11.919 -0.1674 -0.0795 -0.0935
29784W        W45593   1.705   6.825   3.694  0.0850 -0.1216  0.0585
29785W        W45594   9.323  18.176   1.151  0.0197 -0.3270 -0.2318
29786W        W45595   6.540   5.639  13.498 -0.3253 -0.0666 -0.1231
29787W        W45596   7.575   8.449   2.883 -0.1406 -0.0569  0.0265
29788W        W45597  14.124   7.130   1.595  0.1736 -0.2958  0.2468
29789W        W45598  15.739   8.124  15.349 -0.0107 -0.3963  0.2485
29790W        W45599  12.358  11.083  11.783 -0.4243  0.2111 -0.0164
29791W        W45600   2.717  15.955   3.356 -0.0001 -0.0563  0.1213
29792W        W45601   0.909   7.939   3.566 -0.0603 -0.0039  0.1902
29793W        W45602  11.888  15.213  14.981  0.3083  0.3521  0.1014
29794W        W45603  15.316   3.216   5.567 -0.0181  0.4102  0.2508
29795W        W45604  10.523  13.805   3.821  0.1283 -0.0170  0.1102
29796W        W45605   3.206  17.131  15.486  0.2778 -0.1474  0.1812
29797W        W45606   0.477  11.363   3.040 -0.0619 -0.4615  0.0775
29798W        W45607   8.093   8.582   2.316  0.1147 -0.3924  0.1109
29799W        W45608  18.095   6.048   5.491  0.1603  0.1237  0.2503
29800W        W45609   5.786  14.453   4.621 -0.0264  0.0290  0.1827
29801W        W45610  11.141   4.154  15.084  0.0266  0.1035  0.1532
29802W        W45611   7.539  17.948   1.526 -0.2351  0.1035 -0.1248
29803W        W45612  17.391  15.872  12.238 -0.4728  0.0201  0.3755
29804W        W45613  10.458   4.526   0.538  0.2111  0.1165 -0.1083
29805W        W45614  12.898  15.698  12.975 -0.0233  0.3203  0.1646
29806W        W45615  14.420   1.309  12.027 -0.0854 -0.1691 -0.1720
29807W        W45616  11.699   7.001  11.011 -0.0355  0.1625 -0.0475
29808W        W45617   5.588  14.338  13.913 -0.2867  0.1386 -0.0979
29809W        W45618   2.011  13.007  12.071 -0.0097 -0.0549  0.0639
29810W        W45619   2.003  11.089  11.840 -0.2985 -0.0123 -0.1791
29811W        W45620  14.877   3.949   4.996  0.1938 -0.1125 -0.1286
29812W        W45621  11.021   0.681  14.634  0.0990 -0.0554 -0.0898
29813W        W45622  12.701  16.952   0.933 -0.1648  0.1169 -0.0497
29814W        W45623   7.499  13.778   0.307  0.0404 -0.2598 -0.2173
29815W        W45624  10.805  17.104  15.355  0.2862  0.0784  0.4152
29816W        W45625  14.622  13.808   3.274 -0.2844  0.0824  0.0510
29817W        W45626   2.442   2.901  13.971 -0.1704 -0.0490 -0.1970
29818W        W45627  17.485  14.354  11.612  0.1081  0.1085 -0.1086
29819W        W45628  10.238   5.904   0.155  0.1852 -0.0929 -0.1236
29820W        W45629  10.126   3.729  15.305  0.0095  0.1515 -0.2564
29821W        W45630   1.971  14.218   0.435  0.1535  0.3746  0.3467
29822W        W45631  14.944   1.987   2.498 -0.1277 -0.1743  0.0781
29823W        W45632  14.579  14.911   1.491  0.0431  0.0341 -0.0349
29824W        W45633   7.534   3.542  13.009 -0.0513 -0.1289  0.0310
29825W        W45634   4.679   5.698   4.505  0.2954 -0.1782  0.2193
29826W        W45635   7.108   2.028  13.851  0.0364  0.0660 -0.1547
29827W        W45636   6.424  16.025  14.688  0.3018 -0.1265  0.0976
29828W        W45637  11.773  13.356   2.366 -0.0447 -0.0132 -0.1711
29829W        W45638   9.740   8.986   0.009  0.1714 -0.0450 -0.1179
29830W        W45639   4.579  18.161  10.991 -0.2603  0.2211  0.1088
29831W        W45640  17.881   5.072   1.259 -0.1030  0.0967 -0.0403
29832W        W45641   3.931  12.916   1.037  0.1222  0.1386  0.3051
29833W        W45642  11.941   5.578  12.594  0.2692  0.0914  0.2069
29834W        W45643  14.257   0.440  14.444 -0.1118 -0.4457  0.1227
29835W        W45644   5.307   9.753  14.381  0.1505  0.1161  0.0505
29836W        W45645   8.675  16.110  13.402  0.3190 -0.1227 -0.0671
29837W        W45646   2.183   6.399   5.250 -0.1553 -0.0005 -0.4432
29838W        W45647   4.111  12.509   3.795  0.1912 -0.0457  0.1254
29839W        W45648   5.378  18.078   0.542 -0.0936  0.0611 -0.2093
29840W        W45649  16.489  14.298   1.020 -0.2794  0.0151 -0.2615
29841W        W45650   6.182  12.373  12.299  0.0909  0.0969 -0.2637
29842W        W45651   6.614   7.217   0.734 -0.1781 -0.0691  0.0030
29843W        W45652  14.822   6.783  11.952 -0.3070 -0.0242 -0.1570
29844W        W45653   4.911  15.414   3.820  0.0766 -0.1772  0.0794
29845W        W45654   1.677   6.539  14.079 -0.0294 -0.0970 -0.0205
29846W        W45655   9.853  16.497   3.172  0.1803  0.4394 -0.0803
29847W        W45656   7.731   1.849   0.372  0.1867  0.1491  0.2633
29848W        W45657  14.083  15.518  15.680  0.0050  0.0718  0.1380
29849W        W45658  16.339  11.394  12.210 -0.1011 -0.0450  0.0718
29850W        W45659  10.557   6.717  11.505 -0.0069 -0.2287  0.0005
29851W        W45660   1.864  11.426  15.860  0.0325  0.1293  0.3763
29852W        W45661   9.576   6.776   5.110 -0.0076 -0.0955 -0.0898
29853W        W45662   3.867  11.538  14.756 -0.0203 -0.0533  0.1552
29854W        W45663   5.274  16.594  12.834 -0.3302 -0.0099 -0.2637
29855W        W45664   4.249   1.154  15.949  0.0952  0.0347 -0.0507
29856W        W45665  10.550  10.714  15.632  0.1202 -0.1305  0.1518
29857W        W45666  12.825  12.560  13.670  0.1389  0.0121 -0.0830
29858W        W45667  15.360  17.627   4.775 -0.0673 -0.0466 -0.2492
29859W        W45668   4.466   8.732  11.886 -0.0668  0.0607  0.0447
29860W        W45669   9.597   5.644   2.082 -0.0155 -0.0847 -0.0913
29861W        W45670  15.667   0.858   4.078  0.1108 -0.0165  0.1862
29862W        W45671  17.233   7.824   4.626 -0.0386 -0.0021 -0.2135
29863W        W45672  13.735  17.352   0.197 -0.2219 -0.4105  0.0052
29864W        W45673  11.600   7.498  10.891 -0.0221  0.0471 -0.1185
29865W        W45674   5.650   2.072  13.551  0.0723  0.1158  0.2487
29866W        W45675  11.842  14.031   2.972 -0.2522  0.2298  0.1363
29867W        W45676  16.168   0.238  16.219 -0.0742  0.0757  0.2276
29868W        W45677   2.193  15.438   0.071  0.0910 -0.0348 -0.0872
29869W        W45678  10.238   8.344   2.104 -0.0698 -0.3018 -0.0583
29870W        W45679   7.543   3.181  16.002 -0.2210  0.2585 -0.3543
29871W        W45680   2.726   5.976   3.940 -0.2736 -0.0042 -0.3453
29872W        W45681   8.119   1.916  14.607 -0.2367 -0.1674 -0.0301
29873W        W45682   0.051   5.092  14.777  0.0897  0.0685  0.0708
29874W        W45683  15.818  17.482   3.253  0.2231  0.2079  0.2060
29875W        W45684  10.843  17.588  13.074 -0.2275 -0.1560 -0.1635
29876W        W45685   4.672   9.316   3.803  0.0163 -0.1123  0.0074
29877W        W45686   8.996  14.853   1.181 -0.3389 -0.1640 -0.0817
29878W        W45687  15.107   0.489   0.322 -0.0399 -0.1135  0.2814
29879W        W45688   8.267   4.344  14.635  0.1104 -0.0412  0.1274
29880W        W45689   6.217  12.115  11.664 -0.1690  0.1647 -0.0487
29881W        W45690   6.947   0.564  15.280  0.4130  0.2516  0.1129
29882W        W45691   0.204   8.197  13.055 -0.0833  0.2387 -0.1843
29883W        W45692   4.533  17.492   2.963 -0.1624 -0.0636  0.3193
29884W        W45693  10.490  11.697   1.984 -0.3702  0.1542  0.3362
29885W        W45694   8.802  13.844  11.103  0.3142 -0.1571  0.2530
29886W        W45695   3.059   1.619  16.020  0.0716  0.1572  0.0711
29887W        W45696   8.785   9.960   1.237  0.2887 -0.2804  0.2256
29888W        W45697  14.502   3.149   1.977 -0.2011 -0.2701 -0.2096
29889W        W45698   7.383   7.854   4.106 -0.0477  0.1700  0.1355
29890W        W45699   2.164  14.659   0.639  0.0735  0.1050  0.1162
29891W        W45700  10.556  14.907   1.974  0.1031  0.0304  0.2334
29892W        W45701   9.525  15.814  15.702 -0.1094  0.3180  0.0719
29893W        W45702   5.864  16.498  16.009  0.1715 -0.2881 -0.0425
29894W        W45703   2.765   6.552   1.286  0.2315  0.3026 -0.0407
29895W        W45704   5.561   1.033  12.972 -0.0236  0.1554 -0.0369
29896W        W45705   6.823  14.363   3.802 -0.1300 -0.0678 -0.2835
29897W        W45706  10.735  17.016   2.068 -0.1515 -0.1378 -0.2717
29898W        W45707   5.257   5.898  11.921  0.2276 -0.2578  0.2686
29899W        W45708   4.352  11.593   1.588  0.3286  0.0254 -0.2066
29900W        W45709  10.750   3.228   3.746  0.0267  0.2725 -0.3712
29901W        W45710   8.626   0.409   2.913  0.4078 -0.1201  0.1762
29902W        W45711  13.469   1.687  13.339 -0.0142 -0.1564 -0.0185
29903W        W45712  14.780   5.397   5.645  0.2335  0.5196  0.0253
29904W        W45713  15.396  15.654   5.245 -0.1021 -0.0948  0.3974
29905W        W45714  10.262   1.800   0.040  0.0959 -0.3164 -0.2925
29906W        W45715   3.410   7.605  15.449  0.0262  0.0919 -0.0543
29907W        W45716  16.684   1.265   1.450 -0.0890  0.0868 -0.0348
29908W        W45717   0.454  12.307  10.811  0.2187 -0.2035  0.0061
29909W        W45718  10.693   3.508  15.397  0.2175 -0.0052  0.1584
29910W        W45719  15.115   2.854   0.111  0.0809 -0.2906  0.0784
29911W        W45720   8.810  15.050  15.661 -0.1920 -0.0923 -0.0376
29912W        W45721   3.803  11.073  16.187 -0.0516  0.0076  0.1350
29913W        W45722  16.248   2.103   0.735  0.1290 -0.1737 -0.0427
29914W        W45723  16.593  17.655  12.517 -0.0322  0.0626  0.3734
29915W        W45724  12.003   1.561   1.778  0.1954  0.1597 -0.0339
29916W        W45725   0.759  14.240   6.210  0.0847 -0.0397 -0.2616
29917W        W45726   0.109  10.986   3.104  0.1746  0.2037  0.1670
29918W        W45727  12.841   9.683  13.743 -0.0603  0.4048  0.2295
29919W        W45728   3.668   6.476   1.143 -0.1898 -0.0718 -0.0046
29920W        W45729  18.126  11.929   1.885 -0.0202  0.0071 -0.2857
29921W        W45730  13.818   4.830  14.361  0.3110  0.0040  0.1583
29922W        W45731   7.794   1.689   2.951 -0.0738  0.1296  0.1319
29923W        W45732   2.288   3.818   0.957 -0.2089 -0.1507  0.2372
29924W        W45733  11.884   7.702  15.459 -0.0918 -0.0635 -0.1371
29925W        W45734   2.346  12.662  11.972  0.0072  0.3412  0.2288
29926W        W45735  17.664   9.284   0.444  0.0217 -0.0115  0.0792
29927W        W45736  12.370  11.788   4.161  0.0463  0.0855 -0.4678
29928W        W45737  12.230   8.679   4.465 -0.2516 -0.0925 -0.0541
29929W        W45738   9.213  16.582  13.699 -0.1976  0.1451  0.0422
29930W        W45739  10.394   8.573   4.494  0.2914  0.0050 -0.2105
29931W        W45740   0.591   0.394   5.212 -0.2694  0.0287 -0.0985
29932W        W45741   9.873  11.490   4.400  0.2557  0.2027 -0.3425
29933W        W45742  15.746  15.814  11.215 -0.2104  0.3127 -0.2320
29934W        W45743   7.601   1.845  15.900 -0.4686 -0.1283 -0.1658
29935W        W45744  13.878  16.581  13.917 -0.4881 -0.2703 -0.1315
29936W        W45745  16.617   6.110  12.092  0.0559  0.0933 -0.0716
29937W        W45746  10.320   7.810   2.906 -0.2490  0.1053  0.1353
29938W        W45747  11.116   3.139  12.135 -0.5818 -0.2751 -0.2585
29939W        W45748  15.331   3.618   2.991  0.1303 -0.0390  0.0070
29940W        W45749   3.456  11.009   2.505  0.1025 -0.0396 -0.0225
29941W        W45750  16.349   6.874  15.538  0.0388 -0.1638  0.1981
29942W        W45751  12.082  16.585  14.988  0.0374 -0.1212 -0.0448
29943W        W45752   0.029   7.354   0.330 -0.0470  0.0137 -0.1745
29944W        W45753   9.411  13.903   2.686  0.0842  0.1306 -0.0559
29945W        W45754   1.943  16.344   4.577  0.3670  0.2082 -0.0387
29946W        W45755  12.370   4.760  15.644  0.0553  0.2411 -0.0467
29947W        W45756   2.107  13.461  10.947 -0.1694  0.3671  0.1798
29948W        W45757   7.120  17.628   0.989  0.5608  0.0102 -0.1380
29949W        W45758   5.615  12.870   2.706 -0.3364  0.0956 -0.0053
29950W        W45759  11.927  12.155   4.093  0.1177 -0.2405  0.1525
29951W        W45760   9.466  15.273   0.723 -0.0370 -0.1343  0.2016
29952W        W45761  15.474   2.654  13.733  0.2398 -0.1544 -0.0541
29953W        W45762   2.811   2.886   2.485  0.2347  0.1529 -0.0307
29954W        W45763  15.862   2.564   0.049 -0.1372  0.1732 -0.0806
29955W        W45764   1.871   8.455  14.466 -0.0068  0.2797 -0.0892
29956W        W45765  11.105   5.548   3.563  0.0368  0.0620 -0.0002
29957W        W45766  17.808  17.668  13.584  0.1263 -0.0237  0.1430
29958W        W45767  17.368   1.893  14.129 -0.0876 -0.1064  0.2178
29959W        W45768  15.533   9.118   4.720 -0.1001  0.1372 -0.0020
29960W        W45769  12.544  15.013  14.247 -0.1623 -0.0130  0.0831
29961W        W45770  17.728  15.803   2.871 -0.1176  0.0321 -0.3263
29962W        W45771  15.048   4.327   4.191 -0.1424  0.0898  0.1763
29963W        W45772  15.126  16.047  13.411 -0.0035  0.1067  0.0448
29964W        W45773   9.719   1.340   2.475 -0.0329  0.2264 -0.1664
29965W        W45774  17.733  16.678  11.932 -0.0392 -0.1113 -0.0003
29966W        W45775   7.304  10.324   0.441 -0.0906  0.0705  0.0651
29967W        W45776   2.619   7.167   3.125  0.2210 -0.2258  0.1877
29968W        W45777   6.528   9.503  14.924 -0.1570 -0.1409 -0.1613
29969W        W45778   6.329   4.924   0.646  0.4370  0.0433 -0.0119
29970W        W45779   4.308   6.608   5.237 -0.0138  0.2206 -0.1316
29971W        W45780   9.408  17.522  12.467  0.1536  0.0602 -0.1854
29972W        W45781  15.645   6.618   4.459 -0.0392  0.1332 -0.0689
29973W        W45782   9.052   1.718  14.225  0.0237  0.0022  0.2064
29974W        W45783  13.486  15.662   1.110 -0.1986  0.0048 -0.2781
29975W        W45784  13.356   1.683   1.207  0.1934  0.2527 -0.0299
29976W        W45785   4.245   6.231   2.850  0.3265  0.2271  0.1155
29977W        W45786  12.877   4.084  14.855 -0.3462 -0.1224 -0.0686
29978W        W45787   5.274  12.614  14.147 -0.0469 -0.1214 -0.3426
29979W        W45788   9.676  10.692   4.658 -0.0103  0.3279  0.0337
29980W        W45789   3.438   4.564  12.117 -0.0370  0.3408 -0.4274
29981W        W45790   9.227   3.702  10.985 -0.0968  0.0635  0.0796
29982W        W45791  14.311  13.311   0.217  0.0044 -0.0212  0.0614
29983W        W45792   0.560   5.714   2.893  0.0715  0.1965  0.2635
29984W        W45793   5.667  13.267   1.531  0.3394 -0.0629 -0.1355
29985W        W45794   4.270  12.518   0.242  0.0163  0.0724 -0.1127
29986W        W45795  16.104   1.600   5.263  0.1459 -0.0491  0.0035
29987W        W45796  14.062  17.602  14.756  0.0115 -0.1591 -0.0408
29988W        W45797  10.169   6.918   2.589 -0.1836 -0.1708 -0.1629
29989W        W45798  13.909   1.330  14.067 -0.1436  0.0844  0.0095
29990W        W45799   8.803  16.277  12.947  0.1706 -0.0915  0.0396
29991W        W45800  11.662   9.039   3.953 -0.1352 -0.0793  0.0140
29992W        W45801   7.395  11.752   4.016  0.0007 -0.3526  0.0220
29993W        W45802  16.719   9.237   1.568  0.1300  0.1648 -0.0859
29994W        W45803  14.744  17.531  14.480 -0.3924  0.1864  0.0570
29995W        W45804   3.860   0.540   0.138 -0.1301 -0.1715  0.0208
29996W        W45805   4.864   6.512   5.164  0.0919  0.0632  0.2133
29997W        W45806   4.525  14.704  11.203 -0.0495  0.1311  0.1580
29998W        W45807  15.301  11.058   3.406 -0.0772  0.0848 -0.3597
29999W        W45808   9.009   1.334   6.217  0.1343 -0.1676 -0.0802
30000W        W45809   4.012  17.814   0.969 -0.0372 -0.1122  0.3259
30001W        W45810   0.626   7.046  11.169  0.0557 -0.1489  0.4403
30002W        W45811   0.261   6.150   5.745 -0.3019 -0.4661  0.2177
30003W        W45812   5.707   8.178  15.049 -0.1024  0.0842  0.1827
30004W        W45813  16.906  17.411   1.919  0.0700  0.1526  0.4015
30005W        W45814  15.895  13.717  15.357  0.0036  0.1562 -0.1667
30006W        W45815  13.764   5.131  16.030 -0.1635 -0.2298 -0.2544
30007W        W45816  17.913  15.302   0.437 -0.2598  0.0041  0.1379
30008W        W45817   3.135   7.156   2.464  0.0366 -0.0071 -0.1461
30009W        W45818   1.331   3.763   3.897  0.0199 -0.2303 -0.3213
30010W        W45819   2.942  17.439  11.952 -0.1791  0.2012  0.1413
30011W        W45820   5.238  12.817  10.822  0.0543  0.0020  0.3007
30012W        W45821  18.084   6.678   5.260 -0.0774 -0.0960 -0.0991
30013W        W45822   8.424   6.957   3.745 -0.2650  0.0997  0.0731
30014W        W45823   7.951   8.241  15.249 -0.1962 -0.3389  0.0665
30015W        W45824   7.369  16.249   2.311  0.3307 -0.1351 -0.0003
30016W        W45825   2.078   5.101  15.963 -0.3172  0.0035  0.1070
30017W        W45826  10.312   6.897   0.192  0.0870  0.0206  0.3026
30018W        W45827   3.747   4.209   0.606  0.4574  0.0237  0.1002
30019W        W45828   8.863   2.475  14.988  0.0671  0.2229 -0.0049
30020W        W45829  10.479  12.074   5.328 -0.1180  0.0158  0.0579
30021W        W45830   0.708   3.562   0.718 -0.1123 -0.0909  0.3986
30022W        W45831   8.376  10.510  12.234 -0.4717 -0.1464  0.0443
30023W        W45832  12.817   4.409   0.216 -0.4658  0.4019  0.2741
30024W        W45833  12.806   0.446  12.474 -0.2265  0.0753  0.0157
30025W        W45834  16.864   9.010  15.124 -0.1686  0.2305 -0.0022
30026W        W45835   4.284  17.639   5.478 -0.2520  0.0940  0.0791
30027W        W45836   9.157  12.039  11.927  0.0463 -0.0931  0.2333
30028W        W45837   6.888   1.233   2.574  0.0754  0.0491  0.2135
30029W        W45838   8.160  10.219  13.647  0.0140 -0.1702  0.0874
30030W        W45839  12.041  11.766  10.606  0.1727 -0.0976  0.1327
30031W        W45840  12.664   1.012  12.513 -0.1492 -0.2033 -0.1158
30032W        W45841   2.183   3.361  13.743  0.2495 -0.1646 -0.0032
30033W        W45842   4.605   3.678   0.398 -0.2369 -0.2393  0.0004
30034W        W45843   9.596  14.485  15.251  0.2454  0.4529 -0.1719
30035W        W45844   9.262   2.935  12.827  0.0516  0.1262  0.0136
30036W        W45845   0.924  14.584   1.527  0.1108  0.1237 -0.1147
30037W        W45846  16.633   4.395  11.484  0.0453 -0.3099 -0.1051
30038W        W45847  13.967   8.275   2.381 -0.0731  0.0605 -0.2896
30039W        W45848  17.787  14.604   4.038 -0.0260 -0.2049  0.1339
30040W        W45849   5.541  13.557  14.872 -0.2510 -0.1268  0.1325
30041W        W45850  12.346  13.614  14.199 -0.1239 -0.4229 -0.1877
30042W        W45851  17.534   4.290   4.385 -0.3333  0.1923 -0.1853
30043W        W45852   2.117   1.936  12.344  0.2050 -0.0881  0.0395
30044W        W45853   2.893   1.105  15.755 -0.1941 -0.0700  0.3103
30045W        W45854   0.782   0.928   4.774  0.0413 -0.2705 -0.2753
30046W        W45855   6.788  17.039   0.376 -0.0240  0.2771 -0.1906
30047W        W45856   4.924  10.081   4.787 -0.0099 -0.2610  0.0305
30048W        W45857  15.716   0.289   3.090  0.1710  0.1807 -0.1256
30049W        W45858   6.049   5.476  15.347  0.1630  0.0215  0.2090
30050W        W45859  14.775  11.849   3.490 -0.4784  0.0128  0.0337
30051W        W45860   7.245   8.478   1.558 -0.0893  0.1018 -0.1220
30052W        W45861   9.287  13.011  15.221 -0.1876  0.0324  0.1370
30053W        W45862   2.414   7.289   4.222  0.2147 -0.2308  0.1222
30054W        W45863  11.429   2.510   1.788  0.0590 -0.0181 -0.2320
30055W        W45864  14.689   7.683  14.140 -0.0814 -0.3511  0.0677
30056W        W45865   9.741   6.829   2.316  0.1023  0.3438  0.0520
30057W        W45866   1.705   3.311  13.818 -0.1350 -0.1451 -0.2676
30058W        W45867   2.228  17.319  14.553  0.3712 -0.3143 -0.4446
30059W        W45868   5.830  16.706   1.668 -0.1789  0.1436 -0.2453
30060W        W45869   4.104   2.938  11.839  0.1577 -0.3091 -0.2238
30061W        W45870   5.017  11.470  12.374  0.4628  0.0362  0.1379
30062W        W45871  10.822  17.999  12.759 -0.1718 -0.1745 -0.1144
30063W        W45872   8.856   2.794   1.845 -0.2303  0.2504 -0.2142
30064W        W45873   7.011   2.795  13.695 -0.1469 -0.2581 -0.2276
30065W        W45874  12.264   7.629   0.077  0.2033  0.0150 -0.1209
30066W        W45875   3.477   8.295  13.382 -0.0390  0.0666 -0.1288
30067W        W45876  13.698  10.506  12.071  0.2363 -0.1327 -0.1943
30068W        W45877  10.485   4.903  14.438 -0.2275  0.2634 -0.1573
30069W        W45878  17.176  11.724   0.768  0.2075  0.4021 -0.0484
30070W        W45879   8.588   0.230   5.272 -0.1596  0.1036  0.2892
30071W        W45880   7.682   5.048   2.823 -0.0649 -0.0627  0.0310
30072W        W45881   4.051  17.108  10.506  0.2191  0.0660  0.3431
30073W        W45882   1.150   3.979  13.986  0.0596  0.0175  0.0537
30074W        W45883  11.452   8.264  14.983 -0.2513 -0.1162 -0.1661
30075W        W45884   0.542   6.615  11.372  0.0350 -0.1908  0.2955
30076W        W45885   2.429   1.822  11.542 -0.0967  0.1252 -0.0051
30077W        W45886   2.658   6.436   6.066  0.2072 -0.0246 -0.1746
30078W        W45887   9.085  17.777   1.490 -0.3596 -0.0193 -0.3150
30079W        W45888   8.809   1.746   2.285  0.2399  0.0050  0.1442
30080W        W45889   1.525   8.785   2.104  0.0564 -0.1794 -0.0489
30081W        W45890  12.784   9.592   5.431  0.1414  0.1835  0.0730
30082W        W45891   4.483   7.435  13.965  0.1182  0.0203 -0.1077
30083W        W45892   5.130  16.843  13.326 -0.0445  0.4370  0.1272
30084W        W45893   8.248  15.428   4.992 -0.2065  0.0789 -0.2699
30085W        W45894  12.557  11.626   0.863 -0.0796  0.1565  0.0759
30086W        W45895   3.447   7.307   1.068 -0.2820  0.0591 -0.0936
30087W        W45896   8.442  16.466  16.084 -0.1443  0.3100 -0.2049
30088W        W45897  12.802  12.034  11.136  0.1896 -0.2441 -0.3362
30089W        W45898  11.896   8.662  15.175  0.0924 -0.1858  0.0789
30090W        W45899  16.583  10.505  15.820 -0.0722  0.3806 -0.1199
30091W        W45900   4.600   9.046   2.599 -0.1542  0.2375  0.1531
30092W        W45901   7.638   9.407   1.272  0.0822 -0.2584  0.0845
30093W        W45902   0.562   9.843   2.495  0.1958  0.2744 -0.2899
30094W        W45903   3.106   4.353  16.108  0.1591 -0.1275  0.0146
30095W        W45904   4.544  13.077   3.748 -0.1220 -0.0870 -0.1166
30096W        W45905  17.566   2.036  12.926 -0.1090 -0.1025  0.1260
30097W        W45906   0.638   7.697  16.238  0.2901  0.1817 -0.1003
30098W        W45907  13.482  13.739   0.750  0.1089 -0.1393 -0.0359
30099W        W45908   7.753  14.219   0.923  0.3168 -0.0176 -0.0732
30100W        W45909   0.684   0.382  15.748  0.0263 -0.2270 -0.0604
30101W        W45910   2.585   2.147  15.859  0.4260 -0.0695  0.1141
30102W        W45911   8.756   3.830   3.024  0.0435 -0.2458  0.0916
30103W        W45912  16.085  13.637   1.354 -0.0448 -0.3957  0.1840
30104W        W45913   0.121  16.730  13.798 -0.3458  0.1961  0.1692
30105W        W45914  14.487  14.158   0.182  0.1029  0.0388 -0.0063
30106W        W45915   1.180   8.704  11.338  0.0786  0.1322 -0.0171
30107W        W45916  16.662   9.544   3.068 -0.0020 -0.2118 -0.1148
30108W        W45917  10.152   6.748  12.729  0.0516 -0.1020  0.1610
30109W        W45918   2.769   4.999  14.376  0.2234  0.0420  0.0602
30110W        W45919   2.598  16.967   4.225 -0.0845  0.1997 -0.1169
30111W        W45920  13.625  15.762   2.403  0.4058 -0.1313 -0.0407
30112W        W45921  12.551   2.634   4.222 -0.0320 -0.1215 -0.0561
30113W        W45922   8.333   2.131  15.505 -0.0518 -0.1857  0.0893
30114W        W45923  17.254   9.255  13.927 -0.3290  0.0779 -0.1608
30115W        W45924   2.263   5.087  14.175 -0.1861  0.2944 -0.0729
30116W        W45925  17.247   8.862  13.578 -0.0939 -0.4236  0.2151
30117W        W45926  15.464   1.756   2.279 -0.0449 -0.1062  0.1987
30118W        W45927   1.535   0.389   0.464  0.0001 -0.0459  0.1977
30119W        W45928  12.169   7.809   2.659 -0.3109  0.1507  0.0447
30120W        W45929  13.337  15.556   5.747  0.0521 -0.1474  0.0192
30121W        W45930   2.434   8.870   5.869  0.0224 -0.1799 -0.2651
30122W        W45931  11.452  12.596  10.728 -0.2835 -0.1940 -0.0188
30123W        W45932   0.885  12.257   1.883 -0.1825  0.1654  0.2222
30124W        W45933   2.375  14.691   4.798 -0.1565 -0.0548  0.3944
30125W        W45934   7.018  15.328  13.004 -0.0378 -0.1303  0.1330
30126W        W45935  18.087   8.298   0.556 -0.0876  0.1487 -0.0689
30127W        W45936  15.856  17.227  16.268  0.0343 -0.3705 -0.0059
30128W        W45937   6.448   4.202   1.206  0.0485 -0.0227 -0.2582
30129W        W45938   8.829  17.510   0.060  0.1012  0.0576 -0.1600
30130W        W45939  16.671   5.545  13.649  0.1756  0.0267 -0.1714
30131W        W45940  14.362  17.522  16.097  0.0580  0.0227  0.0320
30132W        W45941  17.489  13.581  14.909 -0.0072 -0.0083  0.0634
30133W        W45942  11.431  17.357   4.387  0.0416 -0.0895  0.1543
30134W        W45943   2.992   0.570  12.177 -0.1901  0.0550 -0.1108
30135W        W45944   6.997  17.482  11.999 -0.2362 -0.1328 -0.0757
30136W        W45945  13.588  12.216   1.788  0.1783  0.0914 -0.0263
30137W        W45946  15.981  10.758   0.164  0.0684 -0.0066 -0.0226
30138W        W45947   4.655  10.144  15.609 -0.2562  0.0016 -0.1616
30139W        W45948  17.854   2.991   2.173 -0.2617  0.2020 -0.1748
30140W        W45949   4.596   0.424   0.616 -0.1155  0.4609 -0.1780
30141W        W45950   1.703   6.038  15.735 -0.0519 -0.0907  0.0916
30142W        W45951   9.714   0.578  15.832  0.0985 -0.2919 -0.1365
30143W        W45952  14.737   2.016   5.525  0.3716 -0.0443 -0.5699
30144W        W45953  16.152  11.080  15.596 -0.3142  0.1287  0.0242
30145W        W45954   0.559  11.256   5.630  0.4398 -0.0814 -0.0475
30146W        W45955  17.674   1.379  13.566 -0.1445  0.2813  0.2576
30147W        W45956   9.737  10.629   2.239 -0.2313 -0.3269  0.2012
30148W        W45957   8.199  12.892  12.166 -0.1941  0.1810  0.0646
30149W        W45958   0.943  17.976  15.147  0.2838 -0.1616 -0.1245
30150W        W45959  15.436  14.445   2.848  0.2364  0.0446  0.0623
30151W        W45960   6.373  16.976  15.247  0.0748  0.1195 -0.0805
30152W        W45961  17.115   2.221   2.775 -0.1903  0.0462  0.2976
30153W        W45962   9.028   6.146   1.425 -0.1229 -0.3521  0.1455
30154W        W45963   0.549  17.251  15.834 -0.5709 -0.2460  0.0116
30155W        W45964  17.154  16.491   0.654  0.1516 -0.3474  0.2475
30156W        W45965  15.850  10.155   0.960 -0.2846  0.3890  0.5079
30157W        W45966   4.551  11.939   1.074  0.2426  0.0844  0.1552
30158W        W45967   9.606   2.362  11.182  0.0828  0.0120 -0.2705
30159W        W45968  12.286   9.766  14.586  0.2123  0.2442 -0.0190
30160W        W45969  16.382  13.225   3.958  0.1459  0.1441 -0.1034
30161W        W45970   1.669  10.134   5.380 -0.2177  0.1508 -0.0010
30162W        W45971   6.228  15.483   4.603  0.0633  0.1912 -0.0833
30163W        W45972  18.078   3.343   5.628 -0.1864 -0.0203  0.3098
30164W        W45973  18.068   9.180   3.068 -0.3574  0.0527  0.0855
30165W        W45974   1.802   3.596   0.809 -0.0807 -0.0385 -0.2084
30166W        W45975   8.566  15.858   1.974 -0.2141 -0.1713  0.1309
30167W        W45976  10.482  18.038  12.407 -0.5246 -0.2562 -0.1066
30168W        W45977  14.456  13.951  12.690  0.4842 -0.4169 -0.4701
30169W        W45978   4.361   3.983   2.440 -0.1866  0.1947  0.2321
30170W        W45979   8.142   2.300  14.223  0.3717 -0.0465 -0.1536
30171W        W45980   9.510  15.511  13.969 -0.0347 -0.1967  0.2062
30172W        W45981   9.765  12.071   4.377 -0.1068  0.1021  0.0154
30173W        W45982   0.004   0.047   5.078 -0.1519  0.0920  0.2045
30174W        W45983   5.745   6.871  15.104  0.3042  0.0745  0.0472
30175W        W45984   5.638   4.220   0.196 -0.0854  0.0555  0.2171
30176W        W45985  17.483  12.096  14.377  0.0866 -0.0458 -0.2724
30177W        W45986  15.385  10.472   9.985 -0.2267  0.1241 -0.0198
30178W        W45987  15.688   8.289   5.308 -0.0421 -0.0778 -0.2907
30179W        W45988  10.472  12.919   2.357  0.2886 -0.2488  0.3739
30180W        W45989  14.299  15.912  14.744 -0.1773 -0.2506 -0.3906
30181W        W45990   9.757   4.359  15.827  0.2431 -0.0754  0.4110
30182W        W45991  14.600   4.440   4.368  0.0542  0.4575 -0.1236
30183W        W45992   8.959  15.064   3.308 -0.1548  0.2579  0.0846
30184W        W45993   1.249   8.053  12.336  0.2578  0.2335 -0.1356
30185W        W45994   3.275  12.780  12.424 -0.0625 -0.2106  0.0906
30186W        W45995   8.684  15.053   2.815  0.1982 -0.1071 -0.2859
30187W        W45996   5.084   5.448   4.666  0.3508 -0.2664 -0.0257
30188W        W45997   0.583  16.085   3.184 -0.1101 -0.2575  0.4407
30189W        W45998   6.973   8.670   2.301 -0.0583 -0.2877 -0.0203
30190W        W45999  10.061   0.320  11.422 -0.3003  0.0238  0.0503
30191W        W46000  17.203  10.857   3.750 -0.4182 -0.2418  0.0346
30192W        W46001   3.555   6.412  12.474 -0.0499  0.1963 -0.2145
30193W        W46002  11.580   0.019   0.447  0.0308  0.0713 -0.1250
30194W        W46003  16.768  13.047   0.393 -0.0361 -0.1981  0.2177
30195W        W46004   7.881  17.516   3.195 -0.0882  0.0835 -0.1418
30196W        W46005   9.245   8.031  11.482 -0.0111 -0.1117  0.0436
30197W        W46006   0.720   8.968  11.950 -0.0402 -0.0564 -0.1192
30198W        W46007   1.627   8.003  14.039  0.1148  0.1011  0.1708
30199W        W46008   3.455  14.469   4.347 -0.0006  0.0436 -0.1708
30200W        W46009   9.041   7.654  12.832  0.1645  0.1608 -0.1761
30201W        W46010   0.014   0.515  16.357 -0.0382 -0.3158  0.0415
30202W        W46011   1.438   9.388   0.950 -0.0894  0.4104 -0.0457
30203W        W46012  12.761  11.490   3.621  0.4198 -0.0393 -0.0548
30204W        W46013   0.239  14.593  12.642 -0.0693  0.1725 -0.1498
30205W        W46014  10.356   7.724  15.972  0.2446  0.0363  0.0335
30206W        W46015  16.729   6.181   0.127 -0.1023 -0.2638  0.4198
30207W        W46016   0.974  18.187   3.287  0.0565 -0.3722  0.0622
30208W        W46017  16.856   0.649   2.934 -0.2624  0.1653  0.1293
30209W        W46018  18.073   4.245  16.359  0.1048  0.0551  0.2366
30210W        W46019  11.519   8.271  11.041 -0.0116 -0.1107  0.0603
30211W        W46020  17.954   9.615  14.340  0.2172  0.0003 -0.3992
30212W        W46021   4.544   8.344  13.800 -0.2574  0.3800  0.2477
30213W        W46022  15.781   5.678   4.688 -0.0145  0.0321  0.1493
30214W        W46023  14.613   7.514  15.750 -0.2427 -0.0764 -0.1464
30215W        W46024   1.465  11.155   2.821  0.1300 -0.1478  0.1437
30216W        W46025   9.276   1.557   1.758  0.1169  0.3211  0.2511
30217W        W46026  12.678  17.965  15.945 -0.0438  0.2103  0.3650
30218W        W46027   9.369  17.961  14.628  0.2938 -0.0771 -0.2844
30219W        W46028   8.986  14.907   3.846  0.0895  0.1152  0.0342
30220W        W46029   8.793   1.323   2.610 -0.1225  0.3790 -0.1441
30221W        W46030   9.692  15.168   2.874 -0.1457  0.0082 -0.0361
30222W        W46031   5.882  11.675   2.954 -0.1702  0.0518 -0.1884
30223W        W46032   3.400   6.788  13.980 -0.1151  0.0527  0.1666
30224W        W46033  15.252   8.331  10.554  0.2524 -0.0173  0.1189
30225W        W46034  17.648   2.603  11.901 -0.3620 -0.1638  0.2168
30226W        W46035  16.065  17.959  13.706 -0.2832  0.1016  0.1420
30227W        W46036   2.229  12.692  12.479  0.2494  0.1194 -0.0119
30228W        W46037   3.499   8.643   1.170  0.0956 -0.2261 -0.1362
30229W        W46038   5.762   7.689  10.938  0.3644 -0.2204 -0.2924
30230W        W46039   3.190   9.873  16.301 -0.0354 -0.1216 -0.2168
30231W        W46040   1.960  12.799  14.005 -0.1135  0.0629  0.0158
30232W        W46041  15.146   1.608  14.608  0.3355  0.0193 -0.0614
30233W        W46042  12.569  14.296  13.580 -0.0315  0.1195 -0.1721
30234W        W46043  10.426   8.181  10.449  0.0769  0.1626  0.2632
30235W        W46044  13.925   8.952   0.308  0.2320  0.0769 -0.0694
30236W        W46045  16.042  17.620   6.230  0.1946 -0.2597  0.1004
30237W        W46046  17.496  12.767   0.873  0.1667  0.0549 -0.1669
30238W        W46047   3.785   1.814   0.819  0.0235  0.0337 -0.1541
30239W        W46048   9.053   0.899   2.269  0.2652  0.0382  0.0006
30240W        W46049   8.237   9.389  14.108 -0.1971  0.1723 -0.1777
30241W        W46050  16.975   6.363  14.740  0.0585  0.0289 -0.3203
30242W        W46051   4.777   3.164   2.471 -0.0526  0.2507  0.0871
30243W        W46052   9.911  11.669  12.430 -0.1722  0.0619 -0.1981
30244W        W46053  11.426  17.280  16.335 -0.0883  0.1372  0.3095
30245W        W46054   8.192  10.730   4.470 -0.0610 -0.2794  0.1625
30246W        W46055   2.873  13.833   1.676  0.0313 -0.2242 -0.2507
30247W        W46056   6.842   2.339   1.194 -0.2209  0.0693  0.0291
30248W        W46057   7.088  18.168   1.597 -0.3942  0.2678  0.1849
30249W        W46058   1.347   6.415   6.156 -0.1088  0.3921  0.3512
30250W        W46059   2.153   2.876   5.435 -0.4355 -0.2640 -0.2078
30251W        W46060  10.761  14.498   2.191  0.3357 -0.0915  0.0203
30252W        W46061   5.615   3.123   1.424 -0.2682 -0.2337  0.1575
30253W        W46062   5.880  12.045  15.185  0.0404  0.0257 -0.1839
30254W        W46063  17.192   3.839   4.620 -0.0275 -0.0278 -0.0319
30255W        W46064  13.087  15.096  10.566 -0.2544 -0.2142  0.0395
30256W        W46065  18.167  17.458   0.630  0.0077 -0.0944  0.0710
30257W        W46066  17.816   7.980   0.188 -0.0986 -0.4514 -0.2496
30258W        W46067   4.992  14.450  16.275  0.1048 -0.1398 -0.2392
30259W        W46068   6.920   3.977   1.047 -0.2269 -0.1769 -0.1664
30260W        W46069   1.027  13.787   5.383  0.2391 -0.0862 -0.2650
30261W        W46070   2.032   5.671   3.874  0.0810 -0.3404  0.1626
30262W        W46071  17.380  15.573   2.544 -0.1190  0.2350 -0.0039
30263W        W46072  15.954   4.998  13.449  0.0067 -0.2724 -0.1972
30264W        W46073  12.459  17.958  12.912  0.0935 -0.1508  0.0183
30265W        W46074   1.272   5.664   0.754 -0.0276 -0.1198 -0.0944
30266W        W46075  11.834   1.574  13.641 -0.0564  0.1007 -0.1851
30267W        W46076   1.189   1.211   4.856  0.1265  0.0230  0.1621
30268W        W46077   6.446  13.079  11.411 -0.1542 -0.0096 -0.1120
30269W        W46078   8.972   3.978  10.641 -0.1565  0.1165  0.1761
30270W        W46079   1.343  13.307   2.987 -0.0554  0.1479 -0.1702
30271W        W46080  18.132   0.016  11.085 -0.3177 -0.2079 -0.3110
30272W        W46081   7.721  14.028  15.809 -0.1736 -0.0784 -0.0687
30273W        W46082  17.243   1.184   2.157 -0.1954  0.0341 -0.2690
30274W        W46083  10.673   5.899  13.829  0.2867  0.0725  0.1750
30275W        W46084  11.065   1.166   2.044  0.1569 -0.2453  0.0948
30276W        W46085  17.646   0.170   3.092 -0.1117  0.1982  0.0290
30277W        W46086   9.370  15.994  14.045 -0.1292  0.0763 -0.0731
30278W        W46087   0.291  17.110  16.239  0.1614  0.0404 -0.0036
30279W        W46088   7.764   2.926   4.891  0.0802 -0.0027 -0.1107
30280W        W46089  16.611  14.877   4.769 -0.0014 -0.2627  0.0417
30281W        W46090   5.184   4.253  15.255  0.0248 -0.0928  0.2397
30282W        W46091   4.707  12.823  13.438 -0.1489 -0.0823  0.2310
30283W        W46092  15.239  14.742  11.696 -0.0525  0.4165 -0.1879
30284W        W46093   2.488  10.449  14.220 -0.0390  0.0739 -0.2840
30285W        W46094  16.044   0.542  12.359 -0.2371 -0.4783  0.0098
30286W        W46095   8.718   4.580  14.813 -0.1659  0.0973 -0.2023
30287W        W46096   7.245   6.086  14.188  0.3151  0.3511  0.1903
30288W        W46097   7.110  13.303  12.599  0.1226 -0.1275 -0.1752
30289W        W46098   5.570  16.211  12.129  0.6485  0.0689 -0.0094
30290W        W46099  14.488   8.782   0.068  0.0438  0.2161 -0.0484
30291W        W46100  13.580   4.234   1.272  0.2856  0.3097  0.2546
30292W        W46101  15.344   3.247   1.564  0.1904 -0.0429 -0.1151
30293W        W46102  14.016  12.173   2.811 -0.1984  0.0077  0.0981
30294W        W46103   6.351   4.880  12.800 -0.3140 -0.0293 -0.2257
30295W        W46104  12.573   5.225   0.670  0.1009  0.2075  0.2208
30296W        W46105   8.186  10.170   3.455  0.2592 -0.1022  0.3005
30297W        W46106   8.194  11.611  11.005 -0.2170  0.3530  0.2937
30298W        W46107   5.731  14.451  15.242  0.0978  0.3592  0.2269
30299W        W46108  16.372  14.500   0.266 -0.3729  0.0985  0.2650
30300W        W46109   1.420   6.105  15.321 -0.3534 -0.0401 -0.0422
30301W        W46110  12.892  16.074   0.495  0.2611 -0.0690  0.2594
30302W        W46111   7.515   5.834   2.656 -0.0250  0.4249 -0.2779
30303W        W46112  16.921   8.016  13.838 -0.1854  0.1066  0.1443
30304W        W46113   0.985   8.913  14.259 -0.0172  0.1554 -0.0663
30305W        W46114   5.360   3.306   5.424  0.0666  0.1202 -0.1182
30306W        W46115   0.507  12.876   4.403 -0.1474 -0.1311  0.3475
30307W        W46116   1.746   7.968  14.535  0.0383 -0.0656  0.0532
30308W        W46117  15.878   8.406   4.187 -0.0065 -0.0474  0.1123
30309W        W46118   1.028  11.691  15.432  0.1729  0.2208 -0.1477
30310W        W46119  16.075   0.988  15.854  0.0271  0.0570  0.3107
30311W        W46120   6.046  14.479  14.075 -0.1246 -0.2870  0.0663
30312W        W46121  11.986  13.208   0.507  0.1765 -0.1675 -0.0855
30313W        W46122  13.089   9.029  13.667  0.2938  0.1197  0.2513
30314W        W46123   1.208  11.988   5.015 -0.3974 -0.1501  0.2540
30315W        W46124   7.532   5.288  14.284  0.0635  0.1800  0.0558
30316W        W46125  13.282  13.987  15.681  0.0479  0.1171 -0.3176
30317W        W46126   8.603   0.063  11.537  0.1552  0.3128 -0.2075
30318W        W46127  16.660   1.370  14.336  0.5551  0.0168 -0.0981
30319W        W46128  15.979  12.097   3.144 -0.2210 -0.0365 -0.0400
30320W        W46129  15.405   2.821   5.169  0.0896 -0.1074 -0.0323
30321W        W46130   1.170   5.415   3.290 -0.2422 -0.2555  0.0852
30322W        W46131   4.880   3.779  12.291  0.0518  0.2266 -0.2241
30323W        W46132   6.925   1.426  15.379 -0.1714  0.0443  0.1118
30324W        W46133   2.866   7.461   3.944  0.1135 -0.0930 -0.3201
30325W        W46134   7.460  12.603  12.335 -0.1453  0.0357 -0.1768
30326W        W46135  15.816  10.391  16.140 -0.1553 -0.3185 -0.0083
30327W        W46136   0.686   3.650  15.173  0.1637 -0.2658 -0.0715
30328W        W46137  17.857  15.596  11.659 -0.2206 -0.0876  0.1921
30329W        W46138  15.857  13.126  14.770 -0.0571 -0.1838  0.0367
30330W        W46139   2.822   6.649   4.680 -0.0078  0.0132 -0.0693
30331W        W46140  10.805  16.206  13.001  0.2198 -0.1993 -0.0245
30332W        W46141   4.295   7.374  12.650 -0.1761 -0.2198  0.0049
30333W        W46142  11.484  16.818  12.579  0.2392  0.0954  0.0669
30334W        W46143   9.140  14.385   4.979  0.0233 -0.0685  0.1437
30335W        W46144   6.865  11.752   0.525  0.0559 -0.0691 -0.0768
30336W        W46145  17.095   4.350   4.630 -0.1122  0.0947 -0.2030
30337W        W46146   4.852   7.356   3.672  0.2542 -0.2632  0.0507
30338W        W46147   6.199  10.248  15.453  0.2137  0.1498 -0.2018
30339W        W46148  12.566  14.754  12.886 -0.2035 -0.2184 -0.0548
30340W        W46149   9.928  17.839  16.066  0.0504  0.1917  0.0768
30341W        W46150   8.796   7.864   3.881 -0.1243  0.0948  0.1949
30342W        W46151  11.881  12.681   0.622  0.2197 -0.3034 -0.2818
30343W        W46152  15.043   0.449   5.127 -0.0028  0.0950 -0.2932
30344W        W46153   4.243   0.538  15.295 -0.2818  0.0214  0.2362
30345W        W46154  10.778  14.574   3.510 -0.0342 -0.1759 -0.3000
30346W        W46155  11.813   3.395   0.450 -0.0339 -0.3239 -0.0414
30347W        W46156  13.712   7.813  11.191 -0.2802 -0.2863  0.0539
30348W        W46157   1.631  13.933   4.945  0.4376 -0.0625  0.1601
30349W        W46158   0.324   2.136   0.352 -0.3392 -0.1600 -0.0931
30350W        W46159  10.685  12.053   3.950 -0.0096 -0.0786 -0.0864
30351W        W46160   3.423   9.742   5.536 -0.2276 -0.3095  0.0237
30352W        W46161   0.152  11.108  11.034 -0.2107  0.0725  0.2196
30353W        W46162   4.575   2.815  12.708  0.1198  0.1781 -0.0836
30354W        W46163   9.294  12.237  14.642  0.1368 -0.0373 -0.0215
30355W        W46164  13.585   6.262  12.863  0.1446  0.1227  0.1628
30356W        W46165  11.044   7.030   3.625 -0.1422 -0.2994 -0.2602
30357W        W46166  16.946  16.152  13.373 -0.1251 -0.1563  0.2384
30358W        W46167  13.016   2.435   3.990  0.0398  0.0531 -0.0641
30359W        W46168  16.633   3.845  12.184 -0.0731 -0.0643 -0.1372
30360W        W46169   9.664  10.556  13.432  0.0748 -0.1416 -0.2263
30361W        W46170   3.621  12.997  12.125  0.0238  0.1216  0.0423
30362W        W46171   3.522   1.298   4.984 -0.0750 -0.0537 -0.0762
30363W        W46172   5.373  10.103   3.391 -0.1086 -0.2907  0.1308
30364W        W46173   0.715   0.131   2.661 -0.0028 -0.1465  0.2159
30365W        W46174   8.663  13.176   6.028  0.1778  0.1357 -0.1043
30366W        W46175   0.136   0.514  14.897  0.1125  0.0586  0.0227
30367W        W46176  12.217   8.706  14.695 -0.0040 -0.0116 -0.1020
30368W        W46177  11.078   7.625   5.430  0.2412 -0.0405 -0.0001
30369W        W46178  17.437  10.821   2.446  0.3064  0.0980  0.1011
30370W        W46179  16.551  17.399   5.496  0.0630  0.2126 -0.1569
30371W        W46180  12.916  17.198  11.894  0.0612 -0.0565  0.0732
30372W        W46181   0.859   4.550   1.908 -0.1316 -0.1759  0.1865
30373W        W46182  15.614   9.434   1.011  0.0864 -0.3344 -0.0773
30374W        W46183   5.301   3.054   1.008  0.0619  0.0234 -0.2248
30375W        W46184  16.748  15.050   5.283  0.0299 -0.2340  0.0914
30376W        W46185   4.545   1.618  13.622 -0.2831  0.0541  0.2519
30377W        W46186   2.758  12.734  12.587  0.0566  0.2121  0.1405
30378W        W46187  16.657   5.063   4.970  0.0748  0.0636  0.0760
30379W        W46188   4.930  11.419  13.457 -0.1989 -0.3775  0.0810
30380W        W46189  10.788  12.906   0.180 -0.1757  0.2616  0.0349
30381W        W46190   8.226  14.990   4.609 -0.1206  0.0864  0.0954
30382W        W46191   6.125   8.907   5.284  0.0403 -0.1517  0.1017
30383W        W46192  13.237  17.002  15.074 -0.2056 -0.1841  0.2391
30384W        W46193  10.420  10.610   1.047 -0.2312 -0.0019  0.2184
30385W        W46194   1.947   7.388  11.415 -0.2404  0.6694  0.0157
30386W        W46195   7.290   3.341  12.017 -0.0836 -0.0302  0.0973
30387W        W46196   3.447   0.322  16.251  0.0911 -0.0314  0.2091
30388W        W46197  10.560  16.339   4.862  0.1621 -0.1127  0.0600
30389W        W46198   9.378   0.197   1.953 -0.1543 -0.0021  0.1663
30390W        W46199   8.436   6.082   0.145  0.1192 -0.2050  0.0179
30391W        W46200   4.380  11.483  12.944 -0.0617  0.1428  0.0980
30392W        W46201   4.700  17.547  11.455 -0.1318 -0.0899  0.0611
30393W        W46202  14.246  11.598   0.132  0.1295  0.1891 -0.0806
30394W        W46203  14.759   7.895  12.666 -0.1284  0.0645  0.0344
30395W        W46204   4.359  11.099  15.208  0.5022  0.0670 -0.1691
30396W        W46205   6.305   8.558  10.736  0.1714 -0.1290 -0.2249
30397W        W46206   4.226  13.973  12.062 -0.1551 -0.0202 -0.2176
30398W        W46207   8.365   8.410  12.021  0.3173  0.1549 -0.0908
30399W        W46208   7.001   5.515  12.195 -0.3477 -0.0729 -0.2019
30400W        W46209   1.534   7.552  14.299  0.1255 -0.1604  0.1229
30401W        W46210  15.836   0.973   2.346  0.1403 -0.1961  0.0057
30402W        W46211   5.678   3.936   1.940  0.1249 -0.1315 -0.3564
30403W        W46212   5.774  12.773   4.978 -0.1922 -0.2178 -0.3426
30404W        W46213   6.155  10.148   3.225  0.1605 -0.0017  0.2543
30405W        W46214   9.578   1.531   4.680  0.2531 -0.0278  0.0755
30406W        W46215   7.557   3.635  11.696  0.3029  0.0123  0.3019
30407W        W46216  12.568  13.792  11.832  0.1180 -0.0801  0.1638
30408W        W46217  16.538  11.376  15.235 -0.0777 -0.1629  0.2663
30409W        W46218   6.069   3.059   1.778  0.2695  0.0721  0.3241
30410W        W46219   3.505  12.374   3.696 -0.0153  0.4188  0.0465
30411W        W46220   1.720   4.807   0.948  0.1989  0.2486  0.0392
30412W        W46221   8.142   4.710  11.742  0.1474 -0.2017 -0.1728
30413W        W46222  12.627  12.723   5.295  0.1011  0.1302  0.4034
30414W        W46223   5.087  14.516   1.742  0.0510 -0.1087 -0.2232
30415W        W46224  16.404   4.481   1.759  0.0715 -0.1015 -0.0820
30416W        W46225  14.664  16.426  13.636  0.1537 -0.1858 -0.0070
30417W        W46226   3.591  17.499   4.879  0.0478  0.1926 -0.1765
30418W        W46227   9.561  13.079   2.892 -0.0828  0.1799  0.0400
30419W        W46228   0.607   3.795  13.016 -0.1973 -0.0176  0.1792
30420W        W46229   2.306   2.439   1.938  0.1839 -0.0331 -0.0938
30421W        W46230   8.825  10.738  13.460  0.0165  0.1545  0.2929
30422W        W46231  11.103  13.087  13.867  0.0801  0.1923  0.3328
30423W        W46232   0.269  16.372  14.341  0.1031  0.2751  0.0432
30424W        W46233   6.722  15.195  11.070 -0.0778  0.1133 -0.0132
30425W        W46234  10.577  10.520  14.990  0.0931 -0.0439 -0.1545
30426W        W46235   2.155   6.174   0.587 -0.0769 -0.3998  0.0168
30427W        W46236   7.920  10.564  14.486 -0.3549 -0.0382  0.1096
30428W        W46237  10.412  16.925  12.583  0.0834  0.0837 -0.0327
30429W        W46238   0.668   9.001   5.190  0.0563  0.0497 -0.3389
30430W        W46239  12.295  11.714  11.963  0.3117  0.5195 -0.2355
30431W        W46240  17.656  16.147  15.379  0.3157  0.0786  0.0297
30432W        W46241   2.970  15.638  13.890  0.1273 -0.1255 -0.0912
30433W        W46242   2.590  13.268   0.070 -0.0251  0.1564 -0.0609
30434W        W46243  17.807  17.691  13.126 -0.1717 -0.3662 -0.0331
30435W        W46244   8.099  11.537  14.386  0.2269 -0.1731 -0.0557
30436W        W46245   4.342  15.538  13.625  0.4512 -0.1218 -0.0867
30437W        W46246   9.805   9.402   3.331  0.2926 -0.1786  0.0005
30438W        W46247   1.127  15.650   0.139 -0.0749 -0.2633 -0.1186
30439W        W46248  14.199  14.982   4.006 -0.1283 -0.1145 -0.5356
30440W        W46249   6.035  14.728  13.298 -0.1949 -0.0379  0.0851
30441W        W46250  11.018   2.163  12.615  0.0699  0.1174 -0.0411
30442W        W46251   8.681  13.871   2.012 -0.1781  0.2913  0.0524
30443W        W46252   8.658   4.483   2.374 -0.1365  0.0979 -0.0975
30444W        W46253  12.612   2.214   4.682  0.2270  0.2500 -0.0694
30445W        W46254  17.767  17.326   1.398 -0.0148 -0.0278  0.1871
30446W        W46255  11.878  17.663   5.302  0.0804  0.1103  0.0220
30447W        W46256  18.035   5.842   3.512 -0.1093 -0.1306 -0.0099
30448W        W46257   3.750  12.053   4.989  0.1340 -0.1254 -0.0138
30449W        W46258  11.341  16.432  13.862  0.0541 -0.3538 -0.0751
30450W        W46259  10.147   5.307  11.375  0.0428 -0.0760 -0.0726
30451W        W46260   5.975   0.077  10.528  0.0950  0.0527 -0.1652
30452W        W46261   3.776   1.596   2.613 -0.1336  0.0256 -0.2742
30453W        W46262   5.250   0.728  15.267 -0.2286  0.2226  0.1438
30454W        W46263  16.468   2.124  12.893 -0.0875  0.1659 -0.0291
30455W        W46264  17.754  15.844  13.608  0.0913 -0.1647  0.0695
30456W        W46265   4.262   5.522   4.734 -0.4089  0.1464  0.0368
30457W        W46266   5.763  17.093   1.376  0.2433 -0.1493  0.2004
30458W        W46267   2.762  16.618  11.569  0.2165 -0.0425  0.1115
30459W        W46268   0.969   0.238   4.219 -0.1694  0.1709 -0.0000
30460W        W46269   7.636  16.911   1.138  0.3636  0.0342  0.0003
30461W        W46270  16.755   5.571   5.545  0.0080 -0.1192  0.1531
30462W        W46271  11.028   0.048   2.315 -0.0253  0.0444  0.0966
30463W        W46272   6.359   1.988   0.043  0.1481 -0.2927 -0.0054
30464W        W46273  11.006   6.418  11.566  0.0684  0.0207  0.0207
30465W        W46274  16.859  13.784   4.454 -0.1596 -0.0673  0.0091
30466W        W46275   6.730   7.921   1.345  0.1378 -0.0517  0.0308
30467W        W46276  12.029  12.451   3.278 -0.3251 -0.0371 -0.0395
30468W        W46277  11.785  13.671   0.241  0.1616  0.0850  0.0478
30469W        W46278  17.986  12.347   0.446  0.2901  0.0598  0.5091
30470W        W46279   3.218  16.160  15.979 -0.1757 -0.0429  0.4844
30471W        W46280  11.777  16.195  14.758 -0.1756 -0.0451 -0.0455
30472W        W46281   3.807   6.422  11.483 -0.0191  0.3646  0.0588
30473W        W46282   4.109   2.482   5.428  0.1021 -0.2476  0.1138
30474W        W46283  14.767   8.062  14.532 -0.1408  0.2674 -0.2121
30475W        W46284   7.575   8.824  15.879 -0.2800 -0.0269  0.1141
30476W        W46285   4.013   8.530   5.109 -0.0433 -0.4304  0.1237
30477W        W46286  14.576  15.359   1.859  0.2098 -0.0681 -0.2625
30478W        W46287  11.072  11.154   3.051 -0.0500 -0.0703  0.3161
30479W        W46288  10.367  11.372   4.692  0.0410 -0.0236  0.1342
30480W        W46289  11.297   9.347  10.459 -0.0799  0.0069  0.1640
30481W        W46290   9.285   4.910  14.263  0.3618  0.1058 -0.2617
30482W        W46291   6.195   9.945  15.902  0.1609  0.2138  0.3637
30483W        W46292   9.356  15.446   0.241 -0.0127 -0.1533 -0.0202
30484W        W46293  14.500  12.211  13.798 -0.0738  0.2309  0.0101
30485W        W46294   0.479   0.593  15.306  0.3035  0.1452  0.0403
30486W        W46295   5.232  17.369  15.785 -0.3403  0.0122 -0.1799
30487W        W46296   4.840  14.275   5.089  0.0011  0.0298 -0.1829
30488W        W46297  12.221  12.314   1.404 -0.0388  0.0181 -0.0589
30489W        W46298   2.512  16.943  16.225  0.1608 -0.2748  0.1747
30490W        W46299  16.696  12.136  14.252 -0.0458  0.2214 -0.1723
30491W        W46300  10.878   6.060   4.702 -0.0681 -0.0885  0.1155
30492W        W46301  17.204  15.852   3.071  0.2548 -0.0536  0.0338
30493W        W46302  11.398   2.102   3.226 -0.2268  0.1529  0.0115
30494W        W46303   2.885  11.589   1.886 -0.0360  0.2004 -0.2058
30495W        W46304   0.453   6.981   4.408  0.2707  0.0902  0.0236
30496W        W46305  16.473   8.217   0.064 -0.2359  0.3592 -0.0424
30497W        W46306   8.165   2.981  13.454 -0.3985 -0.0309 -0.0038
30498W        W46307   3.186   7.625  14.556 -0.2374 -0.0334  0.0070
30499W        W46308  15.938   4.768   0.795  0.0679 -0.3425 -0.1334
30500W        W46309   9.194   2.591   2.203 -0.1538 -0.1229  0.1957
30501W        W46310  18.192   6.755   1.761 -0.0836  0.2164 -0.0707
30502W        W46311   5.809   7.051  13.497 -0.2078  0.0873 -0.2401
30503W        W46312   8.863  13.850  15.092  0.1164 -0.1233 -0.2195
30504W        W46313  13.476  10.336  11.672  0.1815 -0.0033  0.0726
30505W        W46314  12.194  14.608  14.295 -0.0316 -0.0916  0.0036
30506W        W46315   2.226  11.444   5.497  0.0899 -0.0112 -0.0410
30507W        W46316  15.502   9.297  13.370  0.0948  0.0958 -0.0377
30508W        W46317   7.493   2.803  13.647 -0.0081  0.0052 -0.0415
30509W        W46318  12.562  12.469   4.029  0.1397  0.1393 -0.0457
30510W        W46319   8.660  15.847   3.220  0.0016 -0.3557  0.0790
30511W        W46320   5.921   2.773  14.372  0.1291 -0.1213 -0.0486
30512W        W46321   7.222   3.573   3.960  0.1960 -0.0255  0.2769
30513W        W46322   2.205   4.907  15.154  0.1362 -0.1324  0.0608
30514W        W46323   1.413  12.720   4.006 -0.0562  0.1963 -0.0176
30515W        W46324  17.198   9.308   0.130  0.0344  0.0769  0.1533
30516W        W46325   2.624   1.762   2.919  0.1188 -0.0997  0.1507
30517W        W46326  15.779   5.890   3.396 -0.1864  0.0033 -0.2690
30518W        W46327   4.115   3.413   1.824 -0.1230  0.1603  0.1270
30519W        W46328   7.030   6.552   2.433  0.1748  0.2481 -0.1758
30520W        W46329   5.738  11.130  16.214  0.2297  0.0147  0.0631
30521W        W46330   6.408   3.981   2.693  0.2688  0.0301  0.0651
30522W        W46331   2.166   5.546  13.963  0.1454  0.2185  0.3154
30523W        W46332   2.349   4.929  12.755  0.1167 -0.2060  0.0609
30524W        W46333  11.658  11.402   5.275 -0.0955  0.0354 -0.4038
30525W        W46334  13.423  16.408  14.927 -0.0666 -0.2253 -0.2585
30526W        W46335  12.711  16.671  13.292 -0.0776  0.2313  0.2643
30527W        W46336   7.874   6.027   2.938  0.1536  0.0234 -0.2754
30528W        W46337  12.583   5.611   2.594 -0.0675  0.2676  0.1733
30529W        W46338  12.364   8.301  11.584 -0.1308 -0.2669  0.0450
30530W        W46339   9.113  11.001  12.075  0.3783 -0.0724  0.2339
30531W        W46340  12.770  11.143   1.046 -0.1766  0.0507 -0.1697
30532W        W46341  12.039   7.127   2.769  0.1604 -0.1378 -0.0336
30533W        W46342   1.970   9.544   4.300 -0.2357  0.0218 -0.2461
30534W        W46343   9.798   5.853   2.516  0.1619  0.0084  0.0494
30535W        W46344   6.843   0.351   0.323  0.0272  0.0622 -0.0826
30536W        W46345  11.146  13.465   5.544 -0.0925 -0.0894 -0.0978
30537W        W46346  12.439   7.182  12.683 -0.0043 -0.2778 -0.2090
30538W        W46347  10.394  11.957   4.842  0.0840  0.1618 -0.1153
30539W        W46348  15.275  18.203   5.994 -0.1949  0.2477 -0.1030
30540W        W46349  15.044   8.895   0.990  0.3937 -0.0157 -0.1958
30541W        W46350   0.551   7.657  13.172 -0.1867 -0.1472  0.1173
30542W        W46351   5.187   2.675  15.818  0.0817 -0.4307  0.1330
30543W        W46352   2.174   9.387  12.019  0.3988  0.0031 -0.1222
30544W        W46353  13.284  12.961   1.096  0.0785  0.1075 -0.2915
30545W        W46354   5.859  16.084  11.726  0.0126  0.0480 -0.0432
30546W        W46355  17.361   2.985  11.982 -0.2414  0.0933  0.1060
30547W        W46356   1.608  10.261  12.449 -0.2866  0.3003  0.2518
30548W        W46357   6.463  15.128   0.409 -0.0487 -0.2184  0.0458
30549W        W46358   8.122  14.869   3.718  0.0686  0.0503  0.1881
30550W        W46359  17.243   6.890   0.305 -0.0280  0.1664  0.2003
30551W        W46360  16.697  15.987   1.858  0.0321 -0.2141 -0.2009
30552W        W46361   7.667   4.285   1.590  0.2279 -0.0092  0.1872
30553W        W46362  11.862   4.438   2.727  0.0096 -0.1374  0.0717
30554W        W46363  14.985   0.979   4.987  0.1588 -0.2531  0.3011
30555W        W46364  14.282   8.250   1.911  0.0578 -0.1732 -0.0885
30556W        W46365  17.799  10.012   4.887 -0.3190 -0.1052  0.1837
30557W        W46366  14.267   7.466   3.542  0.4267  0.1140  0.0492
30558W        W46367  10.996  15.971  15.774  0.0425  0.1285 -0.0258
30559W        W46368  13.300  14.910   0.345 -0.0026  0.0899 -0.1845
30560W        W46369   4.029   9.272  12.733 -0.2762 -0.3958  0.0523
30561W        W46370  13.817  15.364  15.325 -0.0911  0.1467  0.2965
30562W        W46371   7.449   4.755  14.249 -0.0967  0.0793 -0.2883
30563W        W46372  10.465  15.678   4.767  0.3707 -0.0511 -0.2025
30564W        W46373   1.589   0.222  13.585 -0.0512 -0.2206 -0.0733
30565W        W46374   9.815  11.003  12.216 -0.0760 -0.2783 -0.1072
30566W        W46375   5.612  10.823  14.386  0.2035  0.0366  0.1955
30567W        W46376   0.364   3.160  15.491 -0.0365 -0.0882  0.0287
30568W        W46377  16.453  17.516   5.054  0.3247 -0.1402 -0.0969
30569W        W46378  12.436   2.482   3.267 -0.1700 -0.0312  0.1622
30570W        W46379   1.992  11.063   1.648 -0.0079  0.2885  0.0615
30571W        W46380   8.531   3.759  13.005 -0.1864  0.2718  0.0130
30572W        W46381   6.541  12.715  14.898 -0.2007  0.0575 -0.1961
30573W        W46382  15.381   0.779   5.269 -0.0847  0.0895 -0.1084
30574W        W46383   7.071   0.168  11.955  0.0950  0.0266 -0.0104
30575W        W46384  11.274  15.459   2.406 -0.1824 -0.3334 -0.2493
30576W        W46385  13.083   5.291  14.167  0.0600 -0.1019  0.0497
30577W        W46386   1.823  14.302  10.678  0.2110 -0.1959  0.0614
30578W        W46387   8.994   3.873  13.042 -0.3771 -0.1370 -0.1375
30579W        W46388  10.741  11.301   0.820 -0.1607 -0.1146 -0.0424
30580W        W46389  14.352  17.521   3.638  0.1947 -0.1732  0.0062
30581W        W46390   4.168  17.726  13.251  0.0368 -0.1895  0.1724
30582W        W46391  13.286   0.211  15.333 -0.1242 -0.0556  0.0105
30583W        W46392   9.525  11.387  13.439  0.0618  0.3126 -0.1881
30584W        W46393  15.424  17.549   5.331 -0.0321 -0.1653 -0.1108
30585W        W46394   9.763   4.436  10.942 -0.1496  0.2240  0.1243
30586W        W46395  12.273   3.455   4.786 -0.1609  0.2501 -0.0946
30587W        W46396  16.940  15.555  15.673 -0.1905 -0.1556  0.3365
30588W        W46397   1.340   0.673   2.702  0.0127  0.0540  0.0178
30589W        W46398  14.010   5.254   2.534  0.1236 -0.0996 -0.0481
30590W        W46399   3.449   9.857  15.165  0.2577  0.1059 -0.3676
30591W        W46400   7.582   7.306  12.072 -0.0768 -0.2842 -0.3000
30592W        W46401   8.186   0.044  15.199  0.1124 -0.4960  0.2975
30593W        W46402   3.774   0.498  13.458 -0.0738 -0.0647  0.1350
30594W        W46403   8.691  14.130  14.657 -0.0630 -0.0746  0.1844
30595W        W46404   9.850  16.626  11.384 -0.1670  0.1235 -0.0221
30596W        W46405  11.276   5.460   1.688 -0.1279  0.1973  0.0019
30597W        W46406   4.435   3.995   1.385 -0.0257 -0.0270  0.1297
30598W        W46407   6.890  17.166  13.453  0.0491  0.1244 -0.1181
30599W        W46408  16.422  10.285   4.558 -0.0619  0.1010 -0.0099
30600W        W46409   8.373  10.292  10.723 -0.1269  0.0928  0.2183
30601W        W46410  11.378  15.354  12.331 -0.0124  0.0441 -0.2687
30602W        W46411  12.066   6.230  15.489  0.0048 -0.1003 -0.0139
30603W        W46412  10.486   1.672   4.381 -0.1605  0.0419  0.2056
30604W        W46413  14.489   6.997   1.925  0.0405  0.0138  0.1707
30605W        W46414   2.049   8.303   2.860 -0.0181  0.0543  0.0651
30606W        W46415   7.113   7.016  14.251 -0.1548  0.2460  0.2647
30607W        W46416   2.935  10.724   3.297 -0.2979  0.0319 -0.1845
30608W        W46417  12.753  10.368  10.965  0.1390 -0.1633  0.3625
30609W        W46418   0.974  11.486   2.967 -0.1055  0.1035 -0.0004
30610W        W46419   3.782  15.461   5.273 -0.3891 -0.0711  0.0259
30611W        W46420  12.120   9.815   2.795 -0.0656  0.0884 -0.3087
30612W        W46421   9.749   1.724   5.680  0.1947  0.0701  0.3343
30613W        W46422  17.876   4.281  14.546  0.0936  0.2284 -0.3280
30614W        W46423  15.656   8.992  11.594  0.0361 -0.1293  0.0374
30615W        W46424   1.363  11.979   3.270  0.0620  0.0360 -0.0366
30616W        W46425   8.883   3.600   0.827 -0.1499 -0.0820 -0.1090
30617W        W46426   3.680   6.204   0.675  0.0698 -0.1562  0.0118
30618W        W46427   9.492  16.043  12.444 -0.1197  0.0037 -0.0413
30619W        W46428   6.269   6.180  12.191 -0.1356 -0.2600 -0.0994
30620W        W46429   6.326  10.014  13.116 -0.0161 -0.0540 -0.2507
30621W        W46430  15.067   0.563   1.951  0.2131  0.3038 -0.2931
30622W        W46431  16.634  17.009   3.110  0.1393  0.2644  0.1315
30623W        W46432   0.942   7.499  11.301 -0.2526 -0.1687 -0.1906
30624W        W46433   1.637   4.366  15.996  0.1217 -0.1191 -0.2455
30625W        W46434   2.728   7.703   0.341  0.0376  0.1981 -0.1548
30626W        W46435   8.757   6.353  14.548  0.2007 -0.0833 -0.1054
30627W        W46436  15.028   7.651   5.507  0.2632 -0.1678 -0.3319
30628W        W46437   2.484  17.474   5.268  0.0247 -0.2528 -0.1861
30629W        W46438   9.161   2.788   4.899  0.0553 -0.1186  0.0881
30630W        W46439   4.465  13.520  14.592 -0.1309 -0.0391 -0.3232
30631W        W46440   8.458   3.212  15.799 -0.2047 -0.2223  0.1445
30632W        W46441  15.697  15.385  12.357  0.0471  0.2933 -0.0440
30633W        W46442  11.043   3.621   5.703 -0.1922  0.0571  0.0700
30634W        W46443   7.942   0.342  15.896  0.0847  0.2601 -0.0546
30635W        W46444  12.478  15.314   0.913 -0.0431 -0.0887 -0.1538
30636W        W46445   4.236  18.189   5.298 -0.3505 -0.0957  0.3579
30637W        W46446  16.730  11.334   0.562  0.1631 -0.4564  0.2228
30638W        W46447  14.243   6.417  15.317 -0.1909  0.0713  0.2640
30639W        W46448  18.074   2.494   0.388 -0.0543  0.2478  0.2387
30640W        W46449  11.705   0.869   2.561  0.0339 -0.1757 -0.0340
30641W        W46450  12.150  10.868  10.572 -0.1763 -0.2591 -0.0196
30642W        W46451   9.471  14.157   1.296  0.0077 -0.2601 -0.2315
30643W        W46452  15.573   0.966  15.832  0.1688 -0.0367  0.0335
30644W        W46453   8.091   2.003  10.791 -0.0658 -0.0728  0.1751
30645W        W46454  13.333  15.638   1.613  0.0400 -0.1453  0.2725
30646W        W46455   3.584  14.891   1.179 -0.0407 -0.1005 -0.1072
30647W        W46456  15.563  16.603  13.118 -0.1435 -0.1886  0.1733
30648W        W46457  11.889  15.759  12.398  0.4644  0.1758  0.0850
30649W        W46458  17.889   2.773   5.628 -0.0417 -0.1123  0.1562
30650W        W46459  10.862   2.495  16.357  0.1533 -0.2888  0.3452
30651W        W46460  12.055   2.845  11.815 -0.0864  0.2838  0.1852
30652W        W46461  17.871   4.565   5.393  0.2942  0.0642  0.0108
30653W        W46462   3.766   4.952   3.883 -0.2295  0.0621  0.1115
30654W        W46463  16.787   6.523   3.422 -0.4033  0.1641 -0.0119
30655W        W46464  12.712   8.509   4.339 -0.2819  0.2811 -0.3156
30656W        W46465   6.059   9.616   4.538  0.1554  0.0312  0.2641
30657W        W46466   7.253   2.999   0.303 -0.1075 -0.0287 -0.4049
30658W        W46467  12.866   1.033   1.841  0.0663 -0.1506  0.1376
30659W        W46468   5.590   6.560  13.974 -0.0370 -0.1303 -0.0327
30660W        W46469  16.502   6.183   4.986 -0.3994  0.1914  0.1807
30661W        W46470   2.315  16.977   3.452  0.0298  0.3721  0.1768
30662W        W46471   0.113  15.360  13.308  0.0703  0.0287 -0.1579
30663W        W46472  14.277   0.319  16.126  0.1021 -0.0483 -0.2629
30664W        W46473   7.662   3.781   1.602 -0.1472 -0.1547 -0.0257
30665W        W46474   7.247   8.350  14.691  0.0642 -0.1038 -0.0428
30666W        W46475  11.506  11.724  16.186  0.2513  0.0508 -0.0625
30667W        W46476   1.320   2.795  15.409 -0.5385  0.0089  0.0410
30668W        W46477  14.784   8.513  15.502  0.0070 -0.0198  0.0597
30669W        W46478  13.416   8.699   1.092  0.1864 -0.1994  0.1732
30670W        W46479   8.854   9.503  16.181  0.0203 -0.3490 -0.2409
30671W        W46480   2.701  15.105   2.121  0.1514  0.0996  0.4329
30672W        W46481  12.183   9.112  14.098  0.1482 -0.0238 -0.2213
30673W        W46482   3.892   5.177   6.324 -0.1368  0.1055 -0.0835
30674W        W46483   2.974  10.906   5.708  0.1661 -0.3572 -0.0370
30675W        W46484  12.562  16.806   5.889 -0.1484 -0.1587  0.1076
30676W        W46485   7.571   2.116   2.572  0.1094  0.2721 -0.2754
30677W        W46486   9.284   1.931   3.112  0.0829 -0.0469  0.0114
30678W        W46487   1.855   6.600   4.432 -0.0602 -0.2666  0.0619
30679W        W46488   0.680   4.589  15.266 -0.1767  0.1364 -0.0508
30680W        W46489   5.645  10.444   1.281 -0.0057  0.1571  0.0976
30681W        W46490  17.090   5.479   2.159  0.4048 -0.1018 -0.1955
30682W        W46491   0.382  17.030  13.027 -0.1423 -0.0782  0.0058
30683W        W46492  10.264   9.555   5.074  0.0608  0.1994 -0.0878
30684W        W46493  14.202  15.895   0.050  0.0995  0.3579  0.3362
30685W        W46494  13.623   6.763  12.872  0.0581  0.1011  0.2051
30686W        W46495  11.488   1.734  12.702  0.1687 -0.0348 -0.1087
30687W        W46496   8.029   7.931  14.778  0.0765 -0.1720 -0.2480
30688W        W46497  15.498   9.247  13.912  0.2050  0.0496  0.1172
30689W        W46498  13.387  12.458   3.946  0.1822 -0.1000  0.2914
30690W        W46499  13.637   6.181  13.408  0.0227  0.1350 -0.0061
30691W        W46500  12.685   8.001   1.176  0.0142 -0.0801 -0.2604
30692W        W46501   6.895  18.065   4.400 -0.0153  0.0770  0.1121
30693W        W46502   6.528   4.185  13.609  0.4474 -0.0934 -0.1298
30694W        W46503  14.348  14.823  15.503 -0.0103 -0.0025  0.1949
30695W        W46504   1.854   0.240  16.355 -0.2148 -0.2085 -0.1008
30696W        W46505  14.338   8.299  14.692  0.3264 -0.1282 -0.5580
30697W        W46506  14.953  12.610  14.578  0.0206 -0.4450 -0.0427
30698W        W46507   3.827   5.935  14.163 -0.0071  0.0141  0.2503
30699W        W46508   0.369  16.822  15.405 -0.1692  0.1815  0.2203
30700W        W46509   0.826  16.428  11.401  0.1916 -0.1394  0.0015
30701W        W46510  12.689   2.844  16.273 -0.0343 -0.0989  0.2089
30702W        W46511  15.402   8.481  14.180  0.0202 -0.1798  0.0894
30703W        W46512   1.486  11.774   0.981  0.2351 -0.0730 -0.1051
30704W        W46513  10.592  13.145  12.418 -0.1534 -0.2526  0.1769
30705W        W46514   7.954  10.224   3.000 -0.0260  0.1213 -0.0383
30706W        W46515   6.217   5.179  13.312 -0.3692 -0.0497  0.2423
30707W        W46516   8.034   6.448   2.604 -0.2046 -0.0033  0.2896
30708W        W46517  14.972   3.890  12.888 -0.2553 -0.0905 -0.0744
30709W        W46518   7.213  13.816   2.918 -0.0065 -0.1299 -0.0802
30710W        W46519   9.721  11.939  11.976 -0.0473  0.1092  0.1174
30711W        W46520  16.318  17.541  11.710 -0.1963  0.1208  0.0467
30712W        W46521   0.085  16.580  12.650 -0.0188 -0.1649  0.1530
30713W        W46522   3.258   2.774  16.043  0.0173 -0.0734  0.2767
30714W        W46523  13.722   4.478   1.646 -0.2170  0.2338 -0.0552
30715W        W46524  15.900  15.515  14.788 -0.4347 -0.0210 -0.1956
30716W        W46525   7.781   2.835  16.308  0.0180 -0.2295  0.2487
30717W        W46526   7.128   1.216   3.474 -0.2504  0.1067  0.0236
30718W        W46527  16.442  12.294  15.492  0.0532  0.0238 -0.2719
30719W        W46528  17.570  11.777  13.561 -0.1521  0.2275 -0.1639
30720W        W46529  14.333  14.121   5.241  0.0282 -0.1352  0.0211
30721W        W46530   3.978   9.246   2.616  0.0631  0.1324  0.1362
30722W        W46531  14.624  14.816   3.078  0.1528 -0.2075  0.0100
30723W        W46532  12.485   9.739   4.086  0.0257 -0.3191 -0.0599
30724W        W46533   3.653   1.703  15.420 -0.0101  0.0236 -0.1206
30725W        W46534  10.692  17.315  10.500 -0.4065 -0.1949 -0.1546
30726W        W46535   2.128   2.365   1.112 -0.1149 -0.0926  0.0442
30727W        W46536  14.144   1.745   2.178 -0.1258  0.2449  0.2856
30728W        W46537   1.266   3.930  14.979 -0.0941 -0.1435 -0.2759
30729W        W46538   2.684  10.825  13.893  0.2179  0.2918  0.2703
30730W        W46539  10.546   9.818   4.645 -0.1924 -0.2759 -0.0575
30731W        W46540  17.136   7.418   4.993 -0.3666  0.0305  0.0675
30732W        W46541   2.129  15.756  15.984 -0.0920  0.1862  0.3069
30733W        W46542  12.584   6.577   1.045  0.2959 -0.0895  0.2857
30734W        W46543   2.196   1.171   4.050 -0.1349 -0.2405  0.1460
30735W        W46544   1.447   3.647  15.787 -0.3508 -0.0785 -0.0165
30736W        W46545  11.000   8.945   3.755  0.1032  0.4313 -0.4046
30737W        W46546  12.327   9.700  15.267  0.0186  0.0486 -0.1402
30738W        W46547   7.894  13.941  11.822  0.0746  0.2518 -0.4081
30739W        W46548  12.518   9.842   4.556 -0.2891 -0.3687 -0.0581
30740W        W46549   8.361   8.761   1.982 -0.1464  0.0763  0.0986
30741W        W46550   4.776  10.068   1.874 -0.4002 -0.1683 -0.0334
30742W        W46551  13.527   9.980  10.438  0.1734 -0.0276  0.1509
30743W        W46552   2.965   6.131  13.691 -0.0731  0.1543 -0.3604
30744W        W46553   9.220   1.403   2.328 -0.2831  0.1234 -0.0233
30745W        W46554   2.352  10.777   0.018 -0.1898  0.1440  0.0211
30746W        W46555   2.265  15.673   4.876  0.0577  0.0731  0.2081
30747W        W46556   0.318   4.269   0.141 -0.0279 -0.0598  0.0214
30748W        W46557   6.190   2.464  11.454  0.2078 -0.3257 -0.2986
30749W        W46558  17.537  10.931  11.312  0.0369 -0.1193  0.0151
30750W        W46559  11.095  16.560   0.596  0.2601 -0.0096  0.1164
30751W        W46560  17.112   6.172   4.586 -0.0487 -0.2341  0.0695
30752W        W46561   4.744  14.594  14.214 -0.0902 -0.2360 -0.0819
30753W        W46562   0.838   1.007  12.672 -0.3461  0.3565 -0.0806
30754W        W46563  10.456  12.782   3.876 -0.0547 -0.4587 -0.1278
30755W        W46564  10.536   8.048  10.909 -0.1507  0.3977  0.0177
30756W        W46565   0.535   3.536   2.245 -0.0726  0.0777 -0.0219
30757W        W46566  16.827   4.002  13.883 -0.0091 -0.0949  0.1128
30758W        W46567   8.969  13.848  14.315  0.0642  0.1667 -0.1152
30759W        W46568  17.177   0.010   4.241 -0.1376  0.2326 -0.0563
30760W        W46569  15.916   7.457  12.255 -0.1247 -0.1373 -0.0150
30761W        W46570  10.489   5.154  15.741  0.0199  0.0073  0.3147
30762W        W46571   2.144  11.805  12.561 -0.2379  0.1764 -0.0682
30763W        W46572  13.830   8.662   9.701  0.2290 -0.1156 -0.1691
30764W        W46573   7.093  13.254   5.485  0.2553 -0.0740  0.0749
30765W        W46574  12.500  16.174  14.908 -0.0153  0.1958 -0.1838
30766W        W46575  14.350  12.867  16.345 -0.0345 -0.0831  0.1208
30767W        W46576   6.772   4.901   1.833  0.0621 -0.0388 -0.0255
30768W        W46577   5.132   2.064  14.381  0.2797 -0.1983  0.1113
30769W        W46578   5.673   2.941   4.453  0.1869  0.0601  0.0382
30770W        W46579   0.072   4.179   2.616 -0.0634 -0.4804 -0.0947
30771W        W46580   9.038  17.311   1.323 -0.4452  0.1915 -0.1842
30772W        W46581   1.137  16.914   4.569  0.0819  0.0764 -0.0765
30773W        W46582  17.020   9.954  13.055 -0.1692 -0.0707  0.1335
30774W        W46583  11.104   8.044  10.799 -0.4006  0.0218 -0.0149
30775W        W46584   8.064   4.661   4.955 -0.0091 -0.0874 -0.1565
30776W        W46585  17.736   3.860   3.886  0.2473 -0.0944 -0.0413
30777W        W46586   2.569   9.240  15.439 -0.1895  0.2284  0.0962
30778W        W46587  16.122  10.444  11.475  0.1219  0.2743 -0.1001
30779W        W46588   6.092   9.545  16.215  0.0309 -0.0874  0.2451
30780W        W46589   4.446   8.689  12.538 -0.1479 -0.3026 -0.0725
30781W        W46590  12.407   6.820  12.402  0.1980  0.2011  0.2679
30782W        W46591  14.789   1.981   5.029  0.0345 -0.1751  0.0778
30783W        W46592   9.045   5.613   2.105 -0.2282  0.0397 -0.0288
30784W        W46593  13.140  14.089  12.734  0.0342 -0.2747  0.1761
30785W        W46594   4.910   7.826   4.349 -0.1580  0.0778 -0.5182
30786W        W46595   1.998   1.176   2.794 -0.0909  0.1007 -0.1167
30787W        W46596  10.667  16.004  14.634 -0.0736  0.2503 -0.0860
30788W        W46597   3.984   8.020  15.349  0.2968 -0.1487  0.0747
30789W        W46598  13.787  11.098  14.482  0.0021  0.1374  0.0988
30790W        W46599   7.832   1.982  13.372  0.1398  0.0453 -0.0618
30791W        W46600   4.900   8.622   2.434 -0.2694 -0.1965  0.0656
30792W        W46601   6.171   3.299  12.586  0.1348 -0.0500 -0.1550
30793W        W46602   7.787   9.874   3.605 -0.1330 -0.0373 -0.1203
30794W        W46603  15.272   1.659   2.786 -0.0188 -0.0140  0.0359
30795W        W46604  10.539   2.423  11.489 -0.0628 -0.0015 -0.0612
30796W        W46605   6.591  13.866  15.910  0.1469 -0.1178  0.0362
30797W        W46606  16.414  12.649   2.892  0.0582  0.1903 -0.1446
30798W        W46607   0.553  14.620  11.208 -0.0207 -0.0012  0.1451
30799W        W46608   1.342  17.148  11.277  0.0811  0.0299  0.1070
30800W        W46609   5.537   8.389  16.088  0.0990 -0.1135 -0.3666
30801W        W46610  11.247  16.201  15.242 -0.0579  0.0229  0.2130
30802W        W46611   3.508   8.068   1.223  0.1486 -0.1596 -0.1367
30803W        W46612   0.602   0.106  12.005  0.1449 -0.1450  0.2488
30804W        W46613   8.292  16.959   3.328 -0.1978 -0.2952 -0.1653
30805W        W46614  10.009   5.611   2.925 -0.3111 -0.2970  0.1472
30806W        W46615   2.033   9.927  15.575 -0.1184 -0.2262  0.1983
30807W        W46616  15.748  13.227  13.484  0.0147 -0.1288 -0.1692
30808W        W46617   9.357   2.111   0.922  0.1011 -0.3168  0.3079
30809W        W46618   4.998  12.007   0.556  0.1457 -0.0414 -0.0730
30810W        W46619   3.885  17.045  14.744 -0.0472 -0.3154 -0.1132
30811W        W46620  11.764   5.010   5.270 -0.3533  0.0781  0.1542
30812W        W46621  17.139   1.375   0.192 -0.1192 -0.1283  0.1002
30813W        W46622   6.292   2.291   5.656 -0.1004  0.0774  0.0210
30814W        W46623  17.280  13.014  13.305 -0.0404  0.0421  0.2096
30815W        W46624   5.761  12.286   1.836  0.1474 -0.1458  0.0264
30816W        W46625   7.468   0.675  10.703 -0.2736 -0.0745  0.0809
30817W        W46626   1.034  17.059   0.912 -0.2392  0.2804  0.0979
30818W        W46627  14.438  12.929   1.432 -0.4251  0.1016  0.0429
30819W        W46628   9.282   9.085  14.784 -0.1390  0.1671 -0.1482
30820W        W46629  16.374  14.921  12.468 -0.1405 -0.2769 -0.0212
30821W        W46630   8.195   1.595  13.351  0.2985  0.1455  0.0286
30822W        W46631  10.015  10.439   3.286  0.1875  0.0948  0.0390
30823W        W46632  17.584   0.614   5.251 -0.1453  0.3247 -0.1644
30824W        W46633   5.498   6.117  12.673 -0.0978  0.0747 -0.0368
30825W        W46634   4.635  10.627  13.088 -0.2257  0.0052 -0.0767
30826W        W46635  17.946  17.976  12.129 -0.2260 -0.0168 -0.1335
30827W        W46636   2.685  12.279   3.222  0.1265  0.0110 -0.2935
30828W        W46637   3.643   3.697   0.987  0.1050 -0.0797 -0.2355
30829W        W46638   9.627   8.379  16.346 -0.3989 -0.0847  0.0668
30830W        W46639   3.977   2.825  11.344  0.0461 -0.0392  0.0024
30831W        W46640   7.536  13.304  14.660 -0.1445 -0.3326 -0.0292
30832W        W46641  15.185   1.442   0.564  0.0059 -0.0759  0.1143
30833W        W46642  16.122   7.266  15.271  0.0632  0.2017 -0.2665
30834W        W46643  17.138   5.949  15.061 -0.2810 -0.0259  0.1459
30835W        W46644   0.953   2.758   0.930 -0.1961 -0.1151 -0.2976
30836W        W46645  12.680   1.085   2.817 -0.1276 -0.1152  0.2873
30837W        W46646  12.837  18.147  10.963 -0.3973  0.3733 -0.0176
30838W        W46647  16.286  13.934   2.793  0.0288 -0.1957 -0.2834
30839W        W46648   2.399  13.186   0.923 -0.0536 -0.1949  0.1056
30840W        W46649   6.372   3.764  13.897  0.0838  0.1441 -0.3271
30841W        W46650   1.769  15.091   3.587  0.2196 -0.0833 -0.0485
30842W        W46651   6.795  11.617  11.605 -0.0843  0.0533 -0.1591
30843W        W46652  12.155   9.591   1.549  0.3633 -0.1066  0.1817
30844W        W46653   9.168  14.328   2.574 -0.4517 -0.3530 -0.2052
30845W        W46654  14.085   0.087   3.075  0.0350  0.3236  0.0000
30846W        W46655  18.141   4.568   4.431 -0.0500 -0.0844  0.1401
30847W        W46656  15.318  10.239  16.164  0.1840 -0.3567 -0.1577
30848W        W46657   2.057  10.114  14.370  0.1080  0.3674 -0.0671
30849W        W46658  13.934  12.676   2.732  0.3815  0.1957 -0.1301
30850W        W46659  15.174   3.716   3.480  0.0622 -0.1938 -0.2170
30851W        W46660   0.683  16.449  15.375 -0.0392  0.2543  0.1316
30852W        W46661  14.518  12.584   1.821 -0.0514 -0.2060  0.1763
30853W        W46662   3.956   3.100  14.383  0.2461 -0.0844 -0.1868
30854W        W46663  14.070  14.594   5.255 -0.2015 -0.0029  0.3082
30855W        W46664   3.560   0.275   1.928  0.2721  0.3806 -0.0916
30856W        W46665   3.415   4.719  10.950 -0.2758  0.0793  0.0963
30857W        W46666   0.709   7.653   6.000  0.2338  0.5423 -0.1962
30858W        W46667   8.001  16.341   4.737 -0.0650  0.2601 -0.1874
30859W        W46668   4.795   5.625   0.097 -0.1336 -0.1481  0.2357
30860W        W46669   0.102   1.779  16.097 -0.1720  0.1651  0.2842
30861W        W46670   4.872  17.139   4.452  0.0997 -0.0433 -0.0389
30862W        W46671   6.622   6.379  11.853 -0.0400  0.0098 -0.0611
30863W        W46672   0.071   3.389  13.741  0.0962  0.3172 -0.2158
30864W        W46673   8.468  10.210  11.762  0.0022  0.2037  0.0338
30865W        W46674   7.421   7.177   5.366  0.3693 -0.0339 -0.1285
30866W        W46675   9.115   7.322   3.384  0.3403 -0.3905 -0.0461
30867W        W46676   5.833   2.201   1.016 -0.4279 -0.3181  0.0463
30868W        W46677  11.566   9.570   3.662 -0.0665  0.0966  0.0095
30869W        W46678  11.995   9.002   0.444  0.2444  0.2132  0.1137
30870W        W46679  12.870   4.865   0.407 -0.0969 -0.1106  0.0788
30871W        W46680   8.472   7.704   3.223  0.0577  0.1939  0.2205
30872W        W46681  17.971  17.608   3.240  0.1028  0.1067 -0.0970
30873W        W46682   7.866   9.118   0.690 -0.2685  0.0445  0.2104
30874W        W46683   0.615  15.995  16.065 -0.1540 -0.0375  0.1194
30875W        W46684  11.418  16.101  11.657 -0.1942  0.1692  0.1046
30876W        W46685  16.711  14.737   1.183  0.0231 -0.2135  0.1996
30877W        W46686  15.259   1.747  13.731 -0.2813  0.3736 -0.0555
30878W        W46687  11.656   0.342   0.793  0.0512  0.2794  0.1099
30879W        W46688   6.716   5.836   0.694 -0.1318  0.2461 -0.1903
30880W        W46689   9.028   9.268   0.636 -0.1120 -0.1464 -0.2218
30881W        W46690   9.786  12.923   1.631  0.0822 -0.4074  0.0584
30882W        W46691  11.929  15.991   6.062  0.3684 -0.2293  0.0373
30883W        W46692   4.002   3.665   1.382 -0.1750 -0.4823  0.0072
30884W        W46693  12.980   3.966   0.571 -0.0183  0.0632  0.2348
30885W        W46694  16.629  11.008  14.220  0.0753 -0.1306 -0.1526
30886W        W46695   9.189  10.509   3.593  0.1513 -0.2367 -0.3671
30887W        W46696  10.854  15.656  13.819  0.1921 -0.0234  0.0126
30888W        W46697   4.940   8.401   6.217  0.0627 -0.0491 -0.3625
30889W        W46698   1.705  14.107  15.095 -0.2463 -0.2063  0.1235
30890W        W46699  13.991  17.023   6.334 -0.4529 -0.0868 -0.1477
30891W        W46700  17.961   6.274  11.856 -0.0990 -0.2573  0.0836
30892W        W46701   2.709   1.321  12.866 -0.2124 -0.1392  0.0995
30893W        W46702   2.031  17.666   2.431  0.2022 -0.1394 -0.4526
30894W        W46703   2.174   7.369  14.583 -0.3159  0.2055 -0.1549
30895W        W46704   1.399   2.074   2.895  0.0652  0.1177  0.1287
30896W        W46705   4.729  12.125  11.694  0.3378  0.1818 -0.2854
30897W        W46706  16.190   2.907  13.668 -0.0518 -0.0976 -0.1830
30898W        W46707   2.178  10.862   4.706  0.0751 -0.1148 -0.0595
30899W        W46708  10.138   7.251   0.498 -0.0308  0.0074  0.1902
30900W        W46709   5.189   6.190   2.733 -0.0938 -0.1203 -0.0040
30901W        W46710  12.736   6.735   0.626  0.0434 -0.1854  0.0528
30902W        W46711  13.620   6.272   4.123  0.0614  0.0472  0.3575
30903W        W46712   2.650  14.436   4.437 -0.1649 -0.1403  0.1881
30904W        W46713   2.019  14.895  12.350  0.0359  0.1066 -0.1985
30905W        W46714   9.446   3.449   3.448  0.1651  0.1159 -0.1169
30906W        W46715  17.022   0.235  14.802 -0.2799  0.0237  0.1751
30907W        W46716  10.551  15.676  15.448 -0.0129  0.1930 -0.0835
30908W        W46717  15.746  16.356  11.656 -0.1179  0.2113 -0.1155
30909W        W46718   0.884  11.329   3.455  0.0262 -0.0123 -0.0469
30910W        W46719   1.348   6.166  13.895 -0.0388  0.4925  0.0029
30911W        W46720   8.155   8.373  15.748 -0.0493  0.3243 -0.0494
30912W        W46721   0.208  11.477  12.444 -0.0698  0.0734  0.0173
30913W        W46722  11.759  11.437  13.345 -0.1142 -0.0580 -0.3829
30914W        W46723  15.519  16.220   3.790 -0.3872  0.2373 -0.0224
30915W        W46724  15.300  14.310   4.465 -0.1182  0.0563 -0.0331
30916W        W46725  16.610  11.395   0.084 -0.2131  0.2156 -0.5725
30917W        W46726   4.813  11.311  11.919 -0.3324 -0.0478  0.1066
30918W        W46727   2.495  11.302   0.350  0.1528 -0.1454 -0.3377
30919W        W46728  14.738   5.145  11.159  0.0507 -0.0731  0.2445
30920W        W46729  15.583   1.046  11.685 -0.0593  0.0152 -0.3095
30921W        W46730   8.418  17.719  10.952 -0.1685 -0.0935 -0.0085
30922W        W46731   1.230  13.905   3.148  0.2107 -0.2161 -0.0393
30923W        W46732  12.345  12.170  12.113  0.1057  0.1347 -0.2742
30924W        W46733  11.100   4.749  15.841 -0.0998 -0.4354  0.1271
30925W        W46734  12.700  16.815  13.809 -0.2271  0.0201  0.0426
30926W        W46735  12.605   0.069   5.966  0.0419 -0.0127 -0.1613
30927W        W46736   5.686   7.448   1.534  0.0314 -0.1857 -0.5420
30928W        W46737   7.187   5.293  11.280 -0.0090  0.1996  0.0168
30929W        W46738  11.639   9.039   1.472  0.1304  0.0507  0.1124
30930W        W46739  17.430   3.535   0.608  0.2219  0.0301  0.1542
30931W        W46740  13.716   1.555  11.015  0.2101 -0.0893  0.0920
30932W        W46741  12.552  13.753  13.105  0.2135 -0.2713  0.4116
30933W        W46742  15.130  11.825   6.248  0.0840  0.3766 -0.0259
30934W        W46743   8.247   9.084  15.313  0.1317 -0.1099 -0.0789
30935W        W46744  14.214  16.620  12.752  0.1184 -0.1296  0.0189
30936W        W46745   8.688   2.071  12.820  0.0470  0.1834  0.1609
30937W        W46746  14.146  13.736  15.863 -0.0773 -0.0584 -0.1177
30938W        W46747   6.863  11.358   2.336 -0.0394 -0.1548  0.0623
30939W        W46748  11.972   9.621  16.165  0.0644  0.0729  0.3151
30940W        W46749  13.694  13.428  16.305 -0.3429 -0.0972 -0.2315
30941W        W46750   2.783   3.526   1.248 -0.3862 -0.1390 -0.0355
30942W        W46751   5.679   5.436  15.818 -0.3240  0.1816  0.3922
30943W        W46752  10.433   4.893   0.948 -0.1802  0.3277 -0.1542
30944W        W46753  11.807  17.036  14.859 -0.1470  0.1277 -0.0284
30945W        W46754  12.427  14.247  15.943  0.2059  0.2317 -0.1673
30946W        W46755   1.963   8.184  11.107  0.0591  0.1035  0.1078
30947W        W46756  16.558   7.094  15.068  0.0423  0.3675  0.2473
30948W        W46757  11.682   7.104  13.433  0.0412 -0.0126  0.0115
30949W        W46758   7.149   0.472   5.061  0.2691 -0.3403  0.0065
30950W        W46759  16.735  12.204   4.716 -0.1483  0.1622 -0.1682
30951W        W46760  12.348   6.754  12.886 -0.1139 -0.0429 -0.0422
30952W        W46761   1.925   9.285  14.083  0.0317 -0.2425  0.0937
30953W        W46762  17.382  15.564  11.334 -0.3060  0.1700  0.5328
30954W        W46763   3.084   1.085   2.703  0.1576  0.2240  0.4487
30955W        W46764   2.156   0.383   2.312  0.1387  0.1958 -0.1070
30956W        W46765  17.003  14.681   4.479  0.1905  0.0082 -0.0935
30957W        W46766   1.988  15.809   2.840  0.3576  0.2765 -0.0285
30958W        W46767   5.391   6.517   1.802  0.2062  0.0250 -0.0525
30959W        W46768   5.081   9.385  13.211  0.3223  0.1555  0.0139
30960W        W46769  15.751  13.244  15.272 -0.1575 -0.2949  0.1099
30961W        W46770   9.842  11.348   2.960  0.0749  0.1641 -0.0443
30962W        W46771  13.193   3.230   1.945  0.1039 -0.1553  0.1552
30963W        W46772   5.881  17.232  11.198  0.2331 -0.0043 -0.3669
30964W        W46773   2.398   7.915   5.538 -0.0929  0.1643 -0.0558
30965W        W46774   4.577   1.236  11.463 -0.0988  0.1416 -0.3994
30966W        W46775  10.046   9.682  11.932 -0.1067  0.1918 -0.0119
30967W        W46776   2.279  11.966   4.507 -0.1647 -0.1097 -0.5214
30968W        W46777  12.403   5.976   1.762 -0.0842  0.0774  0.2028
30969W        W46778   4.250   9.574   0.840 -0.1374  0.1137 -0.1645
30970W        W46779   2.913  13.299   5.249 -0.0633  0.0502 -0.0396
30971W        W46780  14.282   4.150   0.844  0.0218  0.0475  0.0509
30972W        W46781   1.357  15.696   3.386  0.2383  0.0043 -0.0370
30973W        W46782  12.762   5.429   1.218  0.0593  0.1272 -0.0778
30974W        W46783   3.887   7.643   5.374  0.0077 -0.1128 -0.0160
30975W        W46784  12.595  13.633   2.796  0.1678  0.2394  0.0296
30976W        W46785   6.501   7.311  15.612 -0.2247 -0.0261 -0.2008
30977W        W46786   7.216   4.730   1.766 -0.0621 -0.2184 -0.0567
30978W        W46787  16.653   6.146  12.919  0.0059 -0.0559 -0.2214
30979W        W46788   9.879  17.394   2.056 -0.1534  0.2636 -0.0409
30980W        W46789   7.330  17.922  15.700  0.0805  0.2121 -0.0046
30981W        W46790  15.593  13.405  12.681 -0.2661 -0.1227 -0.1936
30982W        W46791   3.241   2.718   1.887  0.1794 -0.2047  0.0529
30983W        W46792  14.523  17.807  13.772 -0.0278 -0.1645 -0.1221
30984W        W46793  14.851   5.015  14.229  0.0019 -0.1339  0.0179
30985W        W46794  10.421  15.557  13.581  0.1360  0.2980  0.3340
30986W        W46795  12.442   1.130   3.829  0.1908  0.0589 -0.2784
30987W        W46796   8.718   8.335  16.022 -0.1495 -0.1531 -0.0078
30988W        W46797  11.749   9.231   0.074 -0.1576  0.3157 -0.1651
30989W        W46798  15.852  11.197  14.965  0.3131  0.0577  0.2015
30990W        W46799   7.636  10.629   5.343 -0.1202  0.2469  0.1100
30991W        W46800   8.624  16.362  14.215  0.0299 -0.1014 -0.2619
30992W        W46801   6.914   7.035   2.188  0.0098 -0.1243  0.0773
30993W        W46802   3.544  16.170  14.501 -0.3305  0.1701 -0.1824
30994W        W46803   1.600  14.789  12.594  0.0938 -0.3161  0.0174
30995W        W46804   9.214   6.123  16.060 -0.3092  0.1485 -0.0483
30996W        W46805   9.242  14.704  12.167 -0.0215  0.1580  0.0194
30997W        W46806   2.805  15.327  15.765  0.0328  0.2910  0.0120
30998W        W46807   6.378   2.339  14.681 -0.2122  0.3711 -0.0753
30999W        W46808   5.481  16.585   4.023 -0.0496 -0.0023  0.1180
31000W        W46809   8.219  10.205  14.234 -0.0898 -0.1363  0.1648
31001W        W46810  14.367  10.438  16.008 -0.0452 -0.0349  0.0930
31002W        W46811   5.103   4.123   4.788  0.2300 -0.0071 -0.0002
31003W        W46812   4.007  16.906   1.624 -0.0850 -0.1511  0.1283
31004W        W46813   4.664  11.031   2.671  0.2659  0.0840  0.3118
31005W        W46814   1.323   8.249   0.901  0.0052  0.2014  0.0452
31006W        W46815  11.238   6.831  14.693  0.1249 -0.0413  0.0008
31007W        W46816   1.147  15.825  11.341 -0.0123  0.1357  0.1758
31008W        W46817  13.203  12.418  15.703  0.0827  0.2695 -0.4337
31009W        W46818  16.910  18.028  16.048 -0.1025 -0.0383  0.3177
31010W        W46819   4.161  15.958  12.004  0.0508 -0.0431 -0.0210
31011W        W46820  12.165  14.474  13.796  0.2693  0.2589  0.2179
31012W        W46821  10.349  17.264  10.819 -0.0809 -0.2857  0.2939
31013W        W46822   8.093   3.783   3.780 -0.3412 -0.0626 -0.0719
31014W        W46823  14.205  17.502   6.372  0.1300 -0.0180 -0.0509
31015W        W46824   3.551   4.096   0.027  0.3174 -0.1948 -0.1563
31016W        W46825  10.369   9.968  13.311  0.0200 -0.0752  0.0984
31017W        W46826  17.418   0.724   2.429 -0.1410  0.1743 -0.1514
31018W        W46827   5.412  13.809  13.829 -0.1333  0.2849 -0.0812
31019W        W46828   3.634   5.808   3.498  0.0462 -0.0369  0.1159
31020W        W46829   9.949  12.286  13.035 -0.2735  0.0547  0.0788
31021W        W46830  18.144   5.130  13.042  0.0003 -0.1230  0.0093
31022W        W46831   9.841   7.518  13.962  0.1011  0.1898 -0.4260
31023W        W46832  15.306   8.183  11.884  0.2487 -0.0128  0.0650
31024W        W46833  10.220   8.702  12.235 -0.0380  0.2741  0.0205
31025W        W46834   3.740   2.131  14.937  0.1584  0.1728  0.0860
31026W        W46835  12.357   7.555   5.010 -0.0402  0.0173  0.1333
31027W        W46836  15.427  16.755   3.577 -0.1384 -0.0690 -0.1144
31028W        W46837  11.899  11.517  15.118 -0.1238 -0.0103  0.0504
31029W        W46838  16.401  11.882  12.330 -0.0890 -0.0250  0.2270
31030W        W46839  11.824   8.899  13.867 -0.0890  0.0205  0.0241
31031W        W46840   2.760  12.037   1.007 -0.0992 -0.0747  0.1801
31032W        W46841  13.424   1.487  12.576 -0.3398  0.2388  0.1542
31033W        W46842   6.661   8.318   4.623 -0.0963 -0.0208 -0.1909
31034W        W46843  16.502   4.313   4.974  0.3245  0.0161  0.3974
31035W        W46844   9.370  14.220  13.049 -0.0486 -0.0659  0.1942
31036W        W46845  14.208   3.358  15.166  0.1715  0.0468  0.0276
31037W        W46846  15.949  17.833  15.009 -0.2767  0.1421  0.1403
31038W        W46847   0.487  12.157   5.391 -0.0809 -0.1092  0.1323
31039W        W46848  11.281   5.737   4.799  0.1076  0.0002 -0.1466
31040W        W46849   8.121  10.911  11.993  0.0584 -0.0612 -0.1612
31041W        W46850  10.793  11.123   4.811  0.0498 -0.1154 -0.0624
31042W        W46851   4.689  15.240  12.637  0.0421  0.1876  0.2882
31043W        W46852  13.557   8.369   4.628  0.0643  0.1596 -0.0001
31044W        W46853   5.301   3.066  13.391  0.3373 -0.1514 -0.2994
31045W        W46854   9.152   8.432   2.266 -0.0114 -0.4652  0.1075
31046W        W46855  18.099   6.563   3.974  0.1782  0.0957 -0.1628
31047W        W46856  10.170   4.253  11.451 -0.0354  0.1130 -0.3090
31048W        W46857   1.713   5.908   0.937  0.2755 -0.0557 -0.3830
31049W        W46858  13.267   6.283   0.092  0.2645  0.1624  0.1825
31050W        W46859  12.902   2.423   0.020  0.0902 -0.1078  0.3027
31051W        W46860   9.543   6.153   3.453 -0.0071  0.0348  0.0877
31052W        W46861  10.923   3.803   2.401 -0.0362 -0.1038 -0.1949
31053W        W46862  12.318  12.855   4.233  0.0416 -0.0684 -0.1127
31054W        W46863  11.567  13.264  15.503 -0.0989 -0.1309 -0.0289
31055W        W46864  15.752   8.835  14.091  0.0009  0.2361 -0.0979
31056W        W46865  17.197   9.671  13.488 -0.1099  0.0218 -0.1703
31057W        W46866   7.441   2.256  13.539  0.1763 -0.3390  0.2446
31058W        W46867   1.914  12.430   5.745 -0.0371 -0.2448  0.1564
31059W        W46868  16.670  12.807   3.362 -0.0254  0.0098  0.2752
31060W        W46869   5.279  15.053  13.651 -0.0949 -0.2160  0.0686
31061W        W46870  17.796   1.742  13.891  0.3412  0.1075  0.1653
31062W        W46871  17.554   0.182   2.492  0.0286  0.2214 -0.0601
31063W        W46872   4.015   6.987  13.410 -0.1527 -0.0283 -0.0976
31064W        W46873  13.504   3.767  13.950  0.0158 -0.2034 -0.0716
31065W        W46874  10.501   5.609   5.772 -0.0642 -0.1742  0.1212
31066W        W46875  17.309   4.450  14.651 -0.2405 -0.1723 -0.0528
31067W        W46876  16.070  15.197   3.073 -0.1173 -0.1751  0.0967
31068W        W46877   7.191   9.801  11.820 -0.0928  0.1061  0.0268
31069W        W46878   9.460   2.371  16.262  0.0726 -0.1417 -0.1636
31070W        W46879   0.006  13.514   2.447  0.0088 -0.1324  0.2952
31071W        W46880  13.961   6.560   0.662  0.1049  0.0425 -0.1824
31072W        W46881  17.689  11.181   5.485  0.5244  0.2535  0.1880
31073W        W46882  16.456  15.537  11.650  0.4009  0.1550 -0.0397
31074W        W46883   3.790  10.731   2.750  0.0326  0.0513  0.1228
31075W        W46884  17.776   9.089   2.089 -0.1925 -0.0260 -0.1794
31076W        W46885   5.682   6.543   4.522  0.1926  0.1162 -0.0282
31077W        W46886  11.592  12.388   3.692 -0.2293 -0.1743  0.0611
31078W        W46887   8.097  13.578  10.382 -0.0559 -0.0052  0.0453
31079W        W46888  10.715   9.723   3.330 -0.0449 -0.1170  0.0447
31080W        W46889   9.060   2.688  14.611 -0.1022 -0.2226  0.2927
31081W        W46890  11.237   5.862   2.318  0.0320  0.1038  0.1547
31082W        W46891  18.040  14.126  15.419 -0.2048 -0.2354 -0.2988
31083W        W46892   3.454   7.322  14.834  0.2417 -0.0700 -0.2795
31084W        W46893   2.175   2.840   3.510 -0.2331 -0.1634  0.1893
31085W        W46894  14.504  12.106   3.825 -0.2980  0.1729  0.1701
31086W        W46895  15.039   8.326  12.599 -0.1695  0.1097 -0.1442
31087W        W46896   9.124   2.742  14.082  0.2745 -0.1830 -0.0198
31088W        W46897   8.879  16.288   0.547 -0.0894  0.2666 -0.0777
31089W        W46898  16.824  11.497  11.434 -0.0733 -0.0547  0.0248
31090W        W46899  15.326  12.104  13.948  0.0486 -0.0438  0.0227
31091W        W46900   4.869  16.756   4.149 -0.0627  0.0782 -0.0487
31092W        W46901  15.329  14.539   1.965  0.1113  0.3070  0.2209
31093W        W46902   0.296   9.804  15.898 -0.2947 -0.2477  0.0306
31094W        W46903   2.988   6.750  15.165 -0.2754 -0.1286 -0.3211
31095W        W46904  17.582   7.437  11.464  0.1568  0.1537 -0.0890
31096W        W46905   2.019  16.144  12.942 -0.4914  0.1402  0.0039
31097W        W46906   3.643  12.947   2.952  0.1452  0.0228  0.0833
31098W        W46907   2.002   8.031   1.911 -0.1618 -0.1399  0.0568
31099W        W46908  17.583  12.163  15.216  0.0583  0.3792 -0.1316
31100W        W46909   4.511  14.048   4.066 -0.1090 -0.3588 -0.2806
31101W        W46910   7.211  17.150   1.271  0.1690  0.0072  0.4169
31102W        W46911   3.833   5.347  13.181  0.4115  0.0765 -0.3304
31103W        W46912   9.584  11.798  16.169 -0.3486  0.2108 -0.1151
31104W        W46913   9.555   3.130   0.535  0.2523  0.6196  0.0771
31105W        W46914   9.521   0.530   0.030 -0.0730  0.1661  0.2985
31106W        W46915  13.197  13.301   0.739  0.0495 -0.0080 -0.4757
31107W        W46916   2.507  13.864  12.751 -0.1031  0.0673  0.0851
31108W        W46917  14.363   5.842   2.625  0.4252 -0.3411  0.3316
31109W        W46918   1.867  15.734  14.563 -0.1258  0.1990 -0.0743
31110W        W46919   8.839   5.419  11.416  0.0028  0.1541 -0.2007
31111W        W46920   1.450  10.479   0.143  0.2945  0.1529  0.0807
31112W        W46921   2.672   1.743   4.112 -0.1776  0.3802  0.1206
31113W        W46922   0.618  17.871  12.276  0.1001 -0.0046  0.1459
31114W        W46923   4.641   2.285   2.354 -0.0713  0.0131 -0.4003
31115W        W46924  11.453  11.526   3.842 -0.0064 -0.2308 -0.1130
31116W        W46925   3.989  14.858   3.756 -0.2534 -0.1681  0.2759
31117W        W46926  16.894   7.460   0.380  0.0463 -0.1606 -0.0914
31118W        W46927   9.363  10.227  14.278  0.0241  0.2343 -0.0229
31119W        W46928  15.185  11.346   1.417 -0.0216  0.1688  0.2184
31120W        W46929   9.941   9.686   4.625  0.0284 -0.6146 -0.1000
31121W        W46930  15.899   1.738  16.195 -0.2661 -0.1649  0.0824
31122W        W46931   2.273  18.196  15.322  0.3231 -0.1263  0.1156
31123W        W46932   9.122  14.304  11.802 -0.2092  0.1110  0.0004
31124W        W46933  12.779   3.050   4.113  0.1814  0.0353 -0.1842
31125W        W46934  17.604  10.342   0.792  0.2647  0.1256 -0.1351
31126W        W46935  11.053   9.008  12.588 -0.2821  0.2209  0.2383
31127W        W46936  12.677   1.230   3.321  0.0660 -0.2740 -0.0422
31128W        W46937  10.986  14.740   4.807  0.1973 -0.0179  0.1673
31129W        W46938   7.277  18.086   1.096  0.0813  0.1177  0.2733
31130W        W46939   1.821   3.328   5.126  0.1199 -0.0802 -0.1963
31131W        W46940  17.995  15.004   3.767 -0.0227  0.0082 -0.0929
31132W        W46941  12.759   4.797  15.963 -0.0108 -0.1353 -0.0782
31133W        W46942  11.524  17.160  14.487  0.1484  0.1542 -0.1367
31134W        W46943   7.116  14.831   3.994 -0.0054 -0.1035 -0.3677
31135W        W46944  14.746  14.502  15.735 -0.0533 -0.0687  0.0777
31136W        W46945  10.927   4.552   0.304  0.2863 -0.0971 -0.0504
31137W        W46946   2.481  14.977   0.213 -0.1630 -0.2241  0.4811
31138W        W46947   2.653  10.044   3.072 -0.2206  0.1995  0.0656
31139W        W46948  12.137   4.585  11.479 -0.0097 -0.0222 -0.1593
31140W        W46949  13.316   3.754   0.913  0.1510  0.4688 -0.3581
31141W        W46950   2.873   7.625   4.748  0.0860 -0.1509 -0.0262
31142W        W46951   2.601   2.887   1.910 -0.3064  0.3735 -0.1280
31143W        W46952   0.652  15.966  11.393  0.1648 -0.2704  0.1022
31144W        W46953  17.870   8.735  12.151 -0.2350 -0.3276  0.0101
31145W        W46954   3.158   0.410   5.552 -0.1302 -0.2916 -0.1663
31146W        W46955   4.381   2.010   4.086  0.2143 -0.1686 -0.1206
31147W        W46956  12.604   7.715  12.597 -0.3875  0.0095 -0.0284
31148W        W46957   3.371  13.898   0.723  0.1662 -0.0054  0.0101
31149W        W46958  16.403  18.016  15.173  0.4432 -0.2194  0.1943
31150W        W46959   5.441  16.360  11.258 -0.0792 -0.0963  0.1666
31151W        W46960   7.818  16.796   4.499  0.1608  0.0654  0.1107
31152W        W46961   2.408  18.032  11.471 -0.0609  0.0685 -0.1489
31153W        W46962   3.134   0.829  14.771 -0.4482 -0.0703  0.1999
31154W        W46963  10.085  16.808  14.156 -0.0619 -0.0085 -0.1030
31155W        W46964   5.926  16.310   1.905  0.0302  0.0260 -0.2075
31156W        W46965   8.095   9.388   4.805 -0.0607  0.2040  0.2299
31157W        W46966   2.665  17.049  11.750  0.1165 -0.0334  0.0499
31158W        W46967  11.043   5.353   4.664  0.2638 -0.0667  0.0126
31159W        W46968   3.716  17.719  11.277  0.0223  0.5254  0.1776
31160W        W46969   3.485  13.651  13.954 -0.1211  0.0121 -0.0388
31161W        W46970   4.977   9.755  13.557 -0.0010  0.0833 -0.0120
31162W        W46971  14.111  14.078  11.908 -0.1016 -0.1056 -0.0373
31163W        W46972   5.082   1.732  15.576  0.0190 -0.1837 -0.0227
31164W        W46973  17.289   7.100   6.058  0.0285  0.0255  0.2621
31165W        W46974   1.591   1.518   3.754 -0.0357  0.3844 -0.2041
31166W        W46975   9.075  16.779   0.680 -0.1215  0.2507 -0.0044
31167W        W46976  10.905   9.913  12.233  0.2003 -0.1731  0.3220
31168W        W46977   6.693  10.598  12.783  0.0687  0.0219  0.2363
31169W        W46978   6.739   7.076   1.549 -0.0676 -0.4768  0.0586
31170W        W46979  11.014   1.935   3.561  0.1062  0.0008 -0.1834
31171W        W46980   7.031  14.425  12.183 -0.0866 -0.0271  0.0546
31172W        W46981  12.975   0.673  13.014  0.2940 -0.1337 -0.2924
31173W        W46982   4.726   8.723   0.816 -0.4454  0.0604  0.1778
31174W        W46983   2.086   1.672   2.834 -0.1634  0.0227  0.1299
31175W        W46984   8.476   6.678  14.261  0.2981 -0.3795 -0.3775
31176W        W46985   4.098  12.568   3.012  0.2015  0.0522 -0.1168
31177W        W46986   1.882  11.991   2.744  0.0364 -0.2428 -0.2946
31178W        W46987  11.198   1.693  16.145 -0.1433  0.3705  0.1135
31179W        W46988  15.647  12.779  16.268 -0.0402  0.0432  0.1939
31180W        W46989  11.611  17.850   4.466 -0.1070 -0.0991 -0.0701
31181W        W46990   2.562   2.348  11.516  0.0679  0.1646 -0.0811
31182W        W46991  15.144   9.531   1.232 -0.0116 -0.1953  0.0926
31183W        W46992   1.962   6.742  13.547 -0.2225 -0.0414  0.1901
31184W        W46993  10.356   4.258  11.972  0.1561 -0.2602  0.2835
31185W        W46994   4.487  16.438  13.947 -0.1551  0.2615 -0.0169
31186W        W46995  11.636   1.389   5.357  0.0854  0.1031  0.0727
31187W        W46996   6.046   9.924  12.097  0.1651  0.0315 -0.0560
31188W        W46997   0.073  10.948  15.305  0.2363  0.2321  0.1709
31189W        W46998  18.131  12.720   0.130  0.1363  0.4105 -0.2765
31190W        W46999   2.535  15.679  11.924 -0.1560  0.0752  0.0945
31191W        W47000   7.381   7.824   5.330 -0.1405  0.0118 -0.4138
31192W        W47001   4.839  16.478  12.480 -0.3508  0.0496 -0.0748
31193W        W47002   7.560   5.917  13.552 -0.1823 -0.2647  0.0536
31194W        W47003  11.520  14.342   1.891 -0.0041  0.0134 -0.1793
31195W        W47004   3.659   8.573  16.284 -0.2164 -0.2685 -0.4216
31196W        W47005   7.928  16.039   2.150  0.0028 -0.1311 -0.1483
31197W        W47006   6.691   2.734   3.561 -0.0207  0.2737  0.3301
31198W        W47007   8.554   1.126  12.772  0.1471  0.0390 -0.0199
31199W        W47008  16.575   8.586  13.253 -0.1305  0.2539 -0.3180
31200W        W47009  16.291  12.060   4.893 -0.0667  0.0913  0.2362
31201W        W47010   1.214  16.087   0.940 -0.2992 -0.3296  0.3929
31202W        W47011  13.956  10.544   1.041  0.2736  0.2128  0.0606
31203W        W47012  14.007  15.048  10.333 -0.1121  0.3827  0.1105
31204W        W47013   4.990  12.416   4.343 -0.2717  0.1643 -0.1247
31205W        W47014  15.554   7.236   1.439  0.1853 -0.1248  0.1345
31206W        W47015  15.774   1.879   0.523 -0.1607 -0.0794  0.0044
31207W        W47016   0.638   4.310  12.767 -0.0157  0.1949  0.2369
31208W        W47017   9.021   1.367   3.048 -0.3081 -0.3610  0.3426
31209W        W47018   3.912  15.973  12.835  0.4397 -0.4379  0.0513
31210W        W47019  16.836   2.967   5.309 -0.0370 -0.2647 -0.0345
31211W        W47020   1.721  16.119  13.406  0.1619  0.0682  0.1828
31212W        W47021  10.875   4.584   2.808 -0.0565  0.0373 -0.1033
31213W        W47022  17.602   4.432  14.038  0.1018 -0.4618  0.1439
31214W        W47023   6.804   0.203  13.366  0.1876  0.0974  0.0705
31215W        W47024   3.953   2.344   0.012  0.3431 -0.2575 -0.3621
31216W        W47025  14.019  13.538  11.109  0.1949 -0.2189  0.1869
31217W        W47026  13.621   6.315  15.519  0.1445  0.1780 -0.0019
31218W        W47027   6.225  10.320  12.732 -0.0295  0.0670  0.1389
31219W        W47028  17.403   8.290   6.108 -0.0529 -0.2418  0.2395
31220W        W47029  18.089   4.851   3.418 -0.0588 -0.1214 -0.0779
31221W        W47030   7.904  15.214  14.284 -0.2332 -0.0810  0.1660
31222W        W47031  11.059   3.254   3.198  0.1761 -0.2203 -0.1984
31223W        W47032  14.946   6.738   5.928 -0.2347  0.0992 -0.3718
31224W        W47033   4.089   3.395   0.903 -0.1254  0.2550 -0.0229
31225W        W47034   2.683  11.792   3.139  0.1902  0.1677  0.1815
31226W        W47035   9.778  11.032   3.886 -0.2881  0.2030 -0.1701
31227W        W47036  12.820   8.632  10.559 -0.2056 -0.1309 -0.1703
31228W        W47037   7.940  17.643  12.794 -0.0453 -0.3680  0.0516
31229W        W47038  12.260   1.213  12.273 -0.2011  0.0054 -0.0625
31230W        W47039  16.150  14.419   2.054 -0.1801  0.0526 -0.0957
31231W        W47040   5.507  16.793   0.511  0.1531  0.1039 -0.0966
31232W        W47041   1.409  15.051   2.121 -0.0368  0.1586 -0.2195
31233W        W47042   8.160   3.028  15.392 -0.3834  0.0947  0.3596
31234W        W47043   9.267  17.764  13.308  0.0066 -0.4181  0.0992
31235W        W47044   0.418   6.038  12.529 -0.2912  0.1287  0.0787
31236W        W47045  11.976  10.030  11.439  0.0088 -0.0507  0.1979
31237W        W47046  16.674  11.915  15.330 -0.1506  0.1896 -0.0889
31238W        W47047  13.277   5.489  13.657  0.3170  0.1105 -0.1613
31239W        W47048  13.999  12.934  12.702  0.1452  0.0274  0.0141
31240W        W47049   1.484   2.899   4.074 -0.0377  0.0011  0.1110
31241W        W47050   3.802   6.561  13.216 -0.2149  0.3898  0.2267
31242W        W47051   4.947  13.479  14.667 -0.1447 -0.0618  0.1800
31243W        W47052   7.398   1.626  14.045  0.0488  0.1521  0.2464
31244W        W47053  15.958   9.048   3.137 -0.0932  0.4257 -0.0145
31245W        W47054   1.587  17.262   5.379 -0.2601  0.0065  0.2872
31246W        W47055   2.447   8.302  11.394  0.2888  0.1506  0.4026
31247W        W47056  11.807   2.779   3.504  0.0601  0.0725  0.2666
31248W        W47057  11.902   9.876   5.138  0.3516 -0.1586  0.0677
31249W        W47058  13.918   7.298  10.984  0.1571  0.0815 -0.1929
31250W        W47059  17.437  14.619  14.630 -0.1883  0.2740  0.2811
31251W        W47060   4.768  10.555   2.666 -0.3056 -0.4361 -0.1532
31252W        W47061  16.007  16.126   4.737 -0.3089 -0.2083  0.1402
31253W        W47062   7.217  18.168  13.290  0.2545  0.4567 -0.1164
31254W        W47063  13.551   1.012  14.488  0.0589 -0.0020 -0.3299
31255W        W47064  16.991  10.664   1.631  0.0289 -0.1645  0.0973
31256W        W47065  17.300   8.382  13.836 -0.0220 -0.2564  0.0346
31257W        W47066   7.812   9.114   2.175  0.3245 -0.0558  0.2643
31258W        W47067  17.817   5.174  16.322 -0.0356 -0.1577 -0.0561
31259W        W47068   2.479  15.654   0.529 -0.2546 -0.2300 -0.1538
31260W        W47069  15.698  11.767   2.391  0.0366  0.3555  0.1509
31261W        W47070  10.677   2.822   1.637  0.0468  0.0332 -0.1419
31262W        W47071   1.579   5.127  15.931  0.1995  0.1670 -0.0136
31263W        W47072  15.927   5.997   4.331  0.0701  0.1971 -0.3657
31264W        W47073  15.676   7.107   0.271  0.2337  0.0853  0.1090
31265W        W47074  15.113   8.559   3.041 -0.1042  0.1184  0.2937
31266W        W47075   4.369   0.298   4.884 -0.0809 -0.0033  0.0746
31267W        W47076   7.790   1.813   1.249  0.2905 -0.0470 -0.0446
31268W        W47077   4.599  12.242   2.795 -0.0580 -0.3680  0.2041
31269W        W47078  13.756   9.404   0.169 -0.4157  0.0110 -0.1475
31270W        W47079  13.982   5.176  14.712  0.1010  0.0273 -0.1143
31271W        W47080   3.579  15.098  13.012  0.0391 -0.0366  0.0222
31272W        W47081   1.989  16.811   1.875 -0.0923  0.1369 -0.0644
31273W        W47082   0.234   9.451   1.604 -0.0563 -0.0457  0.2484
31274W        W47083  10.000  17.434   2.612 -0.0051 -0.3500 -0.2801
31275W        W47084  10.318  12.292  11.255 -0.1818  0.1126 -0.0688
31276W        W47085   9.091  14.070  12.328 -0.2450 -0.1830  0.1729
31277W        W47086  10.298  10.769  14.250 -0.1675  0.1614 -0.1155
31278W        W47087  12.428   5.345  15.428  0.3330 -0.1012  0.4780
31279W        W47088   9.515   1.798   1.339 -0.0799  0.1869 -0.0678
31280W        W47089   3.432   0.723   0.868  0.1467  0.0303 -0.0125
31281W        W47090  14.063  17.264   1.209  0.1541 -0.1296 -0.1021
31282W        W47091  16.183   4.733  14.897  0.1930 -0.1362  0.1363
31283W        W47092   6.904  17.166   0.856 -0.1987 -0.1421  0.1293
31284W        W47093  17.011   7.554  15.547  0.2222  0.0330  0.0845
31285W        W47094   4.054   9.149  11.253  0.1007 -0.0912  0.2660
31286W        W47095   8.582   5.944  13.264  0.2125  0.0096  0.0115
31287W        W47096   9.079   9.670  15.713  0.2477 -0.2164  0.1423
31288W        W47097   4.535  14.759  15.934 -0.1748 -0.1343 -0.0891
31289W        W47098  10.498   3.338  14.060  0.2872 -0.2543 -0.4002
31290W        W47099   2.432  14.146  15.183 -0.1726  0.0841 -0.2084
31291W        W47100  15.723   3.793  16.196 -0.1191  0.0629 -0.1516
31292W        W47101  15.154  17.483   0.295  0.3128  0.2043  0.0979
31293W        W47102   6.029  14.013  15.142 -0.0589  0.0213  0.0232
31294W        W47103  17.487  18.151   0.248  0.0611  0.0180  0.1271
31295W        W47104   3.520  10.553   2.298  0.1778 -0.2000  0.0853
31296W        W47105  12.880  17.364  12.476  0.2080  0.0627  0.3885
31297W        W47106  10.046  16.496   0.610 -0.0571  0.1585 -0.1535
31298W        W47107   8.227   9.667  12.925 -0.2961  0.1829  0.1381
31299W        W47108   9.794   4.811   1.064 -0.5182  0.1417  0.1335
31300W        W47109   4.294   3.692  11.187  0.3331  0.3484  0.2303
31301W        W47110   1.851  15.053  14.793 -0.0515  0.3746  0.2190
31302W        W47111  16.885  13.493  15.585 -0.0174 -0.1687  0.1278
31303W        W47112  11.281   3.225  13.942 -0.3250  0.0365 -0.1491
31304W        W47113  13.284   3.510  12.507  0.0244  0.0086  0.0458
31305W        W47114   9.379   7.163  12.786 -0.1988  0.3689  0.2656
31306W        W47115   8.412   5.410  15.705  0.0643 -0.0400  0.2422
31307W        W47116   0.153  17.855   4.839  0.0258 -0.1779  0.0707
31308W        W47117   9.851  15.062   3.853  0.0012 -0.2036  0.1789
31309W        W47118  18.153  16.737   1.516 -0.2601 -0.1876 -0.1740
31310W        W47119   7.541  15.686  14.912  0.1555  0.0489  0.1352
31311W        W47120   4.391  17.181  15.463  0.1023  0.1014 -0.0570
31312W        W47121   5.094  10.836  14.495 -0.0080  0.2401 -0.3030
31313W        W47122   2.869   6.397  16.135  0.1869 -0.1101  0.0936
31314W        W47123  11.917   5.349   1.083  0.0621  0.1542  0.0942
31315W        W47124   8.890  10.247   4.535 -0.0489  0.1896  0.0496
31316W        W47125   7.743  15.528   1.961  0.0032  0.1294  0.0207
31317W        W47126   0.548   4.665   1.084  0.3598  0.0406 -0.0585
31318W        W47127  10.212   5.431   0.153 -0.1122  0.1760 -0.0127
31319W        W47128  11.423   8.480  11.908 -0.0243 -0.0596 -0.0288
31320W        W47129  11.323   1.825  13.597  0.2590  0.1241  0.2626
31321W        W47130   5.009   2.496   1.959 -0.3187 -0.0501  0.3758
31322W        W47131  11.944   5.212  10.291 -0.0347  0.1168 -0.1574
31323W        W47132  10.601   5.731  12.527 -0.2218  0.2073 -0.4298
31324W        W47133   7.468   3.429  14.261  0.2635 -0.1657  0.0854
31325W        W47134  13.182  12.119   2.429 -0.2182 -0.3273  0.1359
31326W        W47135   5.222   9.419   1.766  0.1838  0.0903 -0.2809
31327W        W47136  14.349   3.119  14.777 -0.0088  0.1827  0.1693
31328W        W47137   3.116   6.630   3.186  0.1342 -0.1235 -0.1390
31329W        W47138   0.708   8.172  11.155 -0.1705  0.0515 -0.1607
31330W        W47139   7.403  13.964  11.796  0.0191 -0.0449  0.0030
31331W        W47140   5.259   1.392  11.958  0.4324  0.0846  0.3147
31332W        W47141   5.130   1.544   2.793 -0.0219  0.0022  0.1717
31333W        W47142  10.201  10.594   5.468 -0.1935 -0.3752  0.0117
31334W        W47143   6.552  12.733   4.455  0.1057 -0.1266 -0.0151
31335W        W47144  11.731   0.477   4.096  0.0795 -0.0046 -0.0435
31336W        W47145  17.276  10.146   5.426 -0.4041  0.1536 -0.1309
31337W        W47146   8.890  12.726   4.713 -0.3411  0.0125  0.0900
31338W        W47147  12.459  14.512  15.069  0.0226  0.0428 -0.1268
31339W        W47148  14.918  17.947  14.987 -0.0095 -0.0825  0.1429
31340W        W47149   9.920  12.666   2.305 -0.0955 -0.3472 -0.4774
31341W        W47150  13.381   9.024   2.524  0.3292  0.2567  0.4583
31342W        W47151   3.177  12.642   4.055 -0.0164 -0.2842  0.2212
31343W        W47152   7.383   8.859  15.411 -0.0260  0.1115  0.2076
31344W        W47153   5.752  10.090  12.491  0.0396  0.2990  0.1161
31345W        W47154  16.080   7.309  13.839 -0.0145  0.2894 -0.0062
31346W        W47155   1.759  14.415  15.503  0.5891 -0.2336 -0.0205
31347W        W47156   4.048  14.135  12.510 -0.0763  0.0538  0.1231
31348W        W47157   7.594  15.086  12.535  0.3725  0.1364 -0.0706
31349W        W47158   7.578   3.615   3.573 -0.4270 -0.4120 -0.0403
31350W        W47159   5.603  16.856  13.548 -0.0212  0.1200  0.0667
31351W        W47160   4.556   9.631   4.805 -0.3374  0.3542  0.2792
31352W        W47161  17.926   1.278   1.480  0.0684  0.0172 -0.0111
31353W        W47162  14.715  11.771  15.156  0.0471 -0.0129 -0.0030
31354W        W47163   1.794  14.379  11.700 -0.0460  0.0159 -0.0441
31355W        W47164   4.470   6.727   2.856 -0.2463 -0.1098 -0.0732
31356W        W47165   9.574   3.795   2.615  0.2893  0.0502 -0.1097
31357W        W47166   0.197  10.448  12.637  0.0727 -0.0256 -0.0611
31358W        W47167   1.000   6.613   4.524  0.3417  0.1876 -0.0705
31359W        W47168  11.313  17.674   5.223 -0.0136  0.1401 -0.0567
31360W        W47169   1.814   9.676  14.480 -0.2658  0.0334 -0.2400
31361W        W47170  15.906  14.927   6.149 -0.3228  0.0165  0.3591
31362W        W47171  11.699   1.261  13.058  0.1258 -0.1771  0.0326
31363W        W47172   0.671  17.508   2.650 -0.3025  0.1721 -0.0282
31364W        W47173  14.093  12.351  10.597 -0.1192 -0.0129  0.1335
31365W        W47174  12.610   4.815  14.708  0.1041 -0.1973  0.1431
31366W        W47175   4.797  16.829  15.337 -0.1223 -0.0918 -0.0053
31367W        W47176   1.174  16.198   6.084 -0.1426 -0.3223  0.2483
31368W        W47177   9.958   1.061  15.886  0.1870 -0.0313  0.3605
31369W        W47178   1.965   6.251   0.105 -0.2542 -0.3567 -0.1613
31370W        W47179   2.407  13.638  16.130 -0.1762 -0.1421 -0.0926
31371W        W47180  12.351   0.149   2.524  0.1261 -0.0752 -0.2690
31372W        W47181  12.050   7.393  11.140  0.0211 -0.0789 -0.3472
31373W        W47182   2.371  17.464  13.286 -0.1628  0.0034 -0.5221
31374W        W47183   8.400   0.947   1.258  0.3257 -0.2720 -0.1852
31375W        W47184   8.166   4.375   5.768  0.0165  0.4889  0.2177
31376W        W47185   2.885  18.137   3.008 -0.3154 -0.3050 -0.0310
31377W        W47186   5.856  12.447   3.390 -0.3186  0.0897 -0.4704
31378W        W47187   2.697  11.376   2.919 -0.4888  0.1166  0.1375
31379W        W47188  12.971  18.026  15.569 -0.0394  0.1076 -0.0745
31380W        W47189   6.858  11.979   0.983 -0.0700  0.0218  0.3339
31381W        W47190   8.754   2.519   4.810 -0.0774  0.1362  0.1769
31382W        W47191   1.866   7.125   4.646 -0.0222 -0.1001 -0.2772
31383W        W47192   7.814   5.904   4.291  0.1868  0.0951 -0.2728
31384W        W47193  12.187  13.692  12.214 -0.1072 -0.0559 -0.4443
31385W        W47194   4.650  13.622  15.711 -0.1715  0.0559 -0.0515
31386W        W47195  14.261   0.756  15.844  0.1174  0.0020  0.1726
31387W        W47196   6.825  12.424   3.123  0.1658  0.1429 -0.0502
31388W        W47197   1.557   3.265  11.084  0.0867 -0.0279 -0.0521
31389W        W47198   6.468   4.189  15.043 -0.0467 -0.0796  0.1756
31390W        W47199  15.284   4.238   5.125 -0.3564  0.3287 -0.3418
31391W        W47200  11.369  14.271  12.430 -0.0104 -0.2063 -0.1087
31392W        W47201   1.761  12.928   0.722 -0.1767  0.1506  0.0331
31393W        W47202   9.406  11.090  10.003  0.1963  0.4643 -0.1788
31394W        W47203   8.278  12.601   3.565 -0.0278 -0.3450 -0.0606
31395W        W47204   5.121  14.732   0.328 -0.1102  0.0368 -0.2316
31396W        W47205   9.699   4.982  12.491 -0.1060 -0.1680  0.0366
31397W        W47206   8.742   5.862   1.812  0.0630 -0.1006 -0.2580
31398W        W47207   6.990   1.587  14.493 -0.1362  0.0251  0.2248
31399W        W47208   7.903   9.283  12.890 -0.0722  0.3609 -0.0433
31400W        W47209   7.975  11.197   4.670 -0.2710 -0.2195  0.1483
31401W        W47210   3.856   3.552  11.841  0.0775 -0.0525  0.2228
31402W        W47211   2.781   0.500  14.478 -0.1227  0.2728 -0.1037
31403W        W47212  16.348  12.749   4.954 -0.2330 -0.4155  0.2648
31404W        W47213  10.763  13.444  13.807  0.0613 -0.1163  0.4709
31405W        W47214   8.129   9.515   5.580 -0.0051  0.1205  0.0399
31406W        W47215  10.839  12.841  15.767 -0.1326 -0.2723  0.2824
31407W        W47216   6.890  17.241  10.832 -0.1294 -0.0799  0.1703
31408W        W47217  10.944  15.365   5.548 -0.0538  0.0488  0.3144
31409W        W47218   8.227   6.491   4.605  0.2194  0.1860  0.1774
31410W        W47219  15.276  13.369   3.281  0.3587 -0.1060  0.1410
31411W        W47220  17.345  16.384  14.969 -0.0481  0.1031 -0.0965
31412W        W47221  10.067  13.111  12.459 -0.1239 -0.0691  0.4387
31413W        W47222   3.172  16.632  11.189  0.3370  0.0158  0.0410
31414W        W47223   5.865   4.382   4.467  0.2380  0.0083 -0.1468
31415W        W47224   5.082   7.038   1.339  0.0346 -0.3313  0.1687
31416W        W47225  13.427   9.790  12.490 -0.2308  0.1559 -0.0821
31417W        W47226  13.307   9.791  14.160  0.0152 -0.2671 -0.0594
31418W        W47227   6.781  15.863   5.236 -0.0783  0.1918 -0.0585
31419W        W47228   2.138   9.694   0.133 -0.1124  0.1503  0.1799
31420W        W47229   1.868  11.105  13.287  0.0106 -0.0537 -0.0720
31421W        W47230   6.973   6.059   5.801 -0.0693  0.0144 -0.1370
31422W        W47231   2.278  11.867   3.927 -0.1352  0.1966  0.0950
31423W        W47232   7.454  13.440   1.755  0.2365  0.0235 -0.1173
31424W        W47233  17.599   3.542  12.039 -0.0629  0.1509 -0.0536
31425W        W47234  13.281   7.163  13.118  0.0190  0.0192 -0.0916
31426W        W47235  15.089  10.109   1.057 -0.1483 -0.2335 -0.3733
31427W        W47236   4.990  10.463  12.232  0.0406 -0.0753  0.0039
31428W        W47237  15.420   2.369  11.587  0.2079  0.1464  0.0878
31429W        W47238   8.182   1.197  16.129 -0.1521  0.1116  0.0116
31430W        W47239  13.777   8.576  12.879 -0.0041  0.3748 -0.0267
31431W        W47240   2.235  12.211  12.262 -0.2882  0.1281 -0.2148
31432W        W47241   3.172  12.760  14.983 -0.0048 -0.0594 -0.1415
31433W        W47242   9.320   0.817  15.370 -0.2613  0.2224 -0.0204
31434W        W47243   9.191   4.405  14.493 -0.1878 -0.0547  0.1046
31435W        W47244  14.480  16.708  12.187 -0.2760 -0.1225  0.2747
31436W        W47245  13.232   5.492  13.189  0.1730  0.1539  0.0534
31437W        W47246   0.133   9.862  11.936 -0.2090  0.1382 -0.1512
31438W        W47247   1.340  16.061  16.181 -0.0990  0.4794 -0.0817
31439W        W47248  16.613  14.188   1.865  0.1333 -0.1017  0.1052
31440W        W47249   0.903  14.911   1.896  0.2628  0.1274 -0.1439
31441W        W47250   2.749  11.160   6.078  0.0975  0.0274 -0.0733
31442W        W47251   9.896   1.894  11.186 -0.0156  0.1197  0.0108
31443W        W47252   5.648  11.628  15.077 -0.0093  0.2210 -0.0198
31444W        W47253  15.789   5.227  12.030  0.1734  0.0826  0.2653
31445W        W47254   5.534   2.350   0.425 -0.1100  0.3448 -0.1773
31446W        W47255   7.650   4.070   5.813 -0.2327 -0.3994  0.1449
31447W        W47256  17.475   3.060  14.857 -0.3275 -0.1704 -0.4875
31448W        W47257   6.442   7.088   5.498  0.1586 -0.2879  0.0054
31449W        W47258   3.961  14.479   2.329 -0.1076  0.0688  0.0234
31450W        W47259   3.778   5.219  11.019  0.1618  0.4624 -0.1872
31451W        W47260   2.313  16.435   2.124  0.1644  0.1732 -0.1396
31452W        W47261   3.554   5.957  11.676 -0.2888  0.1836 -0.3355
31453W        W47262  16.062   9.790  15.571  0.1698  0.0735 -0.2815
31454W        W47263   2.536  11.718   0.072  0.2678  0.3027  0.2657
31455W        W47264   3.276   6.463  15.916 -0.0632 -0.2065 -0.3062
31456W        W47265   4.216  16.386   5.404  0.0860  0.1506  0.3928
31457W        W47266   9.333   0.797   4.510 -0.2308  0.1846 -0.1552
31458W        W47267  10.923  14.970   3.180 -0.0584 -0.2959  0.1870
31459W        W47268   0.148  15.907   1.410  0.2994 -0.2114  0.0386
31460W        W47269   3.420  17.977   0.256 -0.0325  0.0247 -0.0526
31461W        W47270   4.188   8.242  12.229  0.0921  0.1173  0.0419
31462W        W47271  11.124  12.663  12.770  0.2513  0.0678 -0.1812
31463W        W47272   1.097  12.209   0.300 -0.4701 -0.0085 -0.3991
31464W        W47273   6.599  14.769  12.262 -0.2654 -0.1381 -0.1244
31465W        W47274   4.495   2.789   5.194 -0.1295 -0.1255  0.1501
31466W        W47275  11.900  12.634   4.435 -0.3584  0.1040  0.0292
31467W        W47276  13.845   3.509   5.553  0.1491  0.0952 -0.1378
31468W        W47277   9.891   8.752   2.808  0.1902 -0.3015 -0.1305
31469W        W47278   1.894  14.163  12.633  0.2223 -0.0847 -0.2608
31470W        W47279   1.415   8.760   0.776 -0.1361 -0.1038  0.0169
31471W        W47280   9.272   6.510   1.065 -0.0011  0.0884 -0.0720
31472W        W47281  14.105   9.897   2.772  0.2714  0.2490 -0.2868
31473W        W47282  16.601  15.707   0.928  0.0802 -0.0169  0.1063
31474W        W47283   3.687   7.889   5.759  0.1819  0.2392  0.0306
31475W        W47284   6.784  17.200   2.372  0.4156 -0.2301 -0.0116
31476W        W47285   8.101   7.291  15.313  0.0671  0.3949  0.1596
31477W        W47286  10.800  17.844  13.732 -0.1652  0.4958  0.2786
31478W        W47287   9.730   9.228  11.268 -0.1934 -0.0734  0.0765
31479W        W47288   7.237  12.790  15.488 -0.1420 -0.0315 -0.1016
31480W        W47289   8.811  14.336   2.267 -0.1527 -0.0710  0.2051
31481W        W47290  14.333  15.228  11.482  0.1158  0.0072 -0.0463
31482W        W47291   8.190   1.204   0.760 -0.2269  0.0993 -0.1483
31483W        W47292  12.409  14.592   4.944  0.0239  0.2462 -0.3117
31484W        W47293   6.260   6.236  14.773 -0.1669  0.0876  0.0340
31485W        W47294  18.119   6.052   4.018 -0.1095  0.2767  0.0369
31486W        W47295   8.680   5.777   4.847  0.1849  0.0170  0.1020
31487W        W47296   8.356  16.978   3.883  0.0756 -0.1674 -0.3437
31488W        W47297   1.835   5.041   4.857 -0.0897 -0.1614 -0.0774
31489W        W47298   0.081   5.227   1.728  0.1816 -0.1971  0.2774
31490W        W47299   1.390   8.817  15.192 -0.0959  0.2426  0.1185
31491W        W47300   8.666   6.815   1.772  0.1037 -0.0237 -0.2831
31492W        W47301  14.370   8.386   3.516 -0.0006 -0.1567 -0.0160
31493W        W47302   7.901   0.801  16.356 -0.1154  0.0586  0.1150
31494W        W47303   0.463  10.281  14.043  0.1485  0.0739 -0.0763
31495W        W47304  13.404  17.858   2.761  0.0959 -0.3551 -0.3529
31496W        W47305   3.280  16.499   5.371  0.2394  0.2174 -0.0363
31497W        W47306  12.199   5.733   2.156 -0.1375 -0.2140 -0.0837
31498W        W47307  16.306   5.286   3.134  0.1366 -0.2514 -0.0578
31499W        W47308   5.355  12.737   1.167 -0.0290 -0.0576  0.1448
31500W        W47309  14.068  10.802  14.144  0.0714 -0.0387 -0.4137
31501W        W47310  11.962  10.957   4.203 -0.1151 -0.2239  0.0524
31502W        W47311   4.729   4.618   0.450 -0.2411  0.1051 -0.0651
31503W        W47312  15.135   0.875   0.660 -0.4488 -0.1783  0.0461
31504W        W47313  16.792   9.295  11.829 -0.0874  0.2141  0.3248
31505W        W47314   3.465   9.974  10.422 -0.0998 -0.0709 -0.0720
31506W        W47315  14.230   0.058  12.675  0.1989 -0.1613  0.0092
31507W        W47316   2.309   4.594  14.321  0.1209 -0.0076  0.2078
31508W        W47317  10.368   6.598  16.140 -0.1250  0.0579 -0.2039
31509W        W47318   2.027  17.893   0.509 -0.0089 -0.1345 -0.1012
31510W        W47319  12.712  12.016   3.821  0.0586  0.1640  0.0956
31511W        W47320   3.964  17.226  13.188 -0.1078 -0.0650 -0.0785
31512W        W47321   1.233   0.516   4.634 -0.0079  0.0281  0.0157
31513W        W47322  10.956   3.778  15.752 -0.2460 -0.0414  0.1171
31514W        W47323   1.509   7.718  12.070 -0.0700  0.1795 -0.1116
31515W        W47324  12.373  14.821  14.714  0.2356 -0.4099 -0.0121
31516W        W47325  13.041   0.119   5.197 -0.1749  0.0407  0.2173
31517W        W47326   9.245  14.129   2.123  0.1513 -0.1105  0.0362
31518W        W47327   4.088   7.353   0.190  0.1596  0.0450  0.0093
31519W        W47328  15.057  16.717   1.914 -0.0273 -0.3398  0.1444
31520W        W47329  11.634  15.545   2.726 -0.0912  0.0161 -0.4802
31521W        W47330  14.795  18.201  12.419 -0.2006  0.0849  0.1502
31522W        W47331  13.121  17.273   0.785  0.1810  0.1289  0.1137
31523W        W47332  13.485   1.087  15.351 -0.2162 -0.1798 -0.0930
31524W        W47333  11.827  14.274   4.598 -0.2030 -0.0351  0.2241
31525W        W47334   8.893   6.481  12.217  0.1092 -0.0364  0.1897
31526W        W47335   0.377  11.670   0.604 -0.1683 -0.0485 -0.1255
31527W        W47336  10.667   2.981   1.157 -0.0573  0.1732 -0.2374
31528W        W47337  11.640   4.584  13.186  0.2968 -0.3432 -0.1366
31529W        W47338   9.519   9.097   2.656 -0.0781  0.0131  0.2482
31530W        W47339   8.716   3.602  15.790 -0.3640 -0.2922  0.0940
31531W        W47340   4.919   6.838   2.134 -0.1458 -0.1551  0.2791
31532W        W47341   9.280   6.121   0.280 -0.1631  0.1135  0.2549
31533W        W47342   0.985   0.865  16.201  0.0624 -0.1863 -0.1295
31534W        W47343   4.717   4.943   3.202  0.4640  0.0377  0.3699
31535W        W47344  18.071  17.414  15.166  0.2064  0.2592 -0.0764
31536W        W47345  15.842   4.433  15.268 -0.0837 -0.0127  0.1191
31537W        W47346  17.302   1.294   3.655 -0.2882 -0.0218 -0.1147
31538W        W47347   9.195   4.279   3.443  0.3204 -0.2214 -0.0533
31539W        W47348   5.210  10.084  12.411 -0.1961 -0.0488 -0.1056
31540W        W47349  14.513  16.533  15.268  0.0429 -0.0454 -0.2390
31541W        W47350   5.536   3.096  15.975  0.3030 -0.1051 -0.1445
31542W        W47351   9.396   0.715  12.374  0.1570 -0.3527 -0.4055
31543W        W47352   8.672  14.888  12.475  0.0496  0.0664 -0.1282
31544W        W47353  14.681   1.723   2.171  0.0193  0.2058 -0.1696
31545W        W47354   7.266  10.665  13.042 -0.1434 -0.1371 -0.2170
31546W        W47355  15.423   8.221   4.140  0.0157 -0.1259 -0.0154
31547W        W47356   8.809  17.896  10.653  0.2151  0.0617 -0.2680
31548W        W47357   3.907   6.216  12.858 -0.4807  0.1775  0.0348
31549W        W47358  16.129   3.890  14.455 -0.0031 -0.2876  0.0364
31550W        W47359  13.553   2.669  10.959  0.0069 -0.1397 -0.0531
31551W        W47360   5.107  11.466   0.429 -0.0059 -0.1464  0.1637
31552W        W47361   7.866   8.618   0.704 -0.1277  0.0531 -0.2895
31553W        W47362   9.094   7.553  11.497  0.1277  0.1304  0.1114
31554W        W47363   7.244   8.094   3.025 -0.0798  0.1314 -0.0549
31555W        W47364   6.812  13.436   4.100  0.3347  0.2367 -0.1010
31556W        W47365   1.579  12.985  14.319  0.0991  0.0332  0.0956
31557W        W47366  12.827   8.290   1.582 -0.0312 -0.0390 -0.2584
31558W        W47367  17.149   8.355  13.333 -0.0431 -0.1686  0.0620
31559W        W47368   3.261  14.271  13.318  0.2936 -0.1322 -0.2034
31560W        W47369   7.268   8.835   2.711  0.1985 -0.1331  0.0727
31561W        W47370  10.472  12.634  11.685 -0.4185 -0.0578 -0.0298
31562W        W47371   1.755  16.463  11.807  0.2210  0.0488 -0.3100
31563W        W47372  16.732   8.142  13.406  0.0300 -0.2352  0.0796
31564W        W47373   3.798   4.929  14.445 -0.0286 -0.0768 -0.1826
31565W        W47374  17.668   7.422   5.148 -0.3145  0.1430 -0.0591
31566W        W47375  11.248   6.492  15.641 -0.1837  0.1841  0.0110
31567W        W47376  14.836  17.288  15.972 -0.1308 -0.0793  0.3242
31568W        W47377   0.885   0.237  15.301  0.1308 -0.2937  0.3912
31569W        W47378  10.975   9.686  11.735  0.0648 -0.0093 -0.4173
31570W        W47379   8.697   4.599   4.257 -0.0359 -0.0820  0.1543
31571W        W47380  15.096   4.685   0.725  0.0915 -0.0576 -0.2220
31572W        W47381   5.306   8.403   2.240 -0.0839 -0.1503  0.0951
31573W        W47382  16.259  17.452   3.458  0.1518  0.1873 -0.2332
31574W        W47383  16.412  16.429  15.786 -0.0060 -0.3604 -0.2529
31575W        W47384   4.002   5.604   3.221  0.2153  0.0233 -0.0674
31576W        W47385  13.246   8.413   4.194 -0.3091 -0.2008 -0.1528
31577W        W47386  18.140   8.406  11.552  0.0745  0.0503  0.1123
31578W        W47387   7.625  13.391  10.257 -0.0996 -0.0239  0.2765
31579W        W47388   2.989  15.767   0.186  0.0200  0.0251 -0.1022
31580W        W47389   3.673   6.386   1.758  0.1527 -0.1403  0.5853
31581W        W47390   7.026   9.448  13.711  0.1386  0.2712  0.0684
31582W        W47391  10.597   1.306  14.978  0.1391  0.0039  0.5369
31583W        W47392  16.039   6.822   2.667  0.1100  0.3082 -0.2615
31584W        W47393  13.837   9.259  11.569 -0.1852  0.1297 -0.3427
31585W        W47394   8.334   0.763   3.044  0.2362  0.0564  0.2930
31586W        W47395  16.124   4.416   4.554  0.0281  0.1506 -0.0684
31587W        W47396   4.613  12.665   4.639 -0.0885 -0.2124  0.4000
31588W        W47397  12.375  10.316   3.685  0.0846  0.0976 -0.3375
31589W        W47398  16.473  13.651  11.487 -0.0062 -0.0657 -0.0671
31590W        W47399   2.804  13.478  14.515 -0.0558 -0.3060 -0.0184
31591W        W47400  14.585  11.733   1.319  0.4049 -0.1348  0.0175
31592W        W47401   1.058  11.900  12.709  0.2167  0.1248  0.0123
31593W        W47402  15.056   2.040  11.861  0.2844 -0.1844 -0.3217
31594W        W47403  11.689   7.675  11.624 -0.0112 -0.1944  0.1338
31595W        W47404  16.075  14.772  14.099 -0.1429  0.1325 -0.0473
31596W        W47405   7.809   9.375   3.264 -0.0496  0.1722  0.0172
31597W        W47406   1.983  17.594  14.101 -0.0179 -0.0680 -0.0746
31598W        W47407   5.509   8.437   0.269  0.1885  0.0345 -0.1527
31599W        W47408  16.586   1.911  11.788  0.1509  0.2492 -0.0470
31600W        W47409  15.415  10.258   1.708 -0.1821 -0.3310  0.2434
31601W        W47410   3.266   4.572  12.847  0.0047  0.1725  0.2532
31602W        W47411  14.396  10.577   1.401 -0.0402 -0.4514 -0.2859
31603W        W47412   9.248  10.846   2.358 -0.1826 -0.0288 -0.0832
31604W        W47413   7.091   1.212  11.171  0.0165  0.2280  0.0163
31605W        W47414  11.599  12.597   5.495 -0.1759  0.0541  0.3830
31606W        W47415  17.773   8.095   2.050 -0.1592  0.1413 -0.1618
31607W        W47416   8.993  10.842   1.088  0.1791  0.2891 -0.2732
31608W        W47417  11.726   2.229  12.954 -0.1034 -0.2232  0.1248
31609W        W47418  11.753   3.999   4.114  0.4875 -0.2508  0.1094
31610W        W47419   5.744  14.562  11.086  0.0949 -0.0575  0.0307
31611W        W47420  17.328   3.715   5.121 -0.1307 -0.2088 -0.0944
31612W        W47421   3.334   2.253  15.336  0.1448 -0.2342 -0.1663
31613W        W47422  12.070  12.315   4.961  0.1862  0.0627 -0.0969
31614W        W47423   6.219   3.832  11.428 -0.0584 -0.0279 -0.2339
31615W        W47424   0.219  16.620   0.590 -0.3146 -0.1801 -0.1562
31616W        W47425   9.039   8.761  10.864  0.2188 -0.0561  0.0728
31617W        W47426   1.891  14.474   1.025 -0.0802 -0.0037  0.2397
31618W        W47427   6.834  16.037   3.493  0.1457  0.3021  0.1107
31619W        W47428   1.127  12.901   1.444  0.1012 -0.1536  0.2298
31620W        W47429  11.607  17.985   0.928  0.2703  0.1132  0.1484
31621W        W47430   3.276  17.865   5.065  0.0373 -0.0285 -0.0165
31622W        W47431   1.478  15.008  15.223 -0.2951  0.0404  0.2503
31623W        W47432   6.449  13.828   2.104  0.1067  0.0723 -0.2902
31624W        W47433  17.164   2.607  11.689  0.0844 -0.0880  0.0564
31625W        W47434  16.061   6.050  15.879 -0.1694 -0.2961  0.1278
31626W        W47435   0.850  15.892  12.265 -0.2740  0.1082 -0.1100
31627W        W47436   7.360  16.888  15.522 -0.0973 -0.1192 -0.2165
31628W        W47437  11.812   5.709  14.553 -0.2904 -0.0277 -0.1233
31629W        W47438   8.866  13.469   0.701 -0.0603 -0.0769 -0.0568
31630W        W47439   4.032  12.867  15.718  0.0957  0.0451 -0.0675
31631W        W47440   7.960   4.839  12.775  0.1049 -0.0764 -0.2458
31632W        W47441   1.663   5.612   0.335 -0.0128  0.0673 -0.1849
31633W        W47442   6.186   4.226  13.161  0.1031  0.3194 -0.0168
31634W        W47443   7.393   0.297  13.662 -0.0468  0.0584  0.2215
31635W        W47444   0.258   2.245   5.078 -0.3468  0.0031 -0.0915
31636W        W47445  14.022   9.018  13.954  0.0182  0.1446 -0.1830
31637W        W47446  16.889  13.777  12.993 -0.1753  0.2291  0.1254
31638W        W47447   6.475   6.505  14.431 -0.1454 -0.0787 -0.0332
31639W        W47448   2.419   5.239  14.696  0.1207  0.0073 -0.3178
31640W        W47449  15.562   5.040   1.296 -0.2113 -0.0186 -0.1603
31641W        W47450   0.745  10.725  12.836 -0.2235 -0.2123  0.1807
31642W        W47451   0.489   7.106  14.052 -0.0522  0.2908  0.0385
31643W        W47452   0.171   1.547  14.746  0.3345  0.4388  0.0703
31644W        W47453  16.250  10.475   5.016  0.1123 -0.3665  0.4270
31645W        W47454   9.515  11.825  12.862  0.0057  0.1951 -0.2608
31646W        W47455   0.737   1.314   4.389 -0.0654  0.1210 -0.1073
31647W        W47456   5.169  13.872  16.256  0.0370  0.0294  0.4027
31648W        W47457   6.630  13.022  12.373 -0.0074  0.0672 -0.4019
31649W        W47458  13.824   2.802   4.465  0.0006 -0.5453  0.0728
31650W        W47459   3.559  10.242  15.961 -0.0552  0.0051  0.2749
31651W        W47460   8.376  12.147  13.198  0.0496 -0.6454  0.1914
31652W        W47461   1.023   3.757   2.291  0.0067  0.1721  0.1644
31653W        W47462   9.893  16.269  12.153  0.0080  0.1762  0.1436
31654W        W47463  15.035   5.156   4.350 -0.3613 -0.1959  0.2040
31655W        W47464   6.920  14.176   4.673 -0.0650 -0.0046 -0.0382
31656W        W47465  14.175  11.432  11.968 -0.0526 -0.0643  0.3137
31657W        W47466  17.459   6.725   1.653 -0.0816 -0.2146  0.0399
31658W        W47467   1.529   9.881   4.473 -0.0193  0.1257 -0.2534
31659W        W47468   0.412   2.939   0.813 -0.1350 -0.0623 -0.0550
31660W        W47469   3.231   7.129   3.981 -0.1670 -0.0319  0.0446
31661W        W47470   9.952   4.105  16.332  0.0208 -0.1225 -0.0686
31662W        W47471  11.564   0.915  12.677  0.1379  0.1249 -0.2530
31663W        W47472   8.867  11.806  15.632 -0.2812  0.0394 -0.1718
31664W        W47473  17.378   0.549   2.887  0.2211  0.2933  0.1485
31665W        W47474  14.359   2.657  13.343  0.3468 -0.0912 -0.3028
31666W        W47475   1.015  12.402  14.512  0.3052  0.3703 -0.0903
31667W        W47476   9.950   8.959   3.660 -0.0598 -0.0963  0.0342
31668W        W47477  12.640   2.858   2.412 -0.1774  0.1005  0.0887
31669W        W47478  16.160   4.952   0.381  0.1085 -0.4008  0.1390
31670W        W47479  12.650   9.945  14.901  0.2296 -0.0502 -0.1918
31671W        W47480   2.499   3.745   1.502  0.6000 -0.2564 -0.2395
31672W        W47481   4.070   1.433   0.415  0.0973  0.0569  0.1466
31673W        W47482   8.476   3.423   0.381 -0.4688  0.1590 -0.2981
31674W        W47483   4.922   0.916   3.601 -0.0354  0.2139 -0.0393
31675W        W47484  15.528   5.561   2.217  0.5641 -0.2217  0.3338
31676W        W47485   9.508   2.225   3.478 -0.0693  0.1255  0.0377
31677W        W47486   2.688  17.417  11.381 -0.1717 -0.0998 -0.0106
31678W        W47487  10.974   1.677   2.033  0.0308  0.2443 -0.0727
31679W        W47488  11.749  15.314  10.677  0.0975 -0.0539  0.1001
31680W        W47489   3.101  15.718  11.695  0.3503  0.2111  0.0178
31681W        W47490  12.976  12.386   3.175  0.2703  0.3274 -0.0373
31682W        W47491   1.909   9.799   1.506 -0.2814 -0.1467 -0.0868
31683W        W47492   5.838  13.709  15.459  0.1204 -0.0823  0.0183
31684W        W47493   5.708   9.817   6.332 -0.0024  0.3428 -0.0906
31685W        W47494  10.712   5.938   2.322 -0.0868 -0.3794 -0.0309
31686W        W47495   9.171   8.836   3.348 -0.1309  0.2311  0.0954
31687W        W47496   8.462   7.871   4.257 -0.1947 -0.0707 -0.0486
31688W        W47497  15.629   5.213  15.065 -0.2015  0.2554  0.0447
31689W        W47498  10.226   0.923  11.305 -0.1318  0.1133 -0.0674
31690W        W47499  13.831   3.859   0.890  0.1671  0.0289 -0.2068
31691W        W47500  17.451  13.675   5.196  0.1595 -0.0945  0.0832
31692W        W47501   4.174   9.696   1.705  0.1084 -0.2093  0.0601
31693W        W47502  15.620   1.471  15.853  0.0473  0.0743  0.0503
31694W        W47503  12.696   1.051  11.456 -0.4451 -0.1175  0.0859
31695W        W47504   0.624   5.408  11.692 -0.1800  0.0924  0.2084
31696W        W47505   7.379  12.458  15.041  0.0344  0.2143  0.0720
31697W        W47506  18.009   3.160   1.755 -0.1520 -0.1615 -0.2150
31698W        W47507  17.959  14.895   0.097 -0.1031  0.1945  0.0615
31699W        W47508  17.015   7.992  14.645 -0.2837 -0.1073 -0.0982
31700W        W47509   2.316  17.705  12.341 -0.1077 -0.4788 -0.1405
31701W        W47510  18.064   7.691  10.205 -0.1144  0.0248 -0.1236
31702W        W47511  10.939  15.040   5.206  0.3260 -0.1277  0.1932
31703W        W47512  12.929   1.119   4.278  0.3793  0.0005  0.1820
31704W        W47513   7.705  15.509  11.893 -0.1325 -0.3710  0.3381
31705W        W47514  17.188   3.772   3.911 -0.0250  0.1063  0.2072
31706W        W47515  12.816   4.436   0.692 -0.1505  0.1005  0.0280
31707W        W47516   3.366   5.302  13.398 -0.0522 -0.2789  0.1535
31708W        W47517   0.858  14.100  14.688  0.1464 -0.2129 -0.1725
31709W        W47518   8.603   6.644  12.629  0.1706  0.0120 -0.2704
31710W        W47519   7.894   2.976  13.938 -0.1023  0.0095  0.1069
31711W        W47520   9.608   3.168   2.439  0.0214 -0.1880 -0.2939
31712W        W47521  12.687  12.089   1.389 -0.1844  0.0513  0.0122
31713W        W47522   1.907   5.598   4.887  0.2858  0.4912 -0.2868
31714W        W47523  17.737  17.964   2.395 -0.1293  0.1852  0.1532
31715W        W47524  10.211   7.890   1.221  0.2878 -0.0978  0.1786
31716W        W47525   6.024  11.826  12.153  0.1455 -0.0596  0.1408
31717W        W47526   3.131  18.145   0.709 -0.1603  0.0903  0.0260
31718W        W47527  15.175  12.564   2.753 -0.1688 -0.1301  0.1814
31719W        W47528  13.546   4.235   6.035 -0.0317 -0.0947  0.2767
31720W        W47529  17.929   2.996   1.216  0.1844  0.1113  0.0652
31721W        W47530   6.807   1.328   0.524 -0.2220 -0.1597 -0.1486
31722W        W47531   9.607   9.479  12.997  0.0348  0.1466 -0.0696
31723W        W47532   4.630   7.574  14.444  0.1379 -0.4636 -0.0926
31724W        W47533   9.508   3.095  14.115 -0.0451 -0.1180 -0.0089
31725W        W47534   6.766   1.675  11.285 -0.0162 -0.2556  0.1428
31726W        W47535   2.250   4.707   1.266 -0.2998 -0.2320  0.0040
31727W        W47536  15.427   9.714  15.482  0.0125  0.0261  0.2379
31728W        W47537   7.159   9.050  15.876  0.0746  0.3485  0.0844
31729W        W47538  15.081  14.678   0.655  0.0880 -0.2473  0.2310
31730W        W47539  14.536  15.349  15.531 -0.0970 -0.3324  0.1072
31731W        W47540   0.579   4.804  15.970 -0.0798 -0.3152  0.3630
31732W        W47541   7.726   7.696   0.563  0.1460 -0.0979  0.1502
31733W        W47542   0.794  16.504   1.029  0.0596  0.2962  0.0450
31734W        W47543  16.329   0.091   5.769  0.1997 -0.2328  0.1446
31735W        W47544   2.519   9.112  11.529  0.2158  0.2359  0.0841
31736W        W47545  16.103  13.782  14.165 -0.1452  0.0477 -0.0682
31737W        W47546   6.175   9.670  14.226  0.1334 -0.1048  0.2309
31738W        W47547   3.783  16.806  13.392  0.2934 -0.2572 -0.1334
31739W        W47548  12.590   3.158  14.498 -0.1254  0.0675 -0.0320
31740W        W47549  11.331  14.296  11.447  0.0586 -0.1070 -0.0886
31741W        W47550   5.133   8.583  15.771  0.0453  0.0522  0.1380
31742W        W47551   0.805   6.619  15.718  0.1762 -0.0335 -0.2519
31743W        W47552  11.941   2.857  13.783  0.1080  0.1622 -0.0715
31744W        W47553   3.589   7.608  11.727  0.0187  0.0817  0.1056
31745W        W47554   2.580   4.232   1.106  0.0034 -0.1988  0.1969
31746W        W47555  10.423   4.590   4.331  0.0556 -0.0354 -0.2497
31747W        W47556   0.508   9.507   4.281  0.1899 -0.0161 -0.2083
31748W        W47557   5.022   5.834  11.343 -0.1100 -0.0938 -0.2610
31749W        W47558   5.885  13.809   0.807  0.1302  0.3315 -0.0870
31750W        W47559  14.334   6.099  14.887  0.0805  0.0680  0.0531
31751W        W47560   0.085   6.882   3.513 -0.1120 -0.0953  0.2073
31752W        W47561   3.807  13.503  15.335 -0.1722 -0.2215  0.2808
31753W        W47562   3.886  17.690  14.209  0.1847  0.1448 -0.1388
31754W        W47563  16.460   3.684  15.392  0.1298 -0.2567 -0.2086
31755W        W47564   1.078   0.347   0.714  0.0589 -0.0835  0.1153
31756W        W47565   1.504   7.726   5.818  0.1391  0.0878  0.0181
31757W        W47566   4.788  16.681  16.075 -0.0168 -0.2356 -0.2598
31758W        W47567   4.515  10.004   1.475  0.2340 -0.0164  0.2766
31759W        W47568   5.898  17.529   3.383 -0.1554  0.1512  0.0508
31760W        W47569   5.422  12.163   0.405 -0.1038  0.2834  0.1280
31761W        W47570   1.652  11.937  14.936  0.0892  0.2220  0.1108
31762W        W47571  17.911   0.179   5.551  0.1532  0.3325 -0.1629
31763W        W47572   7.403  10.313  14.676 -0.2992 -0.1501 -0.0844
31764W        W47573  14.012  13.315   5.377  0.2988  0.2874  0.2653
31765W        W47574  14.848  12.683   0.248  0.2341 -0.3385 -0.2092
31766W        W47575   2.796  17.481  12.760  0.0279  0.1756  0.1594
31767W        W47576  12.087   3.209   2.102  0.1087 -0.1008  0.1194
31768W        W47577  13.033   5.285   4.246  0.1152 -0.1083  0.0373
31769W        W47578   1.624  13.330  12.868 -0.0483 -0.2201  0.1102
31770W        W47579   4.566  13.334   1.200 -0.1876  0.2563  0.1343
31771W        W47580   5.407  13.774   3.644 -0.0791 -0.4449 -0.1409
31772W        W47581  16.129  17.829  12.672  0.1354 -0.2061 -0.1162
31773W        W47582   1.469  17.788  13.419 -0.3847 -0.2045 -0.3159
31774W        W47583   8.474  15.536   2.680  0.1616 -0.0342  0.1990
31775W        W47584   1.146   0.011   0.288 -0.0872 -0.3073  0.1602
31776W        W47585  13.342  10.266   4.049  0.1504 -0.0622  0.1843
31777W        W47586  11.135   7.789   1.116 -0.4561  0.3664 -0.1843
31778W        W47587   5.664  14.093   0.026 -0.0509 -0.1547 -0.0783
31779W        W47588   5.621  17.105   4.403 -0.1077 -0.2622  0.0456
31780W        W47589  10.404   4.726   2.765  0.0886 -0.3471  0.2557
31781W        W47590   3.696   4.545  14.079  0.0985 -0.1042 -0.3356
31782W        W47591   3.825  14.424   2.790  0.1071  0.3292  0.0751
31783W        W47592  17.747  17.993  16.098  0.0327 -0.1093  0.1976
31784W        W47593   8.133  14.191  13.833  0.1533 -0.0670 -0.0388
31785W        W47594  15.375   8.154  13.749 -0.3022 -0.1155 -0.1432
31786W        W47595   9.082   6.507  15.808  0.2097  0.0688 -0.1564
31787W        W47596  14.324  14.866   0.222 -0.1560 -0.0520  0.0013
31788W        W47597   8.710  12.708  12.856  0.0872  0.0689 -0.2320
31789W        W47598  16.563  15.653  16.018 -0.4051  0.0914  0.1777
31790W        W47599   7.512  11.826   2.720  0.1140  0.1178  0.3407
31791W        W47600  15.102  12.025  15.622 -0.1613  0.0814  0.0966
31792W        W47601  12.685   3.723   0.939 -0.0120  0.1638 -0.1912
31793W        W47602  14.467   4.891  12.753 -0.0903 -0.1584 -0.3114
31794W        W47603  12.301   5.625   4.630  0.1296  0.2431 -0.1314
31795W        W47604   1.108  13.126   2.542  0.1473  0.0129 -0.1172
31796W        W47605  16.612   3.594   2.771  0.1924  0.3021 -0.3385
31797W        W47606   8.385  13.422   3.247 -0.1056  0.3149  0.0835
31798W        W47607   1.827   3.572  14.239 -0.0484 -0.0529  0.1732
31799W        W47608  14.701   5.872   5.421 -0.5688 -0.1963 -0.2589
31800W        W47609  10.930  12.648   0.781  0.0261 -0.1716 -0.1127
31801W        W47610  12.658   4.208   3.230 -0.1681  0.1079  0.2432
31802W        W47611  15.637   1.859   4.981  0.2560 -0.2801  0.1670
31803W        W47612   8.311  12.639  11.727 -0.1136 -0.1040  0.0002
31804W        W47613   7.870   0.053  14.079  0.1857 -0.3952  0.1254
31805W        W47614   8.404  13.788  11.613 -0.4469  0.2266  0.0329
31806W        W47615   6.769   9.969   4.034  0.1089  0.2895  0.0137
31807W        W47616   8.563   1.963   5.627  0.1103 -0.1260  0.1090
31808W        W47617  14.043  11.536  14.642  0.0114  0.2112  0.2068
31809W        W47618  15.746  15.621  12.833  0.2938  0.0828 -0.0884
31810W        W47619   9.227   1.497  13.257  0.2026 -0.0554  0.2926
31811W        W47620   4.930  17.144   1.659  0.1122  0.2113 -0.2177
31812W        W47621   4.772   6.985  13.797  0.2691  0.0896 -0.2927
31813W        W47622   7.482  16.433   0.756 -0.3081  0.0557  0.2805
31814W        W47623  15.529   0.716  12.227 -0.0973  0.1333 -0.1117
31815W        W47624   0.167  13.882   0.830 -0.0834 -0.0160 -0.5305
31816W        W47625   7.382   7.088  14.680 -0.2030 -0.2226 -0.2318
31817W        W47626  10.219   5.888  14.074  0.1746 -0.0685 -0.3416
31818W        W47627   2.449  12.830  12.947  0.0345  0.0859  0.6929
31819W        W47628   3.456   5.392  12.839 -0.2578  0.0727  0.1936
31820W        W47629  16.656  17.144   3.611  0.1854 -0.0127  0.2109
31821W        W47630  14.339  14.575   2.639  0.1396  0.1211 -0.0238
31822W        W47631  13.624   5.315   5.225 -0.0528  0.1567 -0.3752
31823W        W47632   0.549   6.943  14.922 -0.0336 -0.1311  0.3630
31824W        W47633   8.996  16.733   3.801  0.0727  0.0871 -0.1959
31825W        W47634  12.513  14.132   2.688 -0.0529 -0.0435 -0.1926
31826W        W47635  11.412   4.443   4.265 -0.2620  0.0229 -0.3037
31827W        W47636  15.779   1.087   4.513 -0.1846  0.2845 -0.0908
31828W        W47637   8.158   5.906  11.966  0.0291  0.1102 -0.0706
31829W        W47638  10.845   1.647   1.154  0.2613 -0.1068  0.1558
31830W        W47639   8.897   1.962   0.624 -0.2958 -0.2662 -0.4747
31831W        W47640   6.385  16.484  11.641 -0.2085  0.1323 -0.0259
31832W        W47641  17.038  10.348   4.543 -0.0327 -0.2149 -0.1629
31833W        W47642   9.341  12.485   3.015 -0.2720  0.0555  0.3576
31834W        W47643  10.243   9.934  16.243 -0.0750  0.0480  0.0273
31835W        W47644  13.712  16.702   2.301  0.0047 -0.0901 -0.0386
31836W        W47645   0.947   7.274   3.465 -0.2062  0.0417  0.1538
31837W        W47646  14.362  15.633  12.571 -0.1293 -0.0707  0.0408
31838W        W47647  16.852   0.028   5.671 -0.2101 -0.0154  0.0155
31839W        W47648   5.342  16.663   5.165  0.1026 -0.1664 -0.1707
31840W        W47649  11.746   1.961  11.505  0.0794  0.0552  0.0503
31841W        W47650   0.209  13.913   4.290 -0.1497  0.0364  0.0802
31842W        W47651  14.749  11.936  14.603 -0.0892  0.2217  0.4301
31843W        W47652   1.580  10.643  14.209 -0.3364  0.0946 -0.3206
31844W        W47653   0.198  10.091  12.972 -0.0831 -0.2730 -0.2024
31845W        W47654   1.512   7.908   1.693  0.0677 -0.1315  0.0970
31846W        W47655   3.009   9.651   2.942  0.1422  0.0647  0.2975
31847W        W47656   8.709   9.274   3.305 -0.2784 -0.2967  0.0325
31848W        W47657   0.143   1.383  12.217 -0.0147 -0.0567  0.1052
31849W        W47658  10.473  13.190   0.444 -0.2857 -0.0473  0.1892
31850W        W47659   3.257  17.688   2.199 -0.3577 -0.0424 -0.1739
31851W        W47660   5.123   1.983   0.309  0.0655  0.1027 -0.0187
31852W        W47661   6.899   2.329  16.060 -0.2241  0.0214 -0.0251
31853W        W47662  15.314   1.796  16.157  0.0187  0.0967  0.0231
31854W        W47663   8.069  15.232  15.674  0.0677 -0.0809 -0.1653
31855W        W47664  15.205  16.022   1.003  0.3742 -0.0134  0.0618
31856W        W47665   3.944  15.631  12.474  0.1296 -0.2475  0.1025
31857W        W47666   9.373   7.862   2.677 -0.2697 -0.1591 -0.2040
31858W        W47667  17.175  12.112  13.463 -0.2054  0.1729 -0.0488
31859W        W47668   7.713   3.699  12.248 -0.0707 -0.1894  0.1596
31860W        W47669   9.779  16.764   1.458  0.1311 -0.0781 -0.3157
31861W        W47670   6.096  17.423   2.588 -0.2372  0.0477  0.1533
31862W        W47671   6.171  14.889  12.517 -0.1659 -0.1316 -0.1589
31863W        W47672  15.249  13.029   0.058  0.1095  0.4415  0.2281
31864W        W47673   0.574   0.610   6.362 -0.3671  0.1010 -0.3484
31865W        W47674   7.890  10.578   3.416 -0.1158  0.0797  0.1205
31866W        W47675   5.173   4.718   3.592 -0.0070  0.1340  0.0327
31867W        W47676   9.573  14.769  12.560 -0.3013 -0.1531 -0.2335
31868W        W47677  11.086  14.615   0.900 -0.0711  0.0705  0.4495
31869W        W47678  18.122   3.676   4.169 -0.2016 -0.0138 -0.0987
31870W        W47679   0.094  14.690  11.418 -0.0787 -0.2991  0.0872
31871W        W47680   5.268  16.744  14.850 -0.2699 -0.0512 -0.1844
31872W        W47681   4.282  13.745  15.989 -0.2542  0.1612 -0.0984
31873W        W47682   8.365  16.553  11.125 -0.1646  0.2376  0.0570
31874W        W47683   1.927  16.300   1.136 -0.1656 -0.1029 -0.0383
31875W        W47684   2.489   7.900   4.960  0.0844 -0.1676  0.1046
31876W        W47685  10.057  16.817   3.489 -0.0758 -0.1220 -0.1758
31877W        W47686  12.248  14.333   1.270 -0.0644  0.2606  0.2095
31878W        W47687   8.336   4.529  12.726 -0.1599  0.0199  0.0122
31879W        W47688  12.146  15.259   1.229  0.3140 -0.0770  0.0205
31880W        W47689  16.284   7.002  11.621  0.0714 -0.2606  0.0178
31881W        W47690  18.107   6.023  11.431  0.0835  0.2034  0.1373
31882W        W47691  16.801  17.872   5.957 -0.0425 -0.0792 -0.0106
31883W        W47692  12.274   4.189   1.852 -0.0837  0.0352 -0.3012
31884W        W47693   5.324   9.845  13.236 -0.1881  0.0002  0.2568
31885W        W47694  12.839  10.148   4.219  0.0062  0.2298  0.0202
31886W        W47695  16.098   4.523  14.392 -0.4392  0.0232 -0.0711
31887W        W47696  12.633   6.727  14.920 -0.0836 -0.4030 -0.1375
31888W        W47697   8.917   7.254   1.864  0.0358 -0.5333  0.2371
31889W        W47698  14.929   7.292   2.672  0.0271 -0.0660  0.0603
31890W        W47699   9.176  14.612   1.976  0.1794  0.2416 -0.0432
31891W        W47700   9.333   7.870   1.254  0.5937  0.0402  0.2244
31892W        W47701   8.467   8.786  15.737 -0.0075 -0.4064  0.2200
31893W        W47702  15.610  16.990   3.121  0.1922  0.0757  0.0332
31894W        W47703   3.827   0.697   2.090 -0.2961 -0.1024 -0.2937
31895W        W47704  16.401  16.150   2.741 -0.1705 -0.2773 -0.0468
31896W        W47705   2.442  10.344   0.229  0.1082  0.1033 -0.1075
31897W        W47706   8.701  15.903   3.733  0.0931 -0.3677 -0.1323
31898W        W47707   6.345  17.806   1.362  0.0749 -0.4054  0.1976
31899W        W47708   5.689  16.714  10.989  0.0321  0.0198  0.0511
31900W        W47709  12.547   0.175   3.450  0.0129  0.0140 -0.0448
31901W        W47710   6.833   4.906  11.711 -0.2457  0.1668 -0.1694
31902W        W47711   6.893   0.859   0.177 -0.0393 -0.0324 -0.0731
31903W        W47712  16.080   8.702  11.565 -0.1409  0.0190  0.0213
31904W        W47713  10.915  11.950  10.433  0.2366  0.1416  0.0964
31905W        W47714   8.019  15.763  10.404  0.1528 -0.0154 -0.0815
31906W        W47715   4.567   7.404  12.185  0.4801 -0.0234 -0.1169
31907W        W47716  15.379   0.654   4.806 -0.1929  0.0420 -0.2218
31908W        W47717  15.719   3.015   4.762 -0.2078  0.0046  0.2459
31909W        W47718   0.246  13.724   3.313  0.1170 -0.5141 -0.2532
31910W        W47719   1.153   9.072  12.221 -0.0606  0.3604 -0.0934
31911W        W47720   2.528   2.781   0.134  0.1832  0.0310  0.0250
31912W        W47721   5.208   6.150   0.995 -0.0396  0.0439 -0.1292
31913W        W47722  14.219  12.852   4.034 -0.1109  0.0269  0.1792
31914W        W47723  16.320   2.901   3.492 -0.0763  0.1307 -0.0471
31915W        W47724   2.614   4.177  14.024 -0.0490 -0.1103  0.1407
31916W        W47725   8.793   9.012   1.017 -0.2629 -0.4678 -0.2196
31917W        W47726   3.670  13.440   0.776  0.0697 -0.0768 -0.1692
31918W        W47727   7.278   2.793   4.250  0.3056 -0.0098  0.0146
31919W        W47728  10.293  17.133   5.228  0.0332  0.0151 -0.2038
31920W        W47729  13.261   7.506   1.549  0.0470  0.0108 -0.0722
31921W        W47730   6.226  12.531  15.874 -0.4577  0.0757  0.0826
31922W        W47731   8.433  11.182  16.169 -0.2712 -0.0042 -0.0415
31923W        W47732  10.181   1.208   2.166  0.0837  0.3703 -0.1414
31924W        W47733  15.424  12.869  13.344 -0.0064 -0.2275 -0.0534
31925W        W47734   9.245   8.919  15.231 -0.3951 -0.0760  0.2473
31926W        W47735   2.133  13.275  14.073 -0.2621 -0.3134  0.4154
31927W        W47736   6.876   3.044   0.688  0.0347 -0.3361 -0.0114
31928W        W47737   3.620   8.103   3.744 -0.0023 -0.2627 -0.1093
31929W        W47738   8.214  11.094  11.134  0.1811 -0.0781 -0.1794
31930W        W47739   1.702   6.610  15.405  0.3929  0.0128  0.3575
31931W        W47740  10.127  11.498   5.103  0.3650  0.1120 -0.2458
31932W        W47741  10.946   0.293   5.049  0.1507  0.1420  0.0949
31933W        W47742  12.117  15.369   4.763 -0.1056  0.0350 -0.5227
31934W        W47743  15.902   3.227   0.743  0.1102 -0.2090 -0.1332
31935W        W47744   4.451  11.544   0.001 -0.1547  0.2461 -0.2239
31936W        W47745  17.024   4.951  14.898  0.0660 -0.2396  0.2174
31937W        W47746   2.890   5.996  11.187 -0.1896 -0.2255  0.1194
31938W        W47747  10.199  11.550   0.431 -0.1621 -0.0924  0.0174
31939W        W47748   5.328   5.185  12.926  0.1915 -0.2532  0.0734
31940W        W47749   9.053   2.285  12.036  0.1462  0.0327  0.2512
31941W        W47750   0.052  17.947  12.951  0.1233 -0.1081  0.2180
31942W        W47751   4.284   1.428  13.195  0.1537 -0.3972  0.1802
31943W        W47752   7.082  17.762  13.874  0.1833 -0.1691 -0.0225
31944W        W47753  13.338   4.550  15.576  0.0283 -0.0691  0.0312
31945W        W47754  12.116  15.571   1.660  0.0158  0.2251 -0.0585
31946W        W47755   2.802   8.709  11.118  0.3624  0.2040  0.1988
31947W        W47756   8.234   1.053   1.712  0.2351  0.1623  0.1230
31948W        W47757  18.030  15.762   4.311  0.0937  0.0238 -0.3107
31949W        W47758   8.920   4.575  13.440 -0.3708 -0.2189 -0.0856
31950W        W47759   2.653   7.733   4.292  0.0363 -0.0045  0.1303
31951W        W47760   4.564  15.265   4.997 -0.3601  0.0093  0.0339
31952W        W47761  13.207   8.727   2.112 -0.0691 -0.2308 -0.0482
31953W        W47762  13.160   4.225  13.826  0.2165 -0.4104 -0.0594
31954W        W47763   2.024  10.257   2.845  0.2018 -0.0201  0.2456
31955W        W47764  12.038  12.702  11.399 -0.2765 -0.0591 -0.0973
31956W        W47765  10.146  11.306  15.043  0.2954  0.4611 -0.0553
31957W        W47766   2.246   1.569   0.022 -0.1498  0.0731  0.2577
31958W        W47767  10.366   9.240  13.967 -0.1684  0.1785 -0.0916
31959W        W47768  10.052  17.870  12.647 -0.0132  0.2637  0.1322
31960W        W47769   4.306  10.782   6.179  0.2470  0.0664  0.0451
31961W        W47770   4.461   5.550   0.468 -0.1956 -0.2131 -0.0323
31962W        W47771   1.338   8.423   5.187  0.1011  0.1294  0.1387
31963W        W47772   8.571  13.601  13.817 -0.2859 -0.1315 -0.0605
31964W        W47773  10.351  13.117   6.055  0.0510  0.4436  0.0236
31965W        W47774   7.095   4.892   3.419  0.1020 -0.1546  0.1932
31966W        W47775   1.678   3.130   1.863  0.3513 -0.1382  0.3522
31967W        W47776   0.563   5.885  14.147 -0.0542 -0.0183  0.3633
31968W        W47777  18.084   4.507   0.602 -0.2228  0.0916  0.2427
31969W        W47778   8.006   8.844   1.242  0.1936  0.0023  0.2014
31970W        W47779   6.596  10.472   3.311 -0.2190 -0.1675 -0.0295
31971W        W47780   4.864  12.905  12.702 -0.1483  0.0660  0.1952
31972W        W47781   3.966   3.698   2.230 -0.1984  0.1578 -0.0748
31973W        W47782   9.903   0.860  10.079 -0.0524  0.1501  0.0914
31974W        W47783  15.251  15.590  12.708 -0.0995 -0.0154  0.1250
31975W        W47784  12.596   8.783   3.874  0.2550  0.1122  0.1484
31976W        W47785  16.330  17.819   3.033 -0.2080  0.0056 -0.0873
31977W        W47786   7.924  17.746  11.015  0.0950  0.1911 -0.0513
31978W        W47787  14.556  13.703  12.236  0.0116  0.3951  0.0243
31979W        W47788  17.412  11.197  10.904  0.1561 -0.1229  0.1349
31980W        W47789  15.933   2.367  14.449  0.1539  0.2459 -0.1136
31981W        W47790  17.736  12.499  12.973 -0.1755 -0.2191  0.2161
31982W        W47791  13.647   3.775   1.378 -0.0009  0.2267  0.0131
31983W        W47792  15.778  10.133  13.632  0.1324 -0.1541  0.2241
31984W        W47793  12.935  15.074  11.477 -0.0568 -0.0280 -0.2646
31985W        W47794  13.025   5.248   1.966 -0.1398  0.2065  0.0254
31986W        W47795   3.526  13.074   1.931  0.0656  0.2775  0.0281
31987W        W47796  11.374   1.313  12.364  0.1259 -0.0101 -0.2138
31988W        W47797  16.806  14.184   3.627 -0.2183 -0.3448 -0.0273
31989W        W47798  11.709   9.950  12.697 -0.3978 -0.3807 -0.1595
31990W        W47799  16.054   9.596  12.158 -0.0003  0.2216  0.0032
31991W        W47800  16.562   8.781   1.479  0.0247 -0.1879  0.0472
31992W        W47801  17.182   5.566  15.555 -0.1231 -0.1269 -0.0355
31993W        W47802   1.808   4.234   0.099 -0.4710  0.3959  0.0724
31994W        W47803   6.607  16.204   2.657 -0.2410 -0.1326  0.2919
31995W        W47804   5.575   5.679  12.965 -0.0198  0.0023 -0.1802
31996W        W47805   3.165  14.805  13.226 -0.1075  0.4214  0.3407
31997W        W47806   2.965  16.341   3.490 -0.0382 -0.0601 -0.0493
31998W        W47807   9.670  11.503  11.431  0.0666 -0.4296  0.2095
31999W        W47808   7.528   0.985  14.150  0.0671 -0.0254 -0.0066
32000W        W47809  17.927  12.465  11.452 -0.2419  0.1752 -0.1566
32001W        W47810   6.726   0.389  12.275  0.0233  0.3199 -0.0489
32002W        W47811   3.099   3.279  15.476  0.3218 -0.2660  0.1833
32003W        W47812   6.692   0.536  13.741  0.1466 -0.2691 -0.3333
32004W        W47813  16.716  12.982   5.209 -0.0550 -0.2578  0.1331
32005W        W47814  12.456   5.480  13.376  0.0861  0.2290  0.0350
32006W        W47815   3.485   0.163  13.053 -0.2049 -0.1865 -0.0068
32007W        W47816  17.294  17.128  14.885  0.1984  0.0170 -0.1685
32008W        W47817  13.121  14.993   3.709 -0.2743  0.0508 -0.1747
32009W        W47818  11.500  12.351   0.677 -0.1053  0.0799  0.0354
32010W        W47819   8.005  15.820   4.815  0.1940 -0.4211  0.0579
32011W        W47820   0.733   0.382  12.386 -0.0174  0.0710 -0.1351
32012W        W47821  16.360   4.776  11.293  0.1236 -0.0691  0.2019
32013W        W47822   5.349   3.768   2.745 -0.1111  0.0903  0.1244
32014W        W47823   2.261   0.231  13.552 -0.2103 -0.0481 -0.1197
32015W        W47824   2.258  12.773   5.515 -0.1217 -0.1306  0.2029
32016W        W47825   9.644  17.920  12.291  0.1417 -0.0931  0.0393
32017W        W47826   9.092  17.250  11.526 -0.2577  0.2427 -0.0893
32018W        W47827   6.908   9.096   0.343 -0.3722 -0.3172 -0.1739
32019W        W47828  13.864   4.551  13.312  0.0243 -0.0778 -0.2224
32020W        W47829  14.823  14.037   0.851 -0.1554  0.0614 -0.1722
32021W        W47830   1.456   7.726  16.243  0.1732  0.1932 -0.1681
32022W        W47831  16.151   5.557  12.186 -0.2836 -0.0859 -0.0574
32023W        W47832   4.878   6.622  15.144 -0.6201 -0.0699 -0.0137
32024W        W47833  14.130  10.288   4.475 -0.1563  0.3158  0.0519
32025W        W47834   0.509  15.164  11.875 -0.1801 -0.1240  0.2228
32026W        W47835  12.328  15.710  13.431 -0.1176  0.1158  0.1145
32027W        W47836   8.044  11.866   5.204 -0.0199  0.0574  0.1118
32028W        W47837   9.207   3.675  12.381  0.1139  0.0383 -0.0684
32029W        W47838   8.274   7.347   6.087  0.3118  0.0370 -0.1284
32030W        W47839   3.856  15.311   1.304  0.4045  0.2172  0.0849
32031W        W47840  11.030   7.048  14.230  0.1729 -0.0914 -0.1976
32032W        W47841  15.210   3.432  14.730 -0.1211  0.4519  0.0491
32033W        W47842  10.988  14.245   1.786  0.2258 -0.3574 -0.0432
32034W        W47843  13.777   9.332   4.826  0.4046 -0.2630 -0.2120
32035W        W47844  12.627  10.938  14.896 -0.0004 -0.2548 -0.1119
32036W        W47845  17.843  13.161   3.184  0.1909  0.2696  0.0717
32037W        W47846  17.499   8.461   0.476 -0.1232  0.0608 -0.0216
32038W        W47847   9.110   7.016  13.760  0.2326  0.0297 -0.0003
32039W        W47848   0.408  16.706   2.048  0.0078 -0.3191 -0.0144
32040W        W47849   8.346  12.970  13.328 -0.1837 -0.0151 -0.1074
32041W        W47850  10.561  15.810   2.613  0.0309 -0.1335 -0.0659
32042W        W47851  15.369  12.605  11.085  0.2929 -0.2089 -0.1452
32043W        W47852   9.079  17.092  14.898 -0.0456  0.0440 -0.0615
32044W        W47853  10.727   3.642  13.790 -0.1057  0.0781  0.1709
32045W        W47854   9.802   7.099   0.977 -0.1829  0.2900  0.2400
32046W        W47855   5.460  17.198  13.080  0.1314  0.0686  0.0405
32047W        W47856  15.645   0.638   3.598 -0.1584  0.2331 -0.0944
32048W        W47857  15.852  13.536  13.092 -0.0153  0.2152  0.1307
32049W        W47858   2.335  17.651  15.456  0.0435  0.0766  0.2030
32050W        W47859   7.884   6.846   1.177  0.2568  0.2911  0.0837
32051W        W47860  12.380   1.038  14.329  0.0002  0.0817  0.0945
32052W        W47861   2.962   8.560   0.446  0.0985 -0.0477  0.4712
32053W        W47862   0.535  17.959   2.432 -0.2118 -0.1731 -0.0318
32054W        W47863   7.603   1.240   3.328  0.0096 -0.1387 -0.1221
32055W        W47864  12.863   5.616  16.010  0.1336  0.3342  0.0631
32056W        W47865   5.086   7.716  11.762 -0.1651  0.2123 -0.3499
32057W        W47866   6.389   5.623   3.153  0.1640  0.1132  0.0113
32058W        W47867  15.368   1.882  11.324 -0.3686 -0.1027  0.0699
32059W        W47868  10.476   3.671   3.951 -0.0181  0.0769 -0.2722
32060W        W47869  12.652   3.556   0.362 -0.0854 -0.2069 -0.0577
32061W        W47870  11.515   5.219   4.521  0.3777 -0.1145 -0.0538
32062W        W47871   9.795   5.625  16.096  0.2686  0.3109 -0.0427
32063W        W47872  18.101   5.740  11.959  0.1670 -0.2070  0.2036
32064W        W47873  13.046  16.556   4.000 -0.1818  0.2201  0.2146
32065W        W47874   2.768   7.656   3.097  0.1095  0.2265 -0.0371
32066W        W47875  14.786  13.305   4.671 -0.0465  0.2113  0.2226
32067W        W47876  13.448  11.609   0.984 -0.0246 -0.1468 -0.0289
32068W        W47877  13.819   8.534   2.859  0.2280 -0.0298 -0.2071
32069W        W47878   5.323   4.076  12.743  0.6024 -0.0854 -0.1790
32070W        W47879   1.196   0.593  11.585 -0.1465 -0.2979 -0.1782
32071W        W47880   9.665   1.017   4.966  0.1831 -0.0980  0.3133
32072W        W47881   6.721   5.884   5.326  0.2382  0.0265 -0.2184
32073W        W47882   1.967  14.946  11.040  0.1414 -0.2233 -0.0653
32074W        W47883  15.384  10.840  13.777 -0.2072 -0.4002 -0.2137
32075W        W47884   5.872  10.929   3.450  0.1148  0.3260  0.1046
32076W        W47885  11.706  11.597   4.784  0.1716  0.0631 -0.2217
32077W        W47886  12.144  16.487   5.884 -0.0263  0.0486 -0.0715
32078W        W47887  10.681  16.972   1.124 -0.0414  0.2578 -0.1937
32079W        W47888   3.160  16.218   2.301 -0.0936  0.2671  0.3773
32080W        W47889   3.899   0.201  14.504  0.1193 -0.0277  0.2582
32081W        W47890   3.417   7.945   1.824  0.0553 -0.2208 -0.0525
32082W        W47891   5.637  13.559  14.365 -0.0911  0.0647 -0.0360
32083W        W47892   6.379   4.411   3.897 -0.2232  0.0451  0.0372
32084W        W47893  10.471   9.983   2.818 -0.2812 -0.2493 -0.1626
32085W        W47894   5.399  15.747   1.437 -0.1025 -0.0998  0.1429
32086W        W47895  10.532   4.154  13.959  0.1858  0.3025  0.2295
32087W        W47896   5.323   8.745   5.377 -0.2105 -0.0676  0.3893
32088W        W47897  13.111   3.247  13.608 -0.1288  0.3977 -0.0450
32089W        W47898  14.741   5.514  13.313 -0.1110  0.1411  0.2227
32090W        W47899  10.872  13.221   1.451 -0.2468 -0.1844 -0.0410
32091W        W47900  10.460  10.249   2.372  0.1877  0.0147  0.2054
32092W        W47901  16.661   7.249  14.040 -0.3708 -0.0509  0.2868
32093W        W47902   8.110   1.020  11.544  0.1735 -0.2307 -0.0578
32094W        W47903  11.249   4.680  14.442 -0.3029  0.0558 -0.0194
32095W        W47904  12.503  16.226   0.134  0.4883 -0.0546  0.0290
32096W        W47905  11.510   3.742   0.145  0.2390  0.0805 -0.3208
32097W        W47906   6.621  15.749   2.407  0.2738  0.4362 -0.0023
32098W        W47907   6.186   5.130  15.070 -0.2794 -0.0523  0.2075
32099W        W47908  18.167   5.889  12.572 -0.4867  0.2308 -0.0049
32100W        W47909   9.053  14.449  15.114 -0.0900 -0.2318 -0.0785
32101W        W47910   4.995   9.888  12.832  0.1982  0.1433  0.0470
32102W        W47911  16.169  14.520  12.050  0.0963 -0.0657 -0.2741
32103W        W47912  16.108  18.213   1.710  0.1651  0.0855  0.3011
32104W        W47913   0.915   5.501   6.182 -0.1957 -0.0699  0.1654
32105W        W47914  11.796  16.361   2.364  0.0204 -0.2888  0.1422
32106W        W47915  12.473   5.337   5.056 -0.1867 -0.1622 -0.1247
32107W        W47916   4.836   7.569   2.714  0.0230  0.0457  0.0786
32108W        W47917  11.463  10.242  11.052  0.0510 -0.2519 -0.0064
32109W        W47918  14.921  17.531   2.770  0.1042 -0.0009  0.1507
32110W        W47919  11.380   9.788   2.349  0.1763  0.1701  0.2729
32111W        W47920  13.891  11.122   0.129  0.0702  0.0179  0.1496
32112W        W47921   4.010  16.304  14.044 -0.0436  0.1133  0.1495
32113W        W47922   0.407  16.546  13.066 -0.0542 -0.1011  0.3029
32114W        W47923   6.393   4.259  16.222 -0.2825 -0.1085  0.0737
32115W        W47924   4.766   4.359  16.335  0.2304  0.2669 -0.1525
32116W        W47925  14.669   0.360   0.118  0.0431  0.0014  0.3594
32117W        W47926   9.381   0.575   4.951 -0.2779  0.1553  0.0120
32118W        W47927   0.833   7.461  15.812  0.1741  0.3742  0.0106
32119W        W47928   1.133   8.482  12.089 -0.0614  0.1355 -0.1600
32120W        W47929  10.572   5.208  12.524  0.0379 -0.1067  0.4127
32121W        W47930  14.856   0.314  15.782 -0.2852 -0.1729 -0.1248
32122W        W47931   1.801   1.985  13.721 -0.2058  0.1965  0.0280
32123W        W47932   4.510   0.262   4.359  0.2810  0.2605  0.0202
32124W        W47933   8.107   2.407  10.417 -0.1120  0.0178  0.2108
32125W        W47934   0.541  14.702   4.818 -0.0239  0.1960 -0.2298
32126W        W47935   3.532  11.892   2.794 -0.0726  0.0429  0.1532
32127W        W47936  16.684   6.985  12.334 -0.2386 -0.1527  0.1515
32128W        W47937   8.914   9.756   2.417  0.1820 -0.0400 -0.2446
32129W        W47938   6.263   0.066  14.615 -0.0497 -0.1057 -0.1217
32130W        W47939   4.127   3.720   2.739 -0.0271 -0.2894  0.0470
32131W        W47940   2.989   3.926   2.661 -0.3007  0.0392 -0.0534
32132W        W47941   0.715  16.560   5.170  0.0615  0.0925  0.1532
32133W        W47942   6.982   2.099  11.415 -0.2766 -0.1691 -0.0390
32134W        W47943   2.998   3.931   1.416  0.1533  0.0590 -0.0663
32135W        W47944  16.859  10.828  13.216  0.1212  0.1195 -0.1679
32136W        W47945   2.227  14.537   0.129  0.0281  0.0208 -0.1778
32137W        W47946   2.730   7.428  15.641  0.1033 -0.2822 -0.0436
32138W        W47947  18.120   3.621   3.569  0.0611  0.1107  0.0418
32139W        W47948   2.567   0.477   3.395 -0.1397 -0.0098  0.1559
32140W        W47949   7.169   7.978  11.482 -0.0644  0.1871 -0.1240
32141W        W47950   5.162   8.169   2.765 -0.1257 -0.3543 -0.0284
32142W        W47951  14.300  15.139  15.109 -0.0937 -0.0545  0.0364
32143W        W47952   3.997  14.048   0.661  0.3852 -0.0254 -0.0042
32144W        W47953   6.151   8.564   2.956  0.0050 -0.0599  0.0285
32145W        W47954   7.140  17.512  12.552 -0.0647  0.2762  0.3184
32146W        W47955   5.015  10.238  14.627  0.0465  0.0989 -0.0026
32147W        W47956  14.703   0.302  14.461  0.0543  0.0569 -0.1478
32148W        W47957  17.649   5.862   5.262 -0.1115 -0.0124 -0.2860
32149W        W47958  13.925  13.130  14.089  0.2795  0.2585 -0.2505
32150W        W47959  13.337   4.200  14.810 -0.3342 -0.0825 -0.3284
32151W        W47960  13.555   5.076  11.871 -0.4988  0.1665 -0.0288
32152W        W47961  16.080  16.462  13.173  0.2520 -0.1657 -0.4500
32153W        W47962  14.880  12.505  13.968  0.1881  0.1958  0.1769
32154W        W47963  11.334  14.567   2.311  0.0993  0.2671 -0.0490
32155W        W47964   3.209   1.548   0.737  0.0210  0.2722 -0.2188
32156W        W47965   0.801   9.431   1.702 -0.2724 -0.0053  0.0563
32157W        W47966   9.333   6.703  12.553 -0.1361  0.0685 -0.0306
32158W        W47967   3.745   8.950   4.169  0.2728 -0.2240  0.0845
32159W        W47968  10.842  12.397   5.488  0.3276 -0.4524  0.0309
32160W        W47969   4.340  10.977   5.154 -0.0442  0.3921 -0.1501
32161W        W47970  18.054   1.266  14.496  0.1497 -0.1931  0.1011
32162W        W47971   3.378   9.530   4.846 -0.1212  0.1693 -0.1557
32163W        W47972   3.258  14.705  10.813  0.1227  0.3271  0.0384
32164W        W47973   8.161   1.800  14.150  0.1175 -0.2713 -0.2045
32165W        W47974   4.295   4.310   0.558  0.1783  0.1084 -0.0148
32166W        W47975   6.185  10.887  13.513  0.0696  0.1184  0.3722
32167W        W47976  16.126  15.881   0.688  0.3842  0.2481 -0.0567
32168W        W47977  11.538   8.070  13.568  0.1891  0.0013  0.0235
32169W        W47978  12.329  13.246  13.192  0.2659 -0.2865  0.1820
32170W        W47979  17.262  16.811   3.944  0.0548  0.0260 -0.1323
32171W        W47980   9.265  17.132  16.039 -0.2740  0.0619  0.2922
32172W        W47981   2.751  17.036   0.310  0.1361  0.4242 -0.4332
32173W        W47982   9.799  13.702  14.734  0.1877  0.1269  0.0204
32174W        W47983   7.074   3.533  11.493 -0.0598  0.2288 -0.0802
32175W        W47984  11.646   9.053  15.376 -0.3006 -0.1589 -0.1288
32176W        W47985  11.457   2.447   3.581 -0.2328  0.2226 -0.1586
32177W        W47986   9.376   1.935  11.312  0.0368 -0.2275  0.0019
32178W        W47987  10.361  13.699  14.813 -0.2388  0.0122 -0.2419
32179W        W47988   7.229   1.387   4.892  0.0242 -0.2785 -0.0361
32180W        W47989   0.146   0.091   1.741  0.1334  0.0018  0.1828
32181W        W47990   0.708  10.627  12.316 -0.1549 -0.0704  0.0585
32182W        W47991   2.003   9.074  11.082 -0.2007  0.2076  0.0046
32183W        W47992  11.520  12.346  14.476 -0.0034  0.2415  0.0103
32184W        W47993   6.012   9.069  16.088  0.1475  0.4695 -0.1399
32185W        W47994  17.381  17.023  13.011  0.1293 -0.0182  0.3580
32186W        W47995   2.714  14.467  14.969 -0.1451 -0.2228 -0.0079
32187W        W47996  14.151  18.132  13.688  0.2483 -0.1805 -0.0689
32188W        W47997  12.484   7.335  13.877 -0.1536 -0.2366  0.0357
32189W        W47998   4.904  12.206  15.749 -0.1263 -0.0286 -0.2858
32190W        W47999  15.826   6.496   1.370  0.3090  0.0321  0.2690
32191W        W48000  12.593   0.781   1.076  0.3085 -0.1407  0.0073
32192W        W48001   2.617   4.545   0.510 -0.1045 -0.0388 -0.0699
32193W        W48002   9.706  14.394  13.415  0.1051  0.0792 -0.2221
32194W        W48003  12.789   8.593  13.479 -0.2513  0.0393 -0.1523
32195W        W48004  13.413  15.181  13.732 -0.0817 -0.1250  0.3982
32196W        W48005  16.400  10.230  12.810 -0.1983  0.1580 -0.0056
32197W        W48006   0.288  12.309  10.248 -0.2572  0.1353 -0.0299
32198W        W48007   3.844   1.679   6.171  0.2103 -0.2176  0.1728
32199W        W48008   4.610   6.332   5.519  0.0659  0.2460 -0.1148
32200W        W48009   1.148  12.864  16.010  0.4290  0.1432 -0.2780
32201W        W48010   2.988   2.188  13.506  0.2861  0.2496 -0.1484
32202W        W48011   9.697  14.843  16.187  0.3369  0.3495 -0.0241
32203W        W48012  16.496  10.889  12.897  0.0131  0.0099  0.2243
32204W        W48013  14.764   4.115   0.708 -0.0794  0.4468 -0.3491
32205W        W48014  13.240  16.961   1.184  0.3256  0.1625  0.0040
32206W        W48015   6.471  10.551  15.205 -0.3449  0.3480  0.2521
32207W        W48016   2.638  14.294   0.329 -0.2820 -0.0983 -0.0763
32208W        W48017   8.576   6.797   5.200  0.3302 -0.1371 -0.1173
32209W        W48018   2.169   9.276  15.028 -0.0232 -0.2920  0.1396
32210W        W48019  14.752   9.259   1.232  0.2118 -0.1690  0.2438
32211W        W48020   1.580   4.914   2.962  0.1233 -0.2820  0.0600
32212W        W48021  13.984   2.216   5.321 -0.0522  0.2784  0.1123
32213W        W48022   9.663   7.601   4.727  0.1854 -0.0080  0.0421
32214W        W48023   0.657   9.807  14.019  0.2437  0.0974  0.1913
32215W        W48024  10.460   7.125   2.931  0.1971  0.0384 -0.1241
32216W        W48025   9.666   4.656   3.196  0.0235  0.0180  0.2611
32217W        W48026  12.525  15.787   1.815 -0.0735 -0.1570  0.2344
32218W        W48027   5.136   6.412  13.020 -0.4766  0.0410 -0.1432
32219W        W48028  14.321  12.393  12.662 -0.0160 -0.0786 -0.1073
32220W        W48029  17.361   2.845  16.224  0.0501  0.0826  0.1962
32221W        W48030   5.378   1.004   1.157  0.1493  0.0209  0.0521
32222W        W48031  12.636   1.805  13.290  0.3605 -0.3443 -0.2210
32223W        W48032   3.855  17.874   3.651  0.4422 -0.0959 -0.1049
32224W        W48033   0.941   6.851  12.246  0.0374  0.0375  0.2405
32225W        W48034  17.239  12.751   1.392 -0.1437  0.0034 -0.0663
32226W        W48035  16.952   0.328  13.111 -0.2394 -0.3301 -0.2253
32227W        W48036   3.513   9.792   2.811  0.0390  0.1170  0.0108
32228W        W48037  16.051  13.829   5.446 -0.2956 -0.0302  0.2864
32229W        W48038  14.321   3.918   2.578 -0.1594 -0.1199  0.1198
32230W        W48039   4.980  14.657  11.845 -0.0772 -0.0918 -0.0768
32231W        W48040   7.757   4.823   1.782  0.0029  0.0391 -0.1318
32232W        W48041   4.932   1.260   4.252 -0.0462  0.0345 -0.1499
32233W        W48042  13.083   0.022   2.907  0.0134 -0.0095 -0.0165
32234W        W48043   9.703  15.481  14.414  0.1243 -0.0102  0.0302
32235W        W48044  10.748   0.595   5.495 -0.1934 -0.1500 -0.2417
32236W        W48045  16.830   7.335   1.033 -0.1003 -0.2358  0.4207
32237W        W48046  13.933  17.235   0.711  0.0189 -0.1628  0.3004
32238W        W48047  15.745  11.963  15.480  0.2135  0.3682 -0.4595
32239W        W48048   7.114   5.729  13.561  0.1156 -0.0547  0.3363
32240W        W48049   3.967  14.404  14.775 -0.0621 -0.0586 -0.2234
32241W        W48050  13.404   1.343   5.467  0.0694  0.2390  0.1681
32242W        W48051  11.856  15.342   3.457  0.1548  0.0462 -0.1007
32243W        W48052   9.938   4.740   4.214  0.0908 -0.1672  0.0464
32244W        W48053   5.583   0.976   2.868  0.2289 -0.1837  0.1088
32245W        W48054  17.374   9.432  11.030 -0.0781  0.0058  0.0968
32246W        W48055   8.655   0.721   2.516  0.0108 -0.1279  0.0267
32247W        W48056   6.172  16.258   4.058 -0.0671 -0.0908 -0.0061
32248W        W48057   4.495   5.897  15.560 -0.1151 -0.1441  0.0905
32249W        W48058   2.520  13.550  13.201 -0.1561  0.0372  0.4442
32250W        W48059   9.228   8.356   4.074  0.1861 -0.2258 -0.1647
32251W        W48060   6.630  16.584   0.103 -0.1595 -0.3397  0.2854
32252W        W48061  11.216   6.195  14.024  0.3374 -0.5146 -0.0881
32253W        W48062  16.801   8.613   3.895  0.1410 -0.2027 -0.2344
32254W        W48063   3.578   6.854   1.852  0.0101  0.1679 -0.3317
32255W        W48064   6.603   7.607   1.740 -0.1233  0.0492 -0.0728
32256W        W48065   3.735  15.063  13.863 -0.0151 -0.0459 -0.0252
32257W        W48066   8.060   0.142   0.780  0.3254  0.0410 -0.0883
32258W        W48067  11.614   9.633   5.816 -0.2462  0.3513 -0.1183
32259W        W48068  11.197   8.430   3.425 -0.1240 -0.3668  0.0907
32260W        W48069  10.668   5.285  16.185 -0.2878 -0.0874  0.0060
32261W        W48070   6.319  13.896   3.828 -0.1249  0.0714  0.0570
32262W        W48071   6.100   8.981   4.558  0.2243 -0.0383 -0.2132
32263W        W48072   1.732   8.223  14.974 -0.0819  0.1705  0.0929
32264W        W48073   6.226   2.853   4.498  0.1669  0.0306  0.1254
32265W        W48074  12.430  10.575   1.818  0.2478  0.0287  0.2171
32266W        W48075  17.888  12.634   3.986  0.0462 -0.0714  0.2308
32267W        W48076   3.777  17.374   3.801 -0.0048  0.0541 -0.0054
32268W        W48077  12.579  13.572   5.017 -0.3273 -0.0719 -0.0244
32269W        W48078  12.079  13.980  12.621 -0.0461  0.0817  0.3996
32270W        W48079  16.521  12.465   1.563  0.2661 -0.1816 -0.0400
32271W        W48080  16.615   0.714  11.254  0.0688  0.1292 -0.1758
32272W        W48081   7.726  17.284   0.738  0.0853  0.0469 -0.1801
32273W        W48082  17.366  13.807   5.677 -0.0142  0.0650  0.0755
32274W        W48083  12.636  10.916  12.351 -0.0662 -0.0955  0.0564
32275W        W48084   6.728   5.105   0.356 -0.0194 -0.0507  0.0074
32276W        W48085   2.741  12.802   5.304  0.1102  0.2257  0.1503
32277W        W48086   4.446   8.587   3.193  0.1513  0.1911 -0.1130
32278W        W48087   2.102   4.775   5.164  0.0337  0.2392  0.0548
32279W        W48088   1.076  18.102  12.023  0.3283  0.0432 -0.0904
32280W        W48089   6.832  15.916  14.078 -0.0326  0.0452  0.1208
32281W        W48090  12.259   7.862   3.826 -0.2108 -0.1419 -0.3322
32282W        W48091   0.078  18.096   5.666  0.0856  0.0455  0.0462
32283W        W48092   1.840   0.712   2.693  0.3305  0.2267 -0.0009
32284W        W48093  13.581  16.893  13.601  0.1153  0.2702 -0.0065
32285W        W48094   1.327   3.645   1.850  0.0222 -0.2216  0.3926
32286W        W48095  11.148   2.753  11.775  0.0641 -0.2874 -0.1582
32287W        W48096   3.205   2.971   6.197 -0.2772  0.2039  0.3398
32288W        W48097   4.630   5.377  14.147 -0.2212  0.0905  0.0258
32289W        W48098   9.486  10.753  12.574 -0.0088  0.1237 -0.0363
32290W        W48099   7.042   5.381   3.272  0.1393 -0.1637  0.0138
32291W        W48100  16.646  17.243  13.991  0.0239 -0.0386  0.2815
32292W        W48101  15.346   4.174  13.036 -0.1911  0.3405  0.0798
32293W        W48102   4.302  12.673  15.274  0.1339 -0.0537  0.0668
32294W        W48103   3.533  17.222   2.405  0.2892  0.1162 -0.0555
32295W        W48104  10.908   5.857   3.050  0.2260  0.0389  0.0161
32296W        W48105  15.029   6.811  12.454  0.0375  0.1857  0.1452
32297W        W48106   5.106  12.107   2.944 -0.2929  0.0413  0.2307
32298W        W48107  14.472   6.472  13.552 -0.0135  0.3313  0.3562
32299W        W48108   3.398   3.112  16.359  0.1848  0.2363  0.2738
32300W        W48109  15.869  11.481   3.201  0.2148 -0.3734 -0.2265
32301W        W48110   4.116   6.177  11.817 -0.1177 -0.2192 -0.0398
32302W        W48111  17.274  14.934   3.190  0.0100 -0.1084  0.0518
32303W        W48112  17.065   9.927  14.519  0.1202 -0.2790 -0.1179
32304W        W48113  16.414   8.887   2.222  0.1112  0.1639 -0.1365
32305W        W48114   2.318  10.968  12.275 -0.1877  0.1505 -0.2228
32306W        W48115  12.096  12.754   5.331 -0.0983  0.0688  0.2827
32307W        W48116  12.842  15.164  13.035  0.0542  0.0515 -0.2704
32308W        W48117  17.136   6.295   2.499 -0.1305  0.2382  0.0289
32309W        W48118   1.561   6.861   6.036  0.1697 -0.1582  0.2018
32310W        W48119  14.633   8.216  12.295 -0.2385  0.0659 -0.0211
32311W        W48120  12.705  17.061   2.030 -0.1580 -0.2870 -0.1349
32312W        W48121  10.907  15.313   1.343  0.0454  0.0253 -0.1060
32313W        W48122  13.937  11.656   1.022  0.2583 -0.1996  0.2775
32314W        W48123   4.266  10.680   2.618 -0.2019 -0.0712  0.4463
32315W        W48124  12.667   3.281   2.679 -0.1775 -0.2067 -0.1975
32316W        W48125  10.372  16.105   1.511 -0.1230 -0.0622  0.0593
32317W        W48126   3.229   8.640  14.886  0.1592  0.0198  0.3861
32318W        W48127   0.557   2.469   4.632  0.0297  0.1625 -0.3020
32319W        W48128  11.222  11.557   4.560  0.1498  0.0140 -0.0155
32320W        W48129  15.111  13.699   2.403  0.0728  0.0269  0.0711
32321W        W48130  15.893  15.106  14.544  0.0220  0.1839 -0.0356
32322W        W48131  17.230  12.321  13.951  0.0642 -0.0693 -0.0217
32323W        W48132   1.082   2.095   5.085  0.1586 -0.0981  0.1270
32324W        W48133   0.967  14.186   1.196  0.0430 -0.0879 -0.1949
32325W        W48134  12.203   7.954  15.013 -0.5913  0.0326  0.0973
32326W        W48135  12.236   1.683  12.448 -0.1256 -0.1070  0.3193
32327W        W48136  14.800  10.736   0.142 -0.0571  0.0962 -0.1566
32328W        W48137  12.076  18.013  12.568 -0.3520  0.1564  0.2322
32329W        W48138  17.637   0.482   6.247 -0.2121 -0.0679 -0.2865
32330W        W48139   2.548   5.740  12.499 -0.2367 -0.1560  0.2092
32331W        W48140  15.469  17.551   4.267 -0.1473  0.2500  0.0748
32332W        W48141   9.643  16.118   5.847  0.0881  0.1158  0.1154
32333W        W48142   1.108  14.775   2.395  0.1476 -0.0038  0.1073
32334W        W48143   7.030   3.863  14.370 -0.0286 -0.0695 -0.1216
32335W        W48144   3.505   3.406   2.295  0.0361  0.0125  0.4587
32336W        W48145   7.630  14.602  16.347 -0.0102  0.2366 -0.2515
32337W        W48146  14.170  10.473   3.978  0.0411 -0.1290  0.3000
32338W        W48147  11.743   2.126  13.723  0.2797 -0.5007  0.2871
32339W        W48148   2.867   1.590   1.191 -0.0627  0.1795  0.1581
32340W        W48149   6.874   9.703   4.713 -0.1110  0.0179  0.0667
32341W        W48150  17.857   3.141  12.029 -0.2058 -0.2847 -0.0682
32342W        W48151   2.156  15.749   1.501  0.1188  0.0066 -0.0507
32343W        W48152  12.951  14.015   1.920  0.0554  0.5123 -0.0957
32344W        W48153  15.936  16.325   4.301  0.1681 -0.1895 -0.1323
32345W        W48154  16.643  14.955  10.849 -0.2131 -0.0885 -0.1117
32346W        W48155  13.915   5.510  14.333  0.0967  0.5428  0.1645
32347W        W48156  11.413   6.483   0.976  0.0829 -0.3467 -0.0441
32348W        W48157  13.740   6.350   5.523 -0.1945 -0.1205  0.0280
32349W        W48158   9.138   7.242  13.248  0.0972 -0.4258 -0.0660
32350W        W48159  11.081   8.153  14.557  0.1203 -0.0957  0.0871
32351W        W48160   8.218   2.118  13.688 -0.3694 -0.1593 -0.5788
32352W        W48161  11.694   1.889   5.194  0.1149 -0.3717 -0.2726
32353W        W48162  10.419   7.673  12.194 -0.0390 -0.3463 -0.3309
32354W        W48163   9.631   1.548  11.511  0.1430  0.0886  0.2044
32355W        W48164  15.428   4.704  15.317  0.2394  0.1795  0.3875
32356W        W48165  17.303   9.678   2.484  0.2081  0.4359 -0.0407
32357W        W48166   2.555   6.336  13.518  0.1776  0.0005 -0.1098
32358W        W48167   0.006   0.716  12.957 -0.1110  0.2874  0.1843
32359W        W48168  16.496  14.877   6.075 -0.0259  0.0412  0.4181
32360W        W48169  17.051   0.728  14.740  0.0791 -0.0176  0.2077
32361W        W48170  15.748  11.670  16.347 -0.1820  0.0759  0.0508
32362W        W48171   9.576  10.339  15.190  0.1701  0.1891 -0.0842
32363W        W48172   7.356  15.239   5.344 -0.3397  0.0240  0.2430
32364W        W48173  14.635   4.392   4.897  0.0190  0.2891 -0.2718
32365W        W48174  17.002  18.073   1.294 -0.2300  0.0057  0.0771
32366W        W48175  17.510   0.335  13.178 -0.0446 -0.0364 -0.0253
32367W        W48176   6.821  14.269  16.140 -0.1669  0.2078 -0.1217
32368W        W48177   2.580  10.464   2.169  0.2784 -0.0503 -0.1329
32369W        W48178   6.672   2.426   1.713 -0.0761 -0.1286 -0.0298
32370W        W48179   6.784  10.022   2.181 -0.1381  0.0234  0.1964
32371W        W48180   2.826  11.032  12.367  0.0683 -0.0154  0.2898
32372W        W48181  10.157   5.573  12.660  0.0923 -0.0083  0.1464
32373W        W48182  11.740   1.599  10.819  0.1085 -0.1759  0.2054
32374W        W48183  18.021   8.648  12.990 -0.2265  0.0189  0.1080
32375W        W48184   7.517   4.465   0.632 -0.0092  0.0460 -0.0944
32376W        W48185   7.723   8.414   1.318 -0.2204 -0.0208  0.1342
32377W        W48186  12.490   2.273  11.947  0.0650  0.0306 -0.0227
32378W        W48187  17.504  14.807   0.392  0.0162 -0.2304  0.2874
32379W        W48188   3.166  13.161   4.183 -0.2101  0.0828 -0.1316
32380W        W48189  15.366   9.082  15.887 -0.1092 -0.3186 -0.2363
32381W        W48190   3.754  14.746  13.398 -0.2635  0.0226  0.1736
32382W        W48191  15.691   1.029   0.305 -0.0620  0.0698  0.0818
32383W        W48192   9.066   7.435  12.409 -0.0165  0.2524  0.1723
32384W        W48193   6.324  16.721   1.896 -0.2189  0.0516  0.0623
32385W        W48194   0.051   3.277   4.402 -0.0663  0.5821  0.0116
32386W        W48195  15.935   4.909  16.251 -0.2815 -0.1469 -0.1313
32387W        W48196  12.595   5.196   5.582  0.0416 -0.0582  0.1432
32388W        W48197   5.114   3.889  13.572  0.0181  0.2505 -0.3145
32389W        W48198  11.166   0.707   0.944 -0.1824 -0.0823  0.0606
32390W        W48199  13.556   9.770   3.970 -0.0665  0.1901 -0.1225
32391W        W48200  11.174   1.003   2.483  0.1102  0.3751  0.2482
32392W        W48201  15.809   1.912   1.479 -0.1505  0.2945 -0.1104
32393W        W48202  10.546  13.543   4.297  0.0465 -0.0464  0.3266
32394W        W48203   8.928  13.049   0.265 -0.3167  0.0508  0.1091
32395W        W48204  13.445  10.902  12.949  0.3257  0.0363  0.1493
32396W        W48205   3.243  16.216  13.535 -0.2645  0.0730  0.0540
32397W        W48206   8.366   2.817  12.918 -0.2260  0.2146  0.1254
32398W        W48207   5.174   2.115   5.897 -0.0151 -0.2044 -0.0195
32399W        W48208  10.634  14.583   1.184 -0.1111 -0.0539  0.0035
32400W        W48209   7.021   5.169  12.968  0.3799 -0.1023  0.3274
32401W        W48210   7.707  14.055  15.053 -0.0459 -0.0751  0.2426
32402W        W48211   6.852   5.357  13.803  0.2101  0.0502  0.2231
32403W        W48212   7.942  16.369  16.039 -0.5380 -0.2968  0.1640
32404W        W48213  14.858   8.876   2.662  0.3781  0.2529  0.0100
32405W        W48214  17.944   1.842   3.234 -0.2508  0.0528  0.1514
32406W        W48215  12.979   0.784  12.150 -0.3035 -0.1473 -0.0226
32407W        W48216  13.954  15.489  11.768  0.0725  0.0148  0.0008
32408W        W48217  16.028   6.322   2.349  0.1927  0.0783 -0.0492
32409W        W48218  14.750  14.171   1.389 -0.2624  0.0591 -0.0714
32410W        W48219   3.133  17.496  11.062 -0.0717  0.2122 -0.2933
32411W        W48220   7.970  14.837   1.535  0.1336 -0.1176 -0.3209
32412W        W48221   5.303  12.481  15.616 -0.0897 -0.2996 -0.0489
32413W        W48222   5.281   9.218   5.226  0.2207 -0.0293  0.0536
32414W        W48223  15.943   2.558   2.314  0.3253  0.3349  0.4207
32415W        W48224   1.864  13.852  11.713  0.0405  0.1902  0.1861
32416W        W48225   3.256  14.383   3.775 -0.0983  0.1359  0.0610
32417W        W48226   6.739  13.815  14.043  0.2422 -0.1527  0.2382
32418W        W48227  13.887  12.400   2.320  0.0250  0.0699  0.1010
32419W        W48228  12.384  17.893  14.543 -0.0073  0.0083 -0.3825
32420W        W48229  14.617   1.566   5.752 -0.1618  0.0838  0.0006
32421W        W48230  10.548   5.266  11.065 -0.1282  0.0540 -0.1989
32422W        W48231   7.498  12.806  13.848 -0.0387  0.1390 -0.2682
32423W        W48232  14.733   1.154  16.271  0.0399  0.1139  0.0875
32424W        W48233   6.780  17.963   1.250  0.1087 -0.0666  0.0854
32425W        W48234  12.161   6.032  12.359 -0.0947  0.1202  0.0058
32426W        W48235  15.034   4.193   2.033 -0.2846  0.2882 -0.0505
32427W        W48236   2.192   9.397   3.058  0.0783 -0.4516  0.1169
32428W        W48237   2.661   3.715  14.803 -0.1763 -0.0765 -0.0379
32429W        W48238   5.439  12.343   4.844 -0.0116 -0.1817 -0.0008
32430W        W48239  12.850   4.659   1.935  0.1417  0.4198 -0.2327
32431W        W48240   1.083   5.490  14.729  0.0240  0.0822 -0.2394
32432W        W48241   2.018  10.959   1.031  0.1817  0.0048 -0.1158
32433W        W48242   2.813   1.154   3.391 -0.0075  0.1908 -0.0127
32434W        W48243   8.505   2.879   2.382  0.2190 -0.1449 -0.4181
32435W        W48244   1.013   6.291   0.309 -0.0088 -0.4509 -0.0905
32436W        W48245  16.962  11.618   4.214 -0.0373 -0.3918  0.0595
32437W        W48246   9.326  15.888   2.300  0.3049 -0.2113  0.0019
32438W        W48247   5.842  11.907   4.966  0.2920  0.0828 -0.0304
32439W        W48248   7.620   8.108  11.738  0.1091 -0.1667 -0.0074
32440W        W48249   7.375  11.216  11.500 -0.0710  0.3861 -0.0192
32441W        W48250   1.363   5.472  16.288  0.3002  0.2577  0.4714
32442W        W48251   4.297   5.398  15.645  0.3733 -0.1968 -0.1334
32443W        W48252   6.008   9.127  13.285 -0.3207 -0.1328 -0.0170
32444W        W48253   8.001  14.727   2.171  0.2750 -0.0271  0.1521
32445W        W48254   8.222   8.870  11.512 -0.0689 -0.4989 -0.4027
32446W        W48255   0.390   9.938  13.623  0.1268 -0.0681  0.0598
32447W        W48256  13.134   4.122  13.034  0.2436 -0.1750  0.1606
32448W        W48257   1.915   5.206   5.381  0.1671  0.2085  0.1452
32449W        W48258  10.229  16.351   0.176 -0.1736 -0.0048  0.1389
32450W        W48259   9.227  10.259   3.120 -0.0136  0.1734 -0.0300
32451W        W48260  13.162   2.135   3.345 -0.1271 -0.1562  0.2520
32452W        W48261  10.914   1.053  13.317  0.3483 -0.0793 -0.0232
32453W        W48262  15.578   8.769   4.281  0.4148  0.0602  0.0938
32454W        W48263  17.456   3.395   4.048 -0.0582  0.2114 -0.1783
32455W        W48264  16.464   8.248   1.246  0.2087  0.1754 -0.0447
32456W        W48265  14.954   3.347   0.206  0.0039  0.2108  0.1685
32457W        W48266   4.622  12.504   1.619 -0.3152  0.0089 -0.5941
32458W        W48267   1.964   8.763   4.935 -0.2015 -0.1904  0.1187
32459W        W48268   4.079  12.732   5.252  0.1546  0.1658 -0.2323
32460W        W48269   3.241  15.213  11.439  0.0894  0.2271  0.0002
32461W        W48270  12.600  15.359   1.454  0.2028 -0.1675 -0.0274
32462W        W48271   9.421  17.040   5.069 -0.0362 -0.1848 -0.3063
32463W        W48272  15.409  14.757   5.057  0.1131 -0.2222 -0.2372
32464W        W48273   7.283  13.262   5.049  0.1507  0.0247  0.0688
32465W        W48274  15.700   4.588   5.380 -0.2040  0.3007  0.0191
32466W        W48275  15.576   1.721   5.490 -0.3677 -0.2538 -0.0683
32467W        W48276   7.876   8.900   2.656 -0.2772  0.1827 -0.2441
32468W        W48277  17.007   9.262   3.315  0.1998 -0.3116  0.1262
32469W        W48278   6.164  15.967  13.630  0.3146  0.1366  0.0699
32470W        W48279   6.515   3.212   2.480 -0.5991  0.1813  0.2097
32471W        W48280   0.508  14.118  12.949 -0.1073  0.0721 -0.0309
32472W        W48281  11.774   9.272   2.808 -0.3112 -0.0927 -0.0494
32473W        W48282   7.634   2.448   6.001 -0.0155 -0.0294  0.1968
32474W        W48283  10.882   5.614  15.839  0.2187  0.4460  0.0831
32475W        W48284   2.854  12.776  14.502 -0.2996  0.2468 -0.1034
32476W        W48285   4.233  12.627  13.318  0.1314 -0.3248 -0.1465
32477W        W48286   8.625   3.469   4.337 -0.0029  0.2735  0.0854
32478W        W48287  12.111   0.547   1.752  0.2229 -0.0235  0.0495
32479W        W48288  14.692  11.243  16.169  0.1114 -0.1001 -0.1250
32480W        W48289  10.433   3.835  11.702 -0.0587  0.0094  0.1389
32481W        W48290  15.617  14.627   0.846  0.1904 -0.0115 -0.0922
32482W        W48291  17.820  14.047   0.749 -0.0244 -0.0669 -0.1054
32483W        W48292   0.107   1.881   5.494  0.2228  0.1151 -0.0976
32484W        W48293   5.781  12.169   5.800  0.0259  0.1542  0.2132
32485W        W48294  16.004   0.173  15.208  0.1614  0.1495  0.0640
32486W        W48295   8.248  17.032  15.146  0.0143  0.3424 -0.2337
32487W        W48296  11.028   6.271  13.495 -0.0555  0.1199 -0.0832
32488W        W48297   4.379  18.195  16.193  0.2907 -0.0157  0.1759
32489W        W48298  14.409   4.914  13.839  0.1764 -0.0156  0.1510
32490W        W48299   5.475  10.651   1.757 -0.2813  0.0689  0.0061
32491W        W48300   7.798   3.993   2.783  0.0542 -0.0432 -0.1200
32492W        W48301  12.457  14.399  11.433 -0.1111  0.2250  0.1065
32493W        W48302  12.122  16.895   2.126 -0.0357  0.3144 -0.0001
32494W        W48303   7.084   5.593  14.112 -0.0359 -0.2281  0.1778
32495W        W48304  15.197  12.867   5.540  0.0144 -0.0728  0.1359
32496W        W48305  17.981   6.315   2.130 -0.0491 -0.2276 -0.2406
32497W        W48306  12.503  16.417   4.933 -0.0302  0.0626  0.1597
32498W        W48307  15.338   8.389   2.573 -0.0034 -0.2642 -0.0781
32499W        W48308   0.514   0.267   2.209  0.1050 -0.2182  0.2071
32500W        W48309  12.474  17.125  15.854 -0.2035  0.1053  0.2684
32501W        W48310  14.573  16.571   1.427 -0.0226  0.2028  0.1735
32502W        W48311   0.116  11.662   2.797  0.3210  0.0344 -0.0613
32503W        W48312   7.008   4.659   0.442 -0.1468 -0.0348  0.0645
32504W        W48313   2.470  15.567   2.767 -0.0437 -0.0753 -0.4201
32505W        W48314   1.832  12.354  13.193  0.3642 -0.6257  0.1159
32506W        W48315  17.894   2.231   2.819  0.3424 -0.1120 -0.1010
32507W        W48316   1.466   2.680   1.717 -0.2281  0.0646 -0.1762
32508W        W48317   6.956   5.694   2.757 -0.0538 -0.0742 -0.1889
32509W        W48318   0.082  12.809   3.629 -0.4791 -0.3293  0.0329
32510W        W48319   3.529  11.798   2.324 -0.1808  0.1679  0.1215
32511W        W48320   4.711  15.794   0.949  0.4678  0.4364 -0.5869
32512W        W48321   9.396   1.351   5.871 -0.0352  0.0244  0.3265
32513W        W48322  17.855   0.588  15.652  0.0944 -0.1107  0.3070
32514W        W48323   3.263   1.201  14.404  0.3468 -0.2727 -0.0864
32515W        W48324  11.738   1.708  12.298 -0.2702 -0.2444 -0.2721
32516W        W48325   1.915  16.425  11.288  0.1707 -0.1110  0.0640
32517W        W48326  11.172   3.100   1.740  0.1937  0.2376 -0.1553
32518W        W48327   9.592   5.588  11.730  0.0242 -0.1918  0.0823
32519W        W48328   9.230  14.477   0.897  0.0269 -0.2986  0.0134
32520W        W48329   8.741  14.537  14.353 -0.0120 -0.2063  0.0223
32521W        W48330  13.769  14.454  11.719 -0.1989  0.4147  0.0123
32522W        W48331   6.668   8.341  13.466 -0.1558  0.1396 -0.0307
32523W        W48332   5.018   9.253  13.682 -0.0194  0.0885 -0.1938
32524W        W48333  18.091   1.368  15.430 -0.0070 -0.0829 -0.2891
32525W        W48334   6.741  15.200  14.783  0.0060 -0.1088  0.2337
32526W        W48335   0.939   6.386  16.164 -0.0478  0.0953  0.4682
32527W        W48336  15.892   8.164   3.508 -0.0430 -0.2315 -0.3606
32528W        W48337  11.612  16.392   5.903  0.0533  0.0469  0.0574
32529W        W48338   9.712  12.483  14.540  0.0767 -0.0009 -0.0562
32530W        W48339   2.787   0.891  10.756  0.0688 -0.1450 -0.3118
32531W        W48340   9.778  17.663   4.156 -0.3810 -0.1091  0.0437
32532W        W48341  16.322  16.219   3.383  0.1089  0.0680  0.0201
32533W        W48342  14.318  14.894   0.988 -0.0838 -0.1053 -0.2077
32534W        W48343   7.727   7.783  12.153 -0.1180 -0.1690 -0.0429
32535W        W48344   5.661  16.290   5.195  0.0838 -0.1503  0.1449
32536W        W48345   0.422   6.252   4.721 -0.0482 -0.2873 -0.3136
32537W        W48346  10.061   9.551  14.282 -0.1994  0.2103 -0.1440
32538W        W48347   9.357   1.867   5.045  0.0193 -0.0685  0.4557
32539W        W48348  14.597   4.337  14.953  0.0417  0.4271  0.1598
32540W        W48349   0.496  14.631  11.731 -0.0465  0.0976 -0.2966
32541W        W48350  13.636   8.069   0.261  0.1274  0.0925 -0.2999
32542W        W48351   5.163   2.118  13.799  0.4773  0.0080  0.1279
32543W        W48352   9.749   1.038  12.219  0.1532  0.2561  0.1948
32544W        W48353  15.291  17.199  16.214  0.1590 -0.1979  0.0789
32545W        W48354   0.899  13.663   2.141 -0.0778 -0.0916 -0.0775
32546W        W48355  15.436   8.550   5.675  0.0979 -0.4281 -0.3318
32547W        W48356  13.777   9.128   4.033  0.1388 -0.0822  0.0711
32548W        W48357  18.122   8.938  11.096  0.0028 -0.1743  0.3087
32549W        W48358  13.692   9.418  12.867  0.0278  0.1493  0.0207
32550W        W48359   6.332   5.614   2.601  0.1175  0.2398  0.0063
32551W        W48360  15.756   7.932   4.529 -0.2568  0.2462  0.1235
32552W        W48361  17.941   0.766   1.301 -0.0854  0.0485 -0.3044
32553W        W48362   2.140   7.937   4.274  0.3396 -0.0286 -0.0838
32554W        W48363  15.635   0.141   4.520 -0.2084  0.3146 -0.0769
32555W        W48364   3.125  15.664  14.395 -0.2510 -0.1843 -0.3491
32556W        W48365  16.978   4.050   4.252  0.3642  0.1422 -0.1219
32557W        W48366  11.507  16.664  14.953  0.0504 -0.0476  0.0097
32558W        W48367  11.929   8.001   0.880 -0.0129  0.0050  0.0300
32559W        W48368   8.635  13.682   4.562  0.1848  0.0428  0.2646
32560W        W48369  16.189  15.877  14.928 -0.0292  0.2764 -0.2314
32561W        W48370  12.410   8.393  15.066 -0.1357  0.0521 -0.3491
32562W        W48371   5.596   9.243  16.362 -0.0065  0.1764 -0.1209
32563W        W48372  17.990  16.906  12.860 -0.0402  0.0930  0.0512
32564W        W48373   2.610   5.141   4.259 -0.2075  0.1121  0.1833
32565W        W48374  11.918  10.665   1.289 -0.0152 -0.1811 -0.1695
32566W        W48375  14.569  13.317  16.038 -0.3290  0.0906  0.0955
32567W        W48376  10.947   9.483  12.787  0.1800 -0.0178  0.1293
32568W        W48377   2.958   3.148   0.940  0.1066  0.2384 -0.0477
32569W        W48378   2.820  10.403  13.137  0.0362 -0.0267  0.0134
32570W        W48379   7.547   9.870   0.426  0.0139  0.0739  0.1226
32571W        W48380   3.108   0.709   1.347 -0.2425 -0.1705 -0.1352
32572W        W48381  13.109   7.014  12.670 -0.2863 -0.0643  0.0716
32573W        W48382  16.170   5.341   2.667 -0.1750 -0.3064 -0.2061
32574W        W48383   2.054  13.029   1.928 -0.0691 -0.4175 -0.0057
32575W        W48384   3.531   7.225  15.755  0.0796 -0.1498 -0.1978
32576W        W48385   1.925   3.713  13.438 -0.3376  0.0628 -0.1968
32577W        W48386  13.046   3.627   1.310 -0.5615  0.0825 -0.1079
32578W        W48387  13.957   0.096   2.405 -0.1347  0.0708  0.2119
32579W        W48388  11.349   1.185  15.408  0.1925  0.2168  0.2106
32580W        W48389   3.193   3.354  15.981  0.3158 -0.0107  0.0875
32581W        W48390  14.032  15.478  14.748 -0.6245 -0.2418  0.0119
32582W        W48391  15.759   6.806   5.373 -0.1000 -0.1886  0.0054
32583W        W48392   9.653   4.537  12.750  0.0613 -0.0725  0.3171
32584W        W48393  12.669  15.116   2.371 -0.3311  0.0797  0.1572
32585W        W48394  15.288   9.105   1.376 -0.3295  0.1707 -0.1558
32586W        W48395  11.632  14.202  13.823 -0.0069  0.1169  0.1896
32587W        W48396   5.785  18.032  12.449 -0.0086 -0.0197 -0.0251
32588W        W48397   8.820   4.393   2.900  0.0537 -0.0700 -0.0125
32589W        W48398   7.278   3.722   4.519  0.0320  0.2985 -0.1519
32590W        W48399   8.062   0.564  14.094  0.3854 -0.1181  0.1329
32591W        W48400  12.253   6.883  15.757 -0.2372 -0.0661  0.0235
32592W        W48401  11.283  12.176   5.522  0.3292  0.3148 -0.0595
32593W        W48402   4.087   2.453  11.785 -0.0949 -0.0553 -0.1614
32594W        W48403   8.558   4.791   4.694 -0.1773  0.0990 -0.3113
32595W        W48404  12.442  15.816   4.165  0.0195 -0.0235 -0.0492
32596W        W48405  17.337   4.239   1.657 -0.3540  0.1508  0.0508
32597W        W48406   2.129  11.711  15.362  0.0811  0.0211  0.3312
32598W        W48407   4.350  15.594  14.578  0.1214 -0.0730  0.0030
32599W        W48408  16.106  14.704  11.545 -0.5094  0.2299 -0.1385
32600W        W48409   2.982  13.717  14.075 -0.1261 -0.1989 -0.0103
32601W        W48410  13.009   5.520  14.586  0.0762  0.0871 -0.4054
32602W        W48411  17.238  18.078   2.747  0.1102 -0.2147 -0.0178
32603W        W48412  15.980   8.406   1.138 -0.0476  0.0702 -0.1232
32604W        W48413  10.743   4.893   4.051 -0.0406 -0.0665  0.2502
32605W        W48414   2.046  11.669   0.220 -0.1552  0.3428 -0.1650
32606W        W48415   6.611  17.813   3.969 -0.0524 -0.1522 -0.1289
32607W        W48416  17.192  16.734  12.056 -0.0430  0.1246  0.2754
32608W        W48417  11.280   4.495  16.279 -0.1697 -0.1544  0.4550
32609W        W48418  16.682   4.526   2.738 -0.1920 -0.1316  0.3347
32610W        W48419   8.280  16.217   5.566 -0.1377 -0.1463  0.0364
32611W        W48420   9.689   8.222   1.271  0.3858 -0.0688 -0.1244
32612W        W48421  15.136   5.072   3.519 -0.2639 -0.0832 -0.2175
32613W        W48422   0.354   1.431  13.333 -0.0041  0.0326  0.0666
32614W        W48423  16.123   3.718   0.744  0.0525 -0.1357  0.1864
32615W        W48424  11.324  10.290   2.683  0.4078 -0.2237 -0.0746
32616W        W48425   7.415   4.525  11.423 -0.0743  0.4240 -0.2149
32617W        W48426   8.943   6.906   2.817 -0.1403  0.0538 -0.2870
32618W        W48427   6.421   0.264   2.493 -0.1198  0.1565  0.1977
32619W        W48428   9.081   9.416  15.083  0.3827 -0.1837 -0.0528
32620W        W48429  14.458  10.630   0.525 -0.2493 -0.0470  0.2490
32621W        W48430   8.521   4.287   1.400 -0.1311 -0.0996  0.0413
32622W        W48431  15.405  16.702   1.532 -0.1333 -0.1651  0.2383
32623W        W48432   9.453   3.867  13.837  0.1631 -0.1418 -0.1010
32624W        W48433  10.705  17.879   3.423 -0.1706 -0.1470 -0.4835
32625W        W48434  17.141  17.537  15.147 -0.2350  0.0988 -0.1060
32626W        W48435   0.554   8.615   2.752  0.1744 -0.7111  0.0662
32627W        W48436   1.534   3.942   2.241 -0.1314  0.1131 -0.0243
32628W        W48437  17.825   1.691   5.837 -0.0891 -0.2707 -0.0576
32629W        W48438   1.283   5.839   2.250 -0.1591  0.0122  0.1508
32630W        W48439   7.651   5.442  11.293 -0.0347  0.0069 -0.2007
32631W        W48440   5.144  10.083  15.846  0.2760  0.1471 -0.1519
32632W        W48441   9.740   1.136  11.283  0.0883  0.1972  0.0769
32633W        W48442   7.654   1.027  11.903  0.1042 -0.1898 -0.0088
32634W        W48443  12.313   2.466   0.928 -0.1912  0.0211  0.0434
32635W        W48444  13.381   6.502   1.822 -0.0393 -0.2797  0.0687
32636W        W48445  14.436  13.313   5.175 -0.1143  0.1394 -0.2909
32637W        W48446   8.700   6.877  14.645  0.0742 -0.3160  0.1221
32638W        W48447   1.570   0.911   0.400  0.0201  0.2423 -0.5281
32639W        W48448   1.607  10.468  15.981  0.0547 -0.5484 -0.2626
32640W        W48449   2.740   9.529  10.855  0.0207  0.0805 -0.0527
32641W        W48450  17.633  11.912   0.603 -0.2032 -0.1850 -0.1155
32642W        W48451  13.806   2.751  11.984  0.1243  0.0537 -0.0379
32643W        W48452   3.696  18.104  11.540  0.0420 -0.0817  0.2655
32644W        W48453   3.493   8.406  12.340 -0.0928  0.1419 -0.3432
32645W        W48454  11.397  17.409  15.470  0.0185 -0.2423 -0.0946
32646W        W48455  13.225  15.923  12.187 -0.0212  0.0051  0.2402
32647W        W48456  17.206   9.588  14.842  0.1705  0.2658  0.1523
32648W        W48457   9.448  17.941   2.918  0.0473  0.3164 -0.4859
32649W        W48458  12.494   5.823  11.333  0.0763 -0.0871 -0.2139
32650W        W48459   4.468  15.758  11.593  0.1813  0.1418 -0.1204
32651W        W48460   4.225   2.516   1.916 -0.0140  0.2968  0.3211
32652W        W48461  15.131  15.301  13.082  0.2734  0.3875 -0.1341
32653W        W48462  13.659   9.361   1.576 -0.0179 -0.1163 -0.2455
32654W        W48463   8.894  13.836   0.056 -0.1190 -0.1803  0.0186
32655W        W48464   5.375  15.857   5.129  0.0469 -0.1718  0.3486
32656W        W48465   6.472   6.802   1.950 -0.2532 -0.3338 -0.1961
32657W        W48466   8.983   3.456  15.422 -0.0399  0.2053  0.0799
32658W        W48467   2.093   5.424  12.714 -0.2381 -0.0982 -0.0327
32659ION     NA48468   4.688  15.262  11.857  0.0691  0.0310 -0.3539
32660ION     NA48469  17.528   2.821   6.123  0.1018  0.3152 -0.1579
32661ION     NA48470   3.971   7.407  10.567 -0.2401 -0.1639  0.1729
32662ION     NA48471   5.705   5.121  15.346  0.0642 -0.1065 -0.1294
32663ION     NA48472  15.435  17.053  10.505  0.1153  0.3078 -0.0367
32664ION     NA48473  16.095   6.025  10.491  0.0092 -0.1110 -0.2634
32665ION     NA48474   9.329   6.269   2.494  0.0068  0.2020  0.2437
32666ION     NA48475  10.115  17.098   6.086 -0.0715 -0.3127  0.1856
32667ION     NA48476  14.974   1.194   5.972 -0.1448 -0.1572  0.2063
32668ION     NA48477  13.254   0.114  10.815 -0.2743  0.1872 -0.0494
32669ION     NA48478  16.949   6.088  10.399  0.1167 -0.1333 -0.5446
32670ION     NA48479  15.490   1.128  10.925  0.2523 -0.0149  0.0452
32671ION     NA48480   6.175   9.900   6.187 -0.0999  0.0036 -0.0129
32672ION     NA48481  14.383  11.944   1.873  0.1143  0.0406  0.0816
32673ION     NA48482  15.015  14.834  10.272  0.2775  0.1061  0.2868
32674ION     NA48483   7.872  13.040  10.496  0.1228  0.1630  0.0607
32675ION     NA48484  15.017   3.549  10.580  0.0045  0.1849 -0.1583
32676ION     NA48485  11.961  12.592  10.419  0.0988  0.2548 -0.1695
32677ION     NA48486  18.046  15.331  13.945  0.1232 -0.0950 -0.1402
32678ION     NA48487   7.097   2.200   9.713  0.0384 -0.1581 -0.0599
32679ION     NA48488   9.954   0.840  10.600  0.3360  0.2396 -0.2242
32680ION     NA48489  15.847   3.382  11.157  0.1648 -0.2763 -0.0218
32681ION     NA48490   3.107  17.436  10.525 -0.2421  0.0828  0.2083
32682ION     NA48491  11.982   8.952   5.374  0.0644 -0.0690 -0.1687
32683ION     NA48492   7.345  10.339  10.417  0.2059  0.0938 -0.0114
32684ION     NA48493   5.872  10.485  10.431 -0.1479 -0.0038  0.2836
32685ION     NA48494  15.927   2.040  10.834  0.3742 -0.0622  0.2060
32686ION     NA48495   5.395   1.037   3.551  0.0469  0.0661 -0.0120
32687ION     NA48496  17.552  11.549  10.455 -0.0214 -0.2392  0.0071
32688ION     NA48497   8.320   8.180  13.385 -0.0315 -0.0246 -0.2300
32689ION     NA48498   3.563   6.077   5.743 -0.1603  0.3920  0.0147
32690ION     NA48499  17.975  12.152   4.202 -0.1994  0.1867  0.6043
32691ION     NA48500   6.647  16.276   4.821 -0.1537 -0.0500 -0.1976
32692ION     NA48501   8.169   0.744   2.095 -0.0611  0.0154  0.0963
32693ION     NA48502   7.471   5.537   3.556  0.1677 -0.2737  0.2045
32694ION     NA48503   4.616   2.791   0.422 -0.2285 -0.1901 -0.2362
32695ION     NA48504   3.593  18.160  10.526  0.1318 -0.2049  0.0621
32696ION     NA48505   8.163  15.474   0.883  0.1430 -0.1332  0.0356
32697ION     NA48506   1.640   0.237  10.315 -0.1308 -0.4422 -0.0915
32698ION     NA48507   9.313  16.210  15.549 -0.1175  0.1417  0.1016
32699ION     NA48508   9.317  13.654  10.596  0.1374  0.1671  0.1385
32700ION     NA48509  12.277  17.140  10.567 -0.2968  0.1328 -0.0452
32701ION     NA48510   8.577  15.301  10.783 -0.1370  0.2992  0.0591
32702ION     NA48511   4.341   6.656  13.685 -0.1214 -0.2011 -0.0873
32703ION     NA48512  11.072   6.643   5.409  0.1350  0.2096  0.0890
32704ION     NA48513  15.604   8.123   5.808 -0.2783  0.0470  0.1926
32705ION     NA48514  10.302   5.191  10.083 -0.2295  0.0586  0.0580
32706ION     NA48515  13.424  11.078   9.737  0.0245  0.1738 -0.1914
32707ION     NA48516  16.070   7.647  10.385 -0.2510 -0.1729 -0.0752
32708ION     NA48517  15.128  11.398  10.236 -0.1072 -0.1906  0.1165
32709ION     NA48518  12.890  16.630  10.799 -0.1923 -0.1740  0.2730
32710ION     NA48519   8.279   7.145  14.810  0.2707  0.1963  0.0745
32711ION     NA48520  13.629  17.997   3.244  0.2149  0.2122  0.0808
32712ION     NA48521  16.549   0.583   1.867 -0.5307 -0.2338  0.3403
32713ION     NA48522   1.380  10.100   5.857 -0.2819 -0.1791 -0.1859
32714ION     NA48523   8.963   8.201  10.192  0.0783 -0.2393 -0.1116
32715ION     NA48524   1.214   9.806  15.373  0.0874  0.2002  0.0045
32716ION     NA48525   0.729   9.189   6.090  0.4000 -0.0967  0.1780
32717ION     NA48526  11.489  16.941   5.902 -0.0860  0.2373 -0.2844
32718ION     NA48527  13.516  13.436  14.034  0.1356  0.2978 -0.0638
32719ION     NA48528   2.940   9.024   6.293  0.1357  0.0838 -0.2110
32720ION     NA48529   5.767   4.957  10.558 -0.1172  0.2494  0.1792
32721ION     NA48530  15.162   1.049   0.220 -0.1289  0.3513  0.1340
32722ION     NA48531  14.609   1.529  11.012  0.1514  0.1799  0.2411
32723ION     NA48532  17.495   0.817  11.463  0.0202 -0.1150  0.1866
32724ION     NA48533  10.784  10.607   9.882  0.3898 -0.0094 -0.1165
32725ION     NA48534   2.655   3.251   5.943 -0.0781 -0.1906 -0.0753
32726ION     NA48535  15.201   4.517  13.457  0.0249 -0.0004 -0.2128
32727ION     NA48536   6.597  11.809  10.193  0.1862 -0.3332 -0.0609
32728ION     NA48537  14.300   0.295   2.082  0.1177 -0.1451  0.1047
32729ION     NA48538  17.751   2.457  10.776  0.2419 -0.1125  0.1758
32730ION     NA48539   6.500   9.946  10.789  0.1319  0.0330 -0.1583
32731ION     NA48540   7.673  15.026  10.628 -0.0180 -0.1316  0.1428
32732ION     NA48541   0.956   9.995  10.824 -0.2357  0.0245 -0.1370
32733ION     NA48542   4.063   3.438  12.992  0.0320  0.0471 -0.0742
32734ION     NA48543   1.413  14.879  10.173 -0.2182  0.0035  0.0954
32735ION     NA48544   3.679  15.545   5.774 -0.0859 -0.0234 -0.0385
32736ION     NA48545  17.692  13.370  13.973  0.0293  0.0735 -0.1067
32737ION     NA48546   9.041  16.340   5.909 -0.0707 -0.0193  0.1826
32738ION     NA48547   3.064   4.304  12.483  0.2428 -0.4199  0.0627
32739ION     NA48548  12.605   9.948  14.210  0.0592  0.0635  0.3143
32740ION     NA48549   3.360  15.086   2.671  0.3106  0.0558  0.2363
32741ION     NA48550   5.391   6.523  10.575 -0.0111  0.0861  0.0236
32742ION     NA48551  15.355   6.648  10.466  0.0860  0.2002  0.1291
32743ION     NA48552   1.214   6.188  10.713  0.2555  0.0604 -0.5004
32744ION     NA48553  13.583   3.494  15.236  0.1515 -0.1625 -0.1418
32745ION     NA48554   1.230   7.247   5.874 -0.0759  0.0057  0.0913
32746ION     NA48555   9.117   9.074  10.513 -0.0870 -0.1220  0.3352
32747ION     NA48556  10.968   1.907   3.047 -0.0403 -0.0373 -0.0394
32748ION     NA48557   1.502   1.466  11.174 -0.0508  0.0125 -0.2197
32749ION     NA48558  10.120   8.300   2.708 -0.0998  0.0543 -0.2688
32750ION     NA48559  12.628   6.272  10.086 -0.1814 -0.1475 -0.2394
32751ION     NA48560  16.334   6.828  10.322  0.2465 -0.1258 -0.3648
32752ION     NA48561  10.406   0.366   5.913  0.1266  0.2540  0.2109
32753ION     NA48562  12.848   4.189  10.061  0.1586 -0.0637  0.0174
32754ION     NA48563  10.354   4.532   5.596 -0.2176  0.2914 -0.1834
32755ION     NA48564   9.670   3.013   5.764  0.1441  0.2361  0.0684
32756ION     NA48565  13.777   6.066  10.431  0.0914 -0.0159 -0.2811
32757ION     NA48566  12.043  14.514  15.490  0.0574  0.1420  0.0807
32758ION     NA48567  16.492   0.274  11.415 -0.0732  0.2183 -0.0299
32759ION     NA48568   2.534   5.229  10.770  0.0358 -0.1812 -0.3041
32760ION     NA48569   6.877   5.499  10.634 -0.1457  0.2679 -0.3306
32761ION     NA48570   1.361  13.231  10.479 -0.1884  0.1618  0.2953
32762ION     NA48571   3.159   2.436  11.495  0.0005 -0.3066 -0.2536
32763ION     NA48572  10.347  14.217   0.239  0.2651 -0.0301  0.4089
32764ION     NA48573   6.788   4.444  10.208 -0.1957  0.1780  0.2440
32765ION     NA48574  16.976   6.181  15.474 -0.1330 -0.1031 -0.1929
32766ION     NA48575   5.285  17.273  10.228 -0.3660 -0.0899  0.3299
32767ION     NA48576   1.084  13.226   3.855  0.1615 -0.1490  0.2160
32768ION     NA48577   2.610   7.135  10.758  0.2225 -0.2150  0.0434
32769ION     NA48578  15.676   4.918   6.129 -0.0535 -0.0247 -0.1937
32770ION     NA48579  16.488   5.456  10.885 -0.0587 -0.2050  0.1062
32771ION     NA48580  18.215  13.330  15.720 -0.2207  0.0273 -0.1067
32772ION     NA48581   8.857   2.663   9.944  0.0498  0.5284  0.1780
32773ION     NA48582  13.556  17.386  10.589 -0.2644 -0.2000  0.0814
32774ION     NA48583  17.884   6.496  10.590  0.0303 -0.2245  0.0829
32775ION     NA48584  16.124   3.153   2.824  0.2248  0.3423  0.1770
32776ION     NA48585  17.106   1.322   4.854  0.0246 -0.0472  0.0121
32777ION     NA48586   6.521   0.497   9.915 -0.0566  0.0488  0.1373
32778ION     NA48587  16.796  14.583  10.380 -0.2153 -0.0152  0.0106
32779ION     NA48588   4.120   4.118  10.687  0.4143 -0.1060 -0.2723
32780ION     NA48589  15.037  10.296   0.251  0.0128 -0.0701 -0.0303
32781ION     NA48590  11.048  18.204  10.446 -0.2391 -0.3157 -0.0408
32782ION     NA48591  14.341  15.443  10.552 -0.0525  0.0734 -0.1662
32783ION     NA48592  17.680   7.463  10.475 -0.0105  0.3635  0.1939
32784ION     NA48593   7.829  15.817  10.835  0.0110 -0.5100  0.3469
32785ION     NA48594   1.652   5.201   0.590 -0.4399  0.3819  0.1654
32786ION     NA48595   7.004   7.645   3.215  0.0736  0.0400 -0.0367
32787ION     NA48596  10.878  12.813  12.146 -0.2120 -0.0333  0.0995
32788ION     NA48597  17.371   1.862  12.023  0.0442  0.0121  0.1356
32789ION     NA48598  15.167   7.695  10.495  0.1895  0.0588 -0.2051
32790ION     NA48599  16.387   2.335   5.610  0.2057  0.3808 -0.0955
32791ION     NA48600  18.094   4.217  15.078  0.0039  0.1195 -0.0394
32792ION     NA48601   7.031   0.019  11.109 -0.2199  0.1933 -0.1532
32793ION     NA48602   3.392  16.506  14.136  0.0496 -0.0819  0.0720
32794ION     NA48603  14.144   7.017  10.604  0.1152  0.1428  0.0223
32795ION     NA48604   9.742   1.774  10.101  0.1199  0.1173 -0.0993
32796ION     NA48605   2.785   9.939  10.586 -0.1606  0.0831 -0.0692
32797ION     NA48606  14.821   8.404  10.248  0.0003  0.1910 -0.1998
32798ION     NA48607   9.036  16.008  10.530  0.4098  0.1437  0.0044
32799ION     NA48608  11.347  14.207  10.534  0.3333  0.2594  0.2796
32800ION     NA48609   8.088  12.323  15.184  0.3304  0.0421 -0.0080
32801ION     NA48610  14.507  10.016   9.836 -0.0484  0.0121  0.3422
32802ION     NA48611  12.576   1.782  11.911 -0.0324  0.0493  0.0211
32803ION     NA48612   3.630  10.748  15.853 -0.1960  0.3695  0.0068
32804ION     NA48613  12.607  16.171  10.773 -0.3184  0.1562  0.0307
32805ION     NA48614   7.362   9.481  10.883  0.0891 -0.0785 -0.0998
32806ION     NA48615  10.567   8.375  14.434 -0.1743 -0.1226  0.0107
32807ION     NA48616  13.292   2.275  10.691 -0.0071 -0.0478  0.0026
32808ION     NA48617   1.232   5.127   6.183 -0.0787 -0.0212  0.1822
32809ION     NA48618   0.752  17.971  10.580  0.0441  0.1490 -0.0609
32810ION     NA48619   3.530   9.788  13.901 -0.0653  0.1180  0.0645
32811ION     NA48620  11.489   3.177  10.244 -0.0303 -0.0796  0.1622
32812ION     NA48621   8.109  11.643  10.445 -0.1187  0.0021  0.1174
32813ION     NA48622   6.495   1.880   5.429 -0.0757  0.0073 -0.0175
32814ION     NA48623   9.846   4.904   3.759  0.2241 -0.1184 -0.1586
32815ION     NA48624  11.497  12.913  14.986 -0.3458  0.0639 -0.2509
32816ION     NA48625   2.368  13.484  10.489 -0.3527  0.1364 -0.0322
32817ION     NA48626   5.275  16.082  12.932 -0.1292 -0.2200 -0.1190
32818ION     NA48627   1.220  16.751  10.406  0.0358 -0.3615 -0.0834
32819ION     NA48628  16.267  17.861   0.267 -0.2887  0.0904  0.5169
32820ION     NA48629   2.184  11.828  10.407  0.2328 -0.0472  0.1040
32821ION     NA48630  17.353   1.562   6.209  0.1293  0.1078  0.1910
32822ION     NA48631   0.856   8.486  10.453  0.0454 -0.0244  0.0337
32823ION     NA48632  12.318  12.136  10.039  0.1247 -0.1545  0.0100
32824ION     NA48633   4.413   9.867  10.487 -0.1374 -0.0840  0.1498
32825ION     NA48634  15.560  14.533   1.368 -0.0652  0.0178  0.1322
32826ION     NA48635   4.633   0.782  13.994 -0.2241 -0.1099 -0.0646
32827ION     NA48636   3.609  13.822   3.583 -0.0146 -0.1533 -0.0084
32828ION     NA48637   7.008   1.547   5.427  0.1547  0.0659 -0.1792
32829ION     NA48638   5.284   8.628   0.692 -0.0348  0.5176  0.2084
32830ION     NA48639   0.515  16.176   3.678 -0.3372 -0.0631  0.0325
32831ION     NA48640   5.042   9.709   4.008 -0.2325 -0.0890  0.1887
32832ION     NA48641   2.153   6.643   2.469 -0.3294  0.0500  0.4254
32833ION     NA48642  10.105   6.726   5.242 -0.0384 -0.0663 -0.2253
32834ION     NA48643  13.446   1.391   5.943 -0.1037  0.0468 -0.0620
32835ION     NA48644   2.428  16.648   5.929  0.0556  0.0942 -0.0625
32836ION     NA48645   2.222   8.893  10.510 -0.2788 -0.0048  0.0376
32837ION     NA48646   5.685   5.896  10.655 -0.1785  0.1973  0.1776
32838ION     NA48647  11.668  17.582  10.581 -0.0161  0.1669  0.0546
32839ION     NA48648  16.737  15.476  10.282 -0.2367 -0.5095 -0.0516
32840ION     NA48649  14.417   5.430  10.848  0.0142  0.0310 -0.0246
32841ION     NA48650   1.119  10.923  10.527 -0.0092  0.0560  0.0857
32842ION     NA48651   0.161   9.006  10.663  0.1714 -0.0544  0.1341
32843ION     NA48652  12.445   8.082   5.078 -0.0855 -0.0537  0.0894
32844ION     NA48653  14.919  11.230   5.705  0.1561 -0.2238 -0.1732
32845ION     NA48654   3.690   9.534  10.428 -0.0874 -0.3137 -0.0525
32846ION     NA48655   5.141  11.511  10.436 -0.1824  0.1816 -0.1151
32847ION     NA48656   9.290   0.973  12.833  0.2942 -0.2289 -0.0057
32848ION     NA48657   3.278   4.208  10.803 -0.0621 -0.3391 -0.0147
32849ION     NA48658   5.225  13.033   3.144  0.0292 -0.1884 -0.0309
32850ION     NA48659   2.544  11.066  10.446 -0.3526 -0.0631 -0.0347
32851ION     NA48660  13.048   9.464   9.696  0.2041  0.4032  0.5414
32852ION     NA48661  16.832   7.488  10.475  0.1772  0.1921  0.0624
32853ION     NA48662   4.397   7.126  10.689  0.3216  0.1728 -0.2711
32854ION     NA48663  11.344   5.147   5.552 -0.4000 -0.1051 -0.1191
32855ION     NA48664   1.416  14.337  12.888 -0.3205 -0.0363  0.1608
32856ION     NA48665   6.107  10.647  14.365 -0.1990  0.1545  0.3174
32857ION     NA48666   7.390   3.854  10.092  0.0878  0.0524  0.0784
32858ION     NA48667   9.301   5.590   5.845 -0.1471  0.0607 -0.2163
32859ION     NA48668  14.471  14.492   5.534 -0.0745 -0.1231 -0.0273
32860ION     NA48669   1.943   4.880  14.673 -0.1205 -0.0648 -0.1713
32861ION     NA48670   1.628   1.416  10.649  0.1377  0.0506 -0.1072
32862ION     NA48671   5.952   1.079  10.092 -0.0058  0.0603 -0.0920
32863ION     NA48672  14.590   9.860   5.756  0.3042 -0.1141  0.0069
32864ION     NA48673   6.370   7.123   3.479  0.1852 -0.0653  0.1400
32865ION     NA48674   8.105   2.238   9.770 -0.1207  0.0191  0.4038
32866ION     NA48675   5.753  15.257  15.477  0.3168 -0.4899  0.3638
32867ION     NA48676  11.468  15.577  13.845  0.0423  0.1522 -0.3287
32868ION     NA48677   0.251  16.074   6.222  0.0732 -0.3170 -0.2822
32869ION     NA48678   3.991   5.618   1.573  0.1471 -0.4185  0.0002
32870ION     NA48679   8.067   3.873   5.563 -0.1009 -0.2396  0.1073
32871ION     NA48680   0.964   1.551  10.961 -0.5215 -0.0497 -0.0502
32872ION     NA48681   9.413   0.102  10.175 -0.1163  0.3671  0.1496
32873ION     NA48682  10.826   0.798  10.548 -0.0178  0.1900 -0.1475
32874ION     NA48683  12.747  14.755  13.360 -0.3804  0.3398 -0.1633
32875ION     NA48684  15.251   5.128  15.477 -0.0282 -0.2542 -0.0255
32876ION     NA48685   0.573  13.868  10.293  0.0052  0.2190  0.1573
32877ION     NA48686  10.190  17.868   5.396 -0.0638 -0.0771  0.2160
32878ION     NA48687  11.305   5.988  10.733  0.1051 -0.1453 -0.1642
32879ION     NA48688   7.659   4.677  11.899  0.2459  0.0985  0.1646
32880ION     NA48689  13.924  10.879   1.448 -0.0226 -0.1026 -0.0525
32881ION     NA48690   0.084  15.424  10.325 -0.1319  0.0043 -0.3626
32882ION     NA48691  12.522  10.075   9.771  0.0826 -0.2451 -0.0661
32883ION     NA48692   5.984   6.819  11.261 -0.2833  0.0443 -0.2477
32884ION     NA48693   3.274   9.401  12.091  0.1599 -0.0135  0.0818
32885ION     NA48694   1.895  15.814  14.002 -0.2256 -0.3692  0.1997
32886ION     NA48695   4.878   4.967  15.768  0.2363  0.4870  0.2079
32887ION     NA48696   8.201   0.285   9.846  0.3180 -0.0278  0.0189
32888ION     NA48697  16.913  14.268  13.156 -0.0202  0.1483 -0.0167
32889ION     NA48698  15.030   9.716   4.839 -0.0126 -0.1778  0.2005
32890ION     NA48699   5.971   8.816   6.256  0.1037 -0.0768  0.0023
32891ION     NA48700  17.254  11.629   6.253 -0.0341 -0.0189  0.0779
32892ION     NA48701   9.740   4.373  10.021  0.0451  0.1300  0.1137
32893ION     NA48702  16.782  10.723  10.380  0.0564 -0.0238  0.1869
32894ION     NA48703   5.137   0.738  10.043 -0.0401  0.1280 -0.1202
32895ION     NA48704  17.432   9.407  10.175 -0.0078  0.1449  0.1223
32896ION     NA48705   1.031  15.682  10.377  0.1244 -0.2348 -0.1609
32897ION     NA48706   6.639  11.784   1.776 -0.0036  0.0525  0.0098
32898ION     NA48707  11.291  10.550   4.213 -0.1719  0.2754  0.0382
32899ION     NA48708   2.235  17.023  10.340 -0.0277  0.3131  0.1072
32900ION     NA48709   4.049  11.290  10.761  0.2767  0.0139  0.0983
32901ION     NA48710   9.848   3.643   9.932 -0.0809 -0.3408 -0.3173
32902ION     NA48711  13.609  13.097  11.191 -0.3535  0.1531 -0.2658
32903ION     NA48712  11.230   6.826  10.279 -0.0910  0.2976 -0.0995
32904ION     NA48713   6.286  11.738   0.671 -0.0653  0.5037  0.0086
32905ION     NA48714   3.299   3.714  13.607  0.2319  0.2777 -0.1765
32906ION     NA48715  17.694  12.340  10.615 -0.2325  0.0673  0.1398
32907ION     NA48716  10.179   5.613  10.945 -0.1387 -0.0967 -0.1251
32908ION     NA48717   8.483   5.748  10.192  0.0680  0.1138 -0.4113
32909ION     NA48718  14.458   0.709   6.045  0.0795  0.1080 -0.0148
32910ION     NA48719   4.478   4.080   2.916 -0.0649 -0.0966 -0.2301
32911ION     NA48720  16.252   0.581  10.940  0.1538 -0.1291 -0.0661
32912ION     NA48721   7.774   9.088   5.782 -0.4373 -0.1830  0.1934
32913ION     NA48722  14.348  10.974   9.974  0.0403  0.1438  0.1270
32914ION     NA48723  14.781  13.157   0.125 -0.1327  0.2788 -0.0422
32915ION     NA48724   8.195   3.664  10.022  0.0829  0.1475 -0.3149
32916ION     NA48725   2.079  11.680   5.900 -0.4096 -0.0353  0.0851
32917ION     NA48726  14.830   2.623  12.428  0.2005 -0.0209  0.0199
32918ION     NA48727  13.465   4.705  11.305  0.1446 -0.0620  0.0321
32919ION     NA48728   7.698   6.982  10.534 -0.2124  0.0109  0.1388
32920ION     NA48729   1.754   0.172   1.942  0.0885  0.0521 -0.0181
32921ION     NA48730   6.877  15.157  10.525  0.0522  0.3390 -0.0068
32922ION     NA48731   5.421   4.200  10.707 -0.3872  0.0969  0.3504
32923ION     NA48732   0.544  14.406  10.369  0.1667  0.2210  0.0626
32924ION     NA48733  14.477   0.696  10.595  0.1428 -0.1063 -0.0902
32925ION     NA48734   1.115   5.943  11.872  0.0616  0.3981 -0.3499
32926ION     NA48735  16.120  12.574   0.591 -0.1202  0.1797 -0.0091
32927ION     NA48736  15.315   2.721   3.335 -0.0034  0.1670 -0.1386
32928ION     NA48737  12.052  10.393  13.760  0.3206  0.1189 -0.1731
32929ION     NA48738   0.491   2.416  10.834  0.0527  0.0800 -0.0965
32930ION     NA48739   7.897   6.673  13.094 -0.2912 -0.0068  0.0738
32931ION     NA48740  12.133  13.368  15.688 -0.1332  0.2786 -0.1673
32932ION     NA48741   3.487   6.641  10.573 -0.1032 -0.3032 -0.0061
32933ION     NA48742   6.214   7.682   0.466 -0.0849  0.0049 -0.1202
32934ION     NA48743   3.832   9.506   5.988  0.1490 -0.4474 -0.0933
32935ION     NA48744   5.262  12.399  10.236 -0.2189  0.0299 -0.1497
32936ION     NA48745   3.178   9.982   6.051 -0.1099 -0.0153  0.0372
32937ION     NA48746  14.938  12.492   5.077 -0.2007 -0.0236 -0.1064
32938ION     NA48747   9.468  16.397  11.245  0.1261  0.0921  0.1788
32939ION     NA48748   9.560  11.596   5.797  0.0217 -0.0450 -0.0211
32940ION     NA48749  11.221   7.839  10.065 -0.0734 -0.1565  0.1202
32941ION     NA48750   4.050  17.930  14.726  0.1903  0.0292 -0.0429
32942ION     NA48751  18.142   1.801   0.242  0.2390 -0.0928 -0.2416
32943ION     NA48752  16.749   0.900  10.819  0.1791  0.1286  0.0934
32944ION     NA48753  12.616   5.087   6.104 -0.1298 -0.0696  0.0265
32945ION     NA48754   7.366  12.357  10.310 -0.1723 -0.1355  0.2681
32946ION     NA48755   0.138  14.492   4.494  0.1450  0.1521 -0.0415
32947ION     NA48756   9.616   9.705  13.464 -0.1453 -0.3053  0.1995
32948ION     NA48757   0.063   5.842   6.429 -0.3804 -0.1146 -0.1026
32949ION     NA48758  17.241   1.646  10.748  0.0299  0.0678 -0.1189
32950ION     NA48759   0.096   1.176  10.937  0.1290 -0.0122  0.1162
32951ION     NA48760  14.161   3.076  10.592  0.1686  0.0133 -0.0606
32952ION     NA48761  10.568   8.364   9.933 -0.1386  0.2171  0.2006
32953ION     NA48762   5.571  16.559  10.176  0.0036 -0.1106 -0.1475
32954ION     NA48763   8.007  17.761  10.081 -0.0256  0.0983 -0.3404
32955ION     NA48764   8.792   3.253  16.204  0.0526 -0.0674 -0.1083
32956ION     NA48765   4.804   4.747  10.660  0.0311  0.0443  0.2442
32957ION     NA48766   8.667   2.528  14.187  0.2065 -0.1117 -0.0540
32958ION     NA48767   8.511   5.318   2.901 -0.2725  0.3746 -0.1422
32959ION     NA48768   1.400  15.121  12.209  0.1661  0.1541  0.0989
32960ION     NA48769  11.663   8.607   9.994 -0.4574 -0.0682 -0.0963
32961ION     NA48770   7.618  16.819  11.102  0.0901  0.0216 -0.0827
32962ION     NA48771   7.890   5.435  10.473 -0.2342 -0.0068 -0.0144
32963ION     NA48772  13.211  15.062   1.677 -0.4425  0.0598 -0.2285
32964ION     NA48773   9.909   8.873  10.072  0.2044 -0.0482 -0.2274
32965ION     NA48774  10.985   5.864   9.975 -0.1755  0.0768  0.2304
32966ION     NA48775   6.660   6.214   4.849 -0.1658  0.1262 -0.1645
32967ION     NA48776   5.757   3.114  10.383  0.1167  0.2625 -0.0471
32968ION     NA48777   4.536  17.727  10.260  0.0744  0.3149 -0.2070
32969ION     NA48778   6.005   8.717   3.415  0.3038  0.0274  0.0892
32970ION     NA48779  15.369   3.936   4.221 -0.0564 -0.0164 -0.1801
32971ION     NA48780  10.897   1.518   0.198  0.2514 -0.0369 -0.0684
32972ION     NA48781   3.509  12.288   4.256  0.1880 -0.1997  0.1812
32973ION     NA48782  13.690  16.344  15.747  0.2343 -0.2429  0.0069
32974ION     NA48783   8.436   9.331   0.735 -0.1539 -0.1260  0.0903
32975ION     NA48784  11.117  16.370  11.337 -0.3816  0.0993  0.0548
32976ION     NA48785   6.210   2.346  12.491  0.0157 -0.1727 -0.1360
32977ION     NA48786  14.115  12.773   5.503  0.1459  0.1625 -0.2002
32978ION     NA48787   2.167   4.394  10.820 -0.2919 -0.0849  0.0785
32979ION     NA48788  15.952   3.155   4.340  0.0875 -0.0677  0.0268
32980ION     NA48789  10.058  16.306   5.643  0.0745  0.0083 -0.0782
32981ION     NA48790   8.287  16.310  10.602 -0.2474  0.0375 -0.0495
32982ION     NA48791   8.088  10.806  10.678  0.2885 -0.2246 -0.3286
32983ION     NA48792   6.037   4.497  12.676 -0.1323 -0.0611 -0.0999
32984ION     NA48793  13.924  12.733  10.243 -0.2373 -0.1337  0.1270
32985ION     NA48794  15.467   3.072   6.012 -0.1382  0.1281  0.0836
32986ION     NA48795   4.273   2.847  10.600  0.2773 -0.0638 -0.1833
32987ION     NA48796  10.329  16.333  12.946 -0.1295  0.2651 -0.1055
32988ION     NA48797   1.355  11.544  10.511 -0.0261 -0.0270  0.1222
32989ION     NA48798   0.003   8.250   3.091 -0.2964  0.0904  0.0070
32990ION     NA48799  13.430   2.054   6.044  0.1434  0.1037 -0.2929
32991ION     NA48800  13.885  10.253   9.725 -0.1690  0.1241 -0.1287
32992ION     NA48801   7.376  18.191  14.047 -0.2522  0.3813  0.0491
32993ION     NA48802   3.923  15.696  10.160  0.2827  0.0882 -0.0385
32994ION     NA48803  12.774  11.449   9.944  0.1630  0.0431  0.2256
32995ION     NA48804  16.186  13.175  10.608 -0.0287  0.2044 -0.2559
32996ION     NA48805  14.010   5.752   3.341  0.1359 -0.0154 -0.0860
32997ION     NA48806  14.785  17.816  10.536 -0.1383 -0.2083 -0.0729
32998ION     NA48807   8.051   5.123  14.315 -0.3013  0.1434 -0.0281
32999ION     NA48808  17.888   3.620   0.977  0.0479  0.2263 -0.1191
33000ION     NA48809  15.742  11.786  13.711 -0.0592 -0.2162 -0.3242
33001ION     NA48810   0.967   0.732  10.655  0.0174 -0.2746 -0.0568
33002ION     NA48811   0.177   5.034  10.733  0.3321  0.0346  0.2938
33003ION     NA48812   0.710   5.464  15.123  0.1549 -0.0118 -0.2070
33004ION     NA48813   4.936   6.188   1.875 -0.0385 -0.2106 -0.0552
33005ION     NA48814   9.731   6.835  10.338 -0.1491 -0.0248  0.0417
33006ION     NA48815  13.171  13.771  10.532  0.3986  0.0824  0.1492
33007ION     NA48816   7.306   1.610   1.796 -0.0704  0.0223 -0.1732
33008ION     NA48817  13.728   4.734   4.646  0.1041  0.2568 -0.0346
33009ION     NA48818  13.545  16.936   3.726 -0.0684 -0.0348  0.0694
33010ION     NA48819   9.427  12.036  10.246 -0.1259  0.0496 -0.0481
33011ION     NA48820  18.078   6.945   4.438  0.2928  0.1184  0.1008
33012ION     NA48821   5.934   6.240   6.108  0.1603 -0.2580  0.1129
33013ION     NA48822   0.556   6.985  10.626  0.0498 -0.0823  0.3810
33014ION     NA48823  16.702  18.118  10.747 -0.1865  0.1681  0.0062
33015ION     NA48824   3.501  12.589  10.493 -0.0144 -0.1531  0.0091
33016ION     NA48825   6.059   5.340   6.151 -0.1087 -0.3382  0.0256
33017ION     NA48826   5.443   7.779  10.485 -0.0540  0.1550  0.0448
33018ION     NA48827  16.102   4.626  10.860 -0.3014 -0.1615 -0.1508
33019ION     NA48828   4.680  16.452  10.422  0.0707  0.2103 -0.0864
33020ION     NA48829   7.779  16.015  14.113  0.2736  0.2375  0.1090
33021ION     NA48830  17.450   4.823   5.265  0.0985 -0.2493  0.2494
33022ION     NA48831  15.165  15.905  10.460  0.1371  0.0847  0.1388
33023ION     NA48832   7.764  11.626   1.136  0.1293  0.1845 -0.3883
33024ION     NA48833   2.474   4.082   6.290  0.1950 -0.1661 -0.1755
33025ION     NA48834   0.304  10.457  10.864  0.3617 -0.0618 -0.1063
33026ION     NA48835  12.938  17.500   6.164 -0.1114  0.0358 -0.0720
33027ION     NA48836   0.194   9.479  10.389 -0.4873 -0.3608  0.2917
33028ION     NA48837   5.481   1.751   5.695 -0.1034  0.0674 -0.0844
33029ION     NA48838   1.684   5.163  10.685 -0.0631 -0.0721  0.1187
33030ION     NA48839  10.715   7.096   1.099 -0.2120  0.1280  0.1798
33031ION     NA48840  13.342  12.049   9.921  0.0732  0.0843 -0.0821
33032ION     NA48841   5.872  14.846  10.639 -0.0002 -0.2237  0.0472
33033ION     NA48842   1.899  16.165  10.385 -0.0710  0.0711 -0.1009
33034ION     NA48843   8.759   4.327  10.116 -0.0288 -0.0886  0.0019
33035ION     NA48844   0.909   1.455   5.840 -0.4388  0.0674  0.1828
33036ION     NA48845  14.201   8.286  13.700 -0.4960  0.0123 -0.1664
33037ION     NA48846   6.748  12.546   0.815  0.0189 -0.0974 -0.1264
33038ION     NA48847  11.285  11.661  10.526  0.1302 -0.3672  0.3310
33039ION     NA48848   5.011  14.563  10.115 -0.0773  0.1766  0.0275
33040ION     NA48849   7.381   2.692   9.851  0.0958  0.3043  0.1249
33041ION     NA48850   1.005   5.342   1.273  0.1545  0.0342  0.0308
33042ION     NA48851  14.511   8.729  15.948 -0.1126  0.0930  0.0615
33043ION     NA48852  10.898  13.256  10.361 -0.0095  0.1188  0.0155
33044ION     NA48853  15.068   0.305  10.736 -0.0613  0.0182 -0.1319
33045ION     NA48854   9.583   4.972  10.128  0.0114  0.2720  0.0430
33046ION     NA48855   9.341  16.817  14.102  0.0918 -0.0529 -0.3025
33047ION     NA48856  12.782  13.534   1.122 -0.1541 -0.1109 -0.1644
33048ION     NA48857   2.678  15.224  10.288 -0.2756  0.1131  0.1039
33049ION     NA48858   4.430   8.909   3.577  0.3423 -0.1323 -0.0067
33050ION     NA48859   0.602   7.721  11.007 -0.1349 -0.0118  0.2041
33051ION     NA48860  15.696  12.826  15.636 -0.1721 -0.0953  0.2200
33052ION     NA48861   6.204   8.995  10.461 -0.1300 -0.1563 -0.2917
33053ION     NA48862  10.177  11.410  10.138 -0.0157 -0.0332  0.3735
33054ION     NA48863  13.570  15.817  11.647  0.2931 -0.1360  0.0704
33055ION     NA48864   0.567  17.508  10.634  0.0476  0.1736  0.5474
33056ION     NA48865   1.731  12.491  10.395  0.2365 -0.1194  0.0699
33057ION     NA48866   3.992   4.815  16.265 -0.0045  0.0333  0.0330
33058ION     NA48867   0.967   2.970   2.959  0.0500  0.2774  0.3029
33059ION     NA48868  14.298   7.995  10.607 -0.1634  0.0438 -0.0202
33060ION     NA48869   7.401  11.595  13.263  0.1474 -0.1380  0.1801
33061ION     NA48870   4.417   7.701   6.123  0.2593  0.1760 -0.0323
33062ION     NA48871   0.300   7.720  10.544  0.0753 -0.2051 -0.1147
33063ION     NA48872   1.137   9.136  10.521  0.0730 -0.0762 -0.0048
33064ION     NA48873   7.690  16.388   5.682  0.1461 -0.2024 -0.0746
33065ION     NA48874   0.225  11.891  10.564  0.1364 -0.1695 -0.0070
33066ION     NA48875  10.360  12.467  10.191  0.0842 -0.0302 -0.1887
33067ION     NA48876  15.320   5.205  13.991  0.0335  0.0952  0.0545
33068ION     NA48877   6.398   5.265  10.420 -0.1910  0.0111  0.1368
33069ION     NA48878  16.203  16.182  10.394 -0.1474  0.0822  0.0840
33070ION     NA48879   0.354   0.161  10.763 -0.3038 -0.0466  0.2824
33071ION     NA48880  11.911  15.031  11.094  0.0607 -0.0187 -0.0312
33072ION     NA48881   4.876  15.389  10.289 -0.0961  0.1032 -0.4764
33073ION     NA48882  17.183  16.655  10.443 -0.1588  0.3630  0.0029
33074ION     NA48883   6.372   2.788   9.927 -0.0236 -0.1323 -0.2721
33075ION     NA48884   6.216  13.797   5.877  0.0721  0.0862  0.0276
33076ION     NA48885   6.574   3.624  12.673  0.0949  0.0684  0.4913
33077ION     NA48886  15.647   5.337  10.939  0.0086 -0.0068  0.1803
33078ION     NA48887   8.277   9.872  10.466 -0.0901  0.1548 -0.1645
33079ION     NA48888  17.543  12.839  10.546 -0.1821  0.0096  0.1423
33080ION     NA48889  16.622   6.514   5.510 -0.1033 -0.0181  0.2483
33081ION     NA48890  10.211  17.513  16.355 -0.3019 -0.0119 -0.0348
33082ION     NA48891   9.272  11.441  10.343  0.1969  0.0074  0.3259
33083ION     NA48892  12.629  15.248  10.505 -0.0539 -0.1526 -0.1808
33084ION     NA48893  14.374  17.728  10.978  0.1378 -0.0493  0.0508
33085ION     NA48894   7.862   7.931  10.782  0.1607 -0.0832  0.3261
33086ION     NA48895  12.522   5.296  14.640 -0.2555 -0.1039 -0.2752
33087ION     NA48896   7.290  17.096  10.180 -0.0892  0.0616  0.0441
33088ION     NA48897  18.084  17.078  10.431  0.3119 -0.0274  0.0436
33089ION     NA48898   8.184   8.868  10.658  0.0712  0.3033 -0.0062
33090ION     NA48899  17.051   8.582  12.615  0.0433  0.0683  0.0423
33091ION     NA48900  16.808   2.378  10.712 -0.1473  0.1843 -0.1439
33092ION     NA48901   7.663   6.820   4.432  0.2412 -0.1506  0.0566
33093ION     NA48902   4.044   7.122   2.834  0.1595  0.0581  0.2144
33094ION     NA48903  13.894   9.302   9.924 -0.0333  0.1457 -0.1132
33095ION     NA48904   8.122   1.216   9.791 -0.0141 -0.1170 -0.1405
33096ION     NA48905   0.907   9.495  14.528  0.1307 -0.3920 -0.0880
33097ION     NA48906   5.070  16.493   3.679  0.0345  0.3307  0.2266
33098ION     NA48907  16.537   8.762  10.233 -0.1151  0.0851  0.0757
33099ION     NA48908  15.863   3.216  10.552 -0.1340  0.1020 -0.0730
33100ION     NA48909  10.846   6.671   5.922  0.1234 -0.0243  0.1404
33101ION     NA48910   2.857  17.382   5.579  0.1352 -0.4120 -0.0768
33102ION     NA48911  12.700   0.372   5.456  0.0694 -0.0798 -0.0699
33103ION     NA48912   8.376  17.108  10.256 -0.2225  0.0915 -0.0062
33104ION     NA48913  17.999   3.784   5.824  0.0645 -0.0126  0.0416
33105ION     NA48914  15.065   4.397  10.932 -0.0065 -0.4264 -0.2372
33106ION     NA48915  11.652  11.328  14.751  0.1481  0.1107  0.0491
33107ION     NA48916   8.133   2.259   5.660  0.0732 -0.2038  0.0793
33108ION     NA48917   7.407   0.147   5.288 -0.3530  0.0437  0.0310
33109ION     NA48918   3.022   8.230  10.592  0.3475  0.1498  0.2864
33110ION     NA48919  13.022  10.326   5.165 -0.1237 -0.0441  0.0563
33111ION     NA48920   2.238   8.490   6.128  0.1658 -0.2616  0.0056
33112ION     NA48921  10.171   5.956   5.578  0.0559  0.0266 -0.0438
33113ION     NA48922  17.218  17.400  10.654  0.4585  0.1310 -0.3041
33114ION     NA48923   9.054  12.205   3.734  0.1077 -0.0187 -0.0081
33115ION     NA48924   4.941   0.581  12.043 -0.1356  0.2506 -0.1968
33116ION     NA48925   6.408  17.123   5.621  0.1301 -0.4513 -0.4414
33117ION     NA48926   5.342   7.173  10.438  0.0329 -0.0191 -0.2358
33118ION     NA48927   4.679   0.570   1.860  0.0687  0.0850  0.2658
33119ION     NA48928   1.260  17.104  14.958 -0.0569 -0.1479  0.1923
33120ION     NA48929   4.690  11.277   1.983 -0.2009  0.1802 -0.0625
33121ION     NA48930   0.563   6.653   5.750  0.1563  0.0568 -0.4213
33122ION     NA48931  16.903  12.108  12.641 -0.2286 -0.0115 -0.0284
33123ION     NA48932   8.950   6.614  10.215  0.1596 -0.1774 -0.2123
33124ION     NA48933   6.616  11.094  10.968  0.1947 -0.1035  0.0343
33125ION     NA48934   5.976  17.500   0.569 -0.0461  0.3512  0.1514
33126ION     NA48935  13.801   7.029  13.310  0.3566 -0.0887 -0.0835
33127ION     NA48936   9.207  17.635   5.966 -0.0243  0.0422 -0.0405
33128ION     NA48937  16.936  13.720  10.438 -0.0091  0.2954  0.1152
33129ION     NA48938  10.515   3.223   3.258 -0.0222 -0.2436 -0.0687
33130ION     NA48939  17.702  16.470  11.103  0.1954  0.1148 -0.1010
33131ION     NA48940   0.191   3.413   3.203 -0.2822 -0.0293  0.0227
33132ION     NA48941   3.257  17.223  16.012  0.2118 -0.0842  0.3000
33133ION     NA48942   4.479  12.578  10.470  0.1193  0.0293  0.2141
33134ION     NA48943   6.651   3.510  10.117 -0.1283  0.5519 -0.1058
33135ION     NA48944   5.576   1.763  14.352  0.2241  0.0358  0.0896
33136ION     NA48945  14.682  16.740  10.789  0.1608 -0.2828 -0.1335
33137ION     NA48946  12.382  14.183  12.249  0.0728  0.1715  0.0718
33138ION     NA48947  12.233   7.334  10.302  0.1629  0.3335  0.1293
33139ION     NA48948   4.653   0.016   5.583 -0.0885  0.2604 -0.1042
33140ION     NA48949  10.166   8.538   3.895  0.0527  0.0134 -0.3476
33141ION     NA48950   7.769   4.452  10.328 -0.0240 -0.2055 -0.4222
33142ION     NA48951   7.727   9.615  10.584 -0.3566 -0.0026 -0.1806
33143ION     NA48952  10.240  14.888  10.781 -0.1537  0.3810 -0.2297
33144ION     NA48953   1.504  17.570  10.244  0.2444  0.0741 -0.1923
33145ION     NA48954  10.611   7.371   9.938  0.0097 -0.4769  0.0411
33146ION     NA48955   1.360  16.746   3.718  0.1199  0.0068  0.0626
33147ION     NA48956   4.164  16.954  10.081 -0.1800  0.1846  0.0582
33148ION     NA48957   5.806  13.244  10.284  0.0477 -0.1676 -0.0128
33149ION     NA48958  10.477  13.441  11.146 -0.0539 -0.1137 -0.1550
33150ION     NA48959  11.411  17.154  13.729 -0.0127  0.1129  0.0109
33151ION     NA48960  16.869  16.626  14.929  0.0214 -0.2951  0.3357
33152ION     NA48961  14.746   3.014   6.309  0.1775 -0.2167  0.0583
33153ION     NA48962   1.874   3.626  11.155 -0.0072  0.2449 -0.1085
33154ION     NA48963   8.803   1.639   9.969 -0.0938  0.0775 -0.0367
33155ION     NA48964  11.935   4.058  10.054  0.1229  0.0394  0.1273
33156ION     NA48965   4.256   0.815  10.214  0.0190 -0.0102  0.0990
33157ION     NA48966  10.492  17.619  12.755  0.1290  0.0291  0.1769
33158ION     NA48967   2.529  13.078  15.872 -0.1100 -0.6153 -0.3046
33159ION     NA48968  12.308   3.396  10.354 -0.0049 -0.2062 -0.1050
33160ION     NA48969  10.244   0.009  10.594  0.0668  0.0706  0.1352
33161ION     NA48970   6.943  16.607  15.734  0.0371  0.0136  0.2202
33162ION     NA48971  10.977  10.116   1.632 -0.0463  0.0946 -0.1301
33163ION     NA48972   6.387   7.019   6.029  0.1705  0.1404  0.2297
33164ION     NA48973   5.461  15.313   5.996  0.0085 -0.0033  0.2882
33165ION     NA48974  10.431   3.030   5.938  0.1141  0.2264  0.0403
33166ION     NA48975   2.459  12.347   5.318 -0.2026  0.1851 -0.1944
33167ION     NA48976   3.630   3.573  10.512  0.1858 -0.2051  0.1337
33168ION     NA48977   4.679  16.371  11.739  0.1862 -0.1376  0.0281
33169ION     NA48978  13.795   8.186  15.011 -0.2060 -0.0026 -0.0357
33170ION     NA48979  12.728   3.058  10.450  0.0901  0.1532  0.3896
33171ION     NA48980  10.011   2.120  13.587  0.3562 -0.0851  0.0568
33172ION     NA48981   4.697   3.217   1.919 -0.0303 -0.1097 -0.5273
33173ION     NA48982   0.873  10.414   0.948  0.0319  0.1036 -0.1387
33174ION     NA48983  14.321   6.606  10.373 -0.2456  0.1107 -0.0357
33175ION     NA48984  11.283   9.877   9.721  0.0764 -0.1251 -0.3706
33176ION     NA48985   8.792   5.144  10.081 -0.2197 -0.2814  0.1294
33177ION     NA48986  14.630  12.772  10.142 -0.1844  0.1420 -0.1832
33178ION     NA48987   3.797   2.130  10.875  0.1864 -0.2018  0.3717
33179ION     NA48988   6.907  13.602  11.156 -0.1687 -0.2780 -0.0492
33180ION     NA48989  14.007   7.833  10.210  0.0973 -0.0125  0.4122
33181ION     NA48990   0.738  12.506  10.367 -0.0298 -0.1045  0.2029
33182ION     NA48991   0.087  12.226   5.022 -0.1225  0.0594 -0.2126
33183ION     NA48992   8.939   2.122  11.559 -0.2599  0.0589 -0.1597
33184ION     NA48993   7.796  14.533  10.517 -0.2388  0.3302  0.0588
33185ION     NA48994   7.782   9.369  13.925  0.2224  0.0225 -0.2737
33186ION     NA48995   4.281  14.149  10.550  0.1848  0.2119 -0.1328
33187ION     NA48996   3.876   4.895  10.667 -0.3452 -0.0658 -0.0924
33188ION     NA48997   6.362   7.882   5.091  0.1361  0.2502 -0.3305
33189ION     NA48998   0.817  10.535   3.066 -0.0913 -0.1869 -0.0305
33190ION     NA48999  16.639   3.858  10.778 -0.3826 -0.0644 -0.1860
33191ION     NA49000  15.882   0.573   4.513 -0.1225  0.1978 -0.3494
33192ION     NA49001   6.562  12.652  10.269  0.0197  0.0586  0.0734
33193ION     NA49002  11.817   0.395  10.342 -0.2554 -0.2476  0.4730
33194ION     NA49003  16.270   9.121   1.782  0.1555  0.2541  0.0942
33195ION     NA49004   9.174   3.489  10.029 -0.1860  0.1135  0.1012
33196ION     NA49005  16.341  15.170  14.013 -0.0790 -0.1176  0.0280
33197ION     NA49006  12.919   6.599  10.270  0.1723  0.2115 -0.1314
33198ION     NA49007  10.205  12.405  14.914 -0.0996  0.0774  0.2846
33199ION     NA49008  10.269  18.190  16.070 -0.0054  0.0696 -0.3556
33200ION     NA49009  16.701  10.328   5.978 -0.0650 -0.0234  0.0131
33201ION     NA49010  12.551  14.309  14.526 -0.3044  0.1368  0.2392
33202ION     NA49011  12.309   8.078   0.319  0.0686 -0.2125 -0.0294
33203ION     NA49012   5.908  12.887   5.840 -0.0745 -0.0040  0.0588
33204ION     NA49013   4.038  13.310  10.395  0.1330 -0.1798  0.1579
33205ION     NA49014   7.025  11.436  15.042 -0.3414  0.2409  0.0087
33206ION     NA49015  10.400   7.172   5.374  0.2358  0.1321  0.3193
33207ION     NA49016   3.816   6.284  10.729 -0.1079  0.2102  0.0116
33208ION     NA49017  10.427   6.683   1.639 -0.2221  0.1436 -0.0373
33209ION     NA49018   4.676  15.523   5.515  0.1335 -0.0210  0.3191
33210ION     NA49019   0.359  11.391  10.535  0.2823  0.0487 -0.3104
33211ION     NA49020  11.613   0.823  10.719 -0.1157 -0.1706  0.1637
33212ION     NA49021  14.744  12.360   3.199  0.1856 -0.0585  0.3191
33213ION     NA49022   9.009  10.227  10.200 -0.0397 -0.2534 -0.0773
33214ION     NA49023  10.208   1.540  10.146 -0.1251 -0.0326  0.1172
33215ION     NA49024  15.947  15.143  10.480 -0.1674 -0.0552 -0.1484
33216ION     NA49025  11.514   5.954   5.723 -0.2529  0.2906  0.0672
33217ION     NA49026   2.976   1.967  10.793  0.3122  0.0657 -0.0661
33218ION     NA49027   2.427   0.975  10.355 -0.2395  0.2178  0.0031
33219ION     NA49028   2.869  12.027  10.504  0.1608 -0.0908  0.2708
33220ION     NA49029   8.418   7.438  10.368  0.2026 -0.0675  0.1834
33221ION     NA49030  17.796   4.834  10.789  0.0885 -0.3510 -0.4229
33222ION     NA49031  11.874   2.454  10.388  0.0128 -0.2539 -0.1268
33223ION     NA49032   8.979   2.204   5.772 -0.0115  0.3351  0.0793
33224ION     NA49033   6.965   8.795   6.213  0.2362 -0.3685  0.1756
33225ION     NA49034  18.016  17.852  10.811 -0.1806 -0.1595  0.3675
33226ION     NA49035   6.092  18.049  13.295  0.2735 -0.1430 -0.0091
33227ION     NA49036  15.648  14.514   5.946 -0.1500  0.1616 -0.2445
33228ION     NA49037   4.121   6.224  14.558 -0.0875 -0.3610  0.0203
33229ION     NA49038  12.129   9.364   9.777  0.2525 -0.0088 -0.1561
33230ION     NA49039   2.830  16.597  10.299  0.2130  0.0257 -0.1400
33231ION     NA49040   2.704   7.771  12.553 -0.1382  0.0089  0.0551
33232ION     NA49041  10.313   6.569  10.037 -0.0882  0.1462 -0.2256
33233ION     NA49042   0.290   3.832  10.805  0.1148  0.1318 -0.0320
33234ION     NA49043  13.498   0.940  10.773 -0.2381 -0.1166 -0.0933
33235ION     NA49044  14.144   0.357   5.165  0.0691  0.1408  0.2496
33236ION     NA49045  11.004   1.541  10.308 -0.1158 -0.1895  0.0793
33237ION     NA49046   4.490   9.486   4.284  0.1481  0.2364  0.1286
33238ION     NA49047  17.045   9.973  15.127 -0.0699  0.0665  0.0121
33239ION     NA49048  13.852   9.779  11.681 -0.0820  0.0635 -0.0097
33240ION     NA49049   6.570   5.284   5.168  0.2091  0.3117  0.0633
33241ION     NA49050   3.258  13.430  10.331 -0.2526 -0.1164 -0.2003
33242ION     NA49051   0.148  15.929  15.607  0.0104  0.0050 -0.0672
33243ION     NA49052  10.080  15.540  14.004 -0.3064 -0.0971  0.0959
33244ION     NA49053   5.609   1.959   9.920  0.0259  0.4191 -0.2844
33245ION     NA49054  17.305  13.359   2.563  0.1258  0.0962 -0.1546
33246ION     NA49055  17.370   5.727   6.286 -0.0238 -0.2913  0.2279
33247ION     NA49056  15.623   8.317  10.880  0.0180 -0.0617  0.4769
33248ION     NA49057  13.311   1.889  11.067 -0.2502  0.0819 -0.1478
33249ION     NA49058   4.903   7.360  13.042 -0.3278  0.0480 -0.0217
33250ION     NA49059  12.807  17.679  10.562 -0.1509 -0.0950 -0.2321
33251ION     NA49060  14.539  16.927  10.376  0.2830 -0.1024 -0.1661
33252ION     NA49061  15.852   9.503  10.426  0.1403 -0.1272 -0.1071
33253ION     NA49062   2.283  17.954  10.270  0.1681 -0.4396  0.2462
33254ION     NA49063  13.433   3.518  10.412 -0.1216  0.0634  0.0709
33255ION     NA49064   4.688   5.098   2.625  0.1195 -0.0150 -0.1546
33256ION     NA49065   8.388  14.536   6.062  0.2874  0.2136 -0.2140
33257ION     NA49066  10.104  13.873  10.573  0.0226 -0.3397  0.0787
33258ION     NA49067   7.376  11.352  10.451 -0.3752  0.0469 -0.1362
33259ION     NA49068   9.906   7.746  10.136  0.1977  0.2120  0.1763
33260ION     NA49069  17.797   1.614  15.841 -0.2397 -0.2462 -0.1519
33261ION     NA49070  10.471   3.856  14.972  0.2243  0.1786  0.1323
33262ION     NA49071   1.618   0.682   5.891  0.0681  0.1339  0.2568
33263ION     NA49072   9.225  10.652  14.965 -0.0419  0.1801 -0.2316
33264ION     NA49073   8.681  12.758  10.381 -0.0120  0.0284  0.2976
33265ION     NA49074   2.699  14.223  10.266  0.0518 -0.0498  0.1963
33266ION     NA49075  11.139   7.977   4.610  0.0317  0.0794 -0.1096
33267ION     NA49076   4.181   5.489  10.856  0.0121 -0.2637  0.1851
33268ION     NA49077  18.210  11.001  10.499 -0.0867 -0.3615  0.3113
33269ION     NA49078  10.779  16.376   6.167  0.1080  0.0546  0.0996
33270ION     NA49079   5.629  12.832  15.861  0.0568 -0.2414 -0.0211
33271ION     NA49080  12.714   2.149  10.607  0.0650  0.2374  0.3452
33272ION     NA49081   6.239   7.134  10.432  0.0574 -0.0015 -0.0880
33273ION     NA49082   3.326   4.544   2.168 -0.3315 -0.0259  0.1566
33274ION     NA49083  17.684   0.452  10.676 -0.0102 -0.0621  0.0362
33275ION     NA49084  11.338   3.561  13.433 -0.1899 -0.0284  0.0472
33276ION     NA49085   6.225   1.042   5.145 -0.2103  0.1257 -0.0333
33277ION     NA49086  15.209  14.764  15.538 -0.0080 -0.1574 -0.0827
33278ION     NA49087   5.982  18.098  16.173 -0.0877  0.1629 -0.2401
33279ION     NA49088   3.198  10.827  10.377  0.1180  0.2196 -0.0719
33280ION     NA49089  10.580  11.528   5.602  0.0283 -0.1167 -0.1399
33281ION     NA49090   7.273  14.744   3.307 -0.1162  0.0519 -0.0864
33282ION     NA49091   4.934  13.442  10.558  0.0334 -0.2795 -0.3121
33283ION     NA49092   9.001   9.228  10.079 -0.2212  0.0878 -0.0388
33284ION     NA49093  14.777   6.187  10.733  0.0181  0.0955  0.2000
33285ION     NA49094   2.301   2.852  10.748 -0.0698  0.0486  0.3064
33286ION     NA49095   9.271  17.231  10.177 -0.2761 -0.0407 -0.2622
33287ION     NA49096   3.797  17.714   5.614 -0.0244 -0.1830  0.1209
33288ION     NA49097   3.356  15.782  10.231  0.0140 -0.0879 -0.2447
33289ION     NA49098  17.325   7.155  15.361 -0.3420  0.1674 -0.0674
33290ION     NA49099   8.602  14.228  10.754  0.3119 -0.1420  0.2161
33291ION     NA49100   9.238   8.082   5.623  0.0854 -0.1067 -0.1199
33292ION     NA49101  11.135   4.694  10.081  0.3084 -0.0732 -0.1354
33293ION     NA49102  15.790  11.680  10.400 -0.0688  0.3270  0.1528
33294ION     NA49103  13.055  15.089   6.016 -0.0462  0.1068  0.0726
33295ION     NA49104   9.958   8.813   5.380  0.0721 -0.2458 -0.3414
33296ION     NA49105   0.323  17.017  10.791  0.0154  0.0212 -0.0300
33297ION     NA49106   2.658   3.667  10.683 -0.3322 -0.0089  0.0762
33298ION     NA49107  17.958  16.235  10.431 -0.2420  0.3290 -0.1331
33299ION     NA49108   6.377   8.864   2.591  0.0876  0.0910  0.0537
33300ION     NA49109   2.788   6.186  10.731 -0.2762  0.1670  0.1587
33301ION     NA49110  11.221  15.098  10.750  0.4470  0.0746  0.1262
33302ION     NA49111   5.201  15.598  10.591  0.0210  0.1076  0.2337
33303ION     NA49112   5.649   9.659  10.621 -0.0624  0.1265  0.0750
33304ION     NA49113  13.666  15.709   4.179 -0.0078  0.0610 -0.1802
33305ION     NA49114   6.102   8.079  10.817 -0.0124  0.3029 -0.0534
33306ION     NA49115  17.361   3.528  11.558  0.0347 -0.2916  0.4641
33307ION     NA49116   8.458  12.276   5.834  0.1281  0.2375 -0.1113
33308ION     NA49117   3.171  12.463  16.069 -0.0609 -0.4028  0.1696
33309ION     NA49118  14.324  11.859   9.894  0.0141  0.1468  0.0845
33310ION     NA49119   3.818   1.407  15.777 -0.1076 -0.0849  0.1483
33311ION     NA49120  12.778   1.282  10.701  0.2262  0.0484 -0.1352
33312ION     NA49121  14.346  15.138   3.562  0.3027 -0.1308  0.3563
33313ION     NA49122   6.302  17.094  10.158 -0.0497 -0.2199 -0.1204
33314ION     NA49123   4.611  16.022  14.400  0.1041  0.1191 -0.2753
33315ION     NA49124   0.358   9.471  13.667 -0.2159 -0.1112  0.0496
33316ION     NA49125   9.737   7.279  16.024  0.1398  0.2669 -0.1460
33317ION     NA49126   9.931  10.526  10.047  0.0763  0.2965 -0.0751
33318ION     NA49127  12.879   7.057   5.655 -0.0941 -0.2484 -0.1752
33319ION     NA49128  15.262  13.352  10.682 -0.0430  0.0539  0.1783
33320ION     NA49129   6.964   7.657  10.492  0.3850 -0.1529 -0.2713
33321ION     NA49130  13.991   5.717  14.789 -0.0260  0.0401 -0.0935
33322ION     NA49131   3.234  14.949  10.406 -0.0353 -0.2280  0.0427
33323ION     NA49132   4.905  10.588  10.772  0.0101 -0.0350  0.1111
33324ION     NA49133   2.093   7.913  10.720 -0.1179 -0.1748  0.1588
33325ION     NA49134  12.584   8.611   9.960  0.1339  0.0752 -0.1160
33326ION     NA49135   4.487   6.733  11.035  0.0160 -0.1474  0.2834
33327ION     NA49136  15.037  15.931   6.062  0.0981  0.0945  0.2693
33328ION     NA49137  15.785   5.569  14.711  0.1304  0.2677 -0.0552
33329ION     NA49138   4.830  17.699  15.765 -0.1381 -0.1732  0.2079
33330ION     NA49139   0.810   0.932  11.538  0.3234 -0.1658  0.1030
33331ION     NA49140   1.675  10.550  10.564 -0.1933  0.0356 -0.2697
33332ION     NA49141   3.224   0.797  10.569 -0.0056  0.0241 -0.1486
33333ION     NA49142   0.817   3.912  10.994  0.3070  0.0228  0.0896
33334ION     NA49143  16.348   9.601  11.707  0.0504 -0.3565 -0.0494
33335ION     NA49144  17.116  12.071   4.394 -0.0789  0.0448 -0.2220
33336ION     NA49145   3.652  14.738  10.211 -0.0067 -0.0846 -0.3583
33337ION     NA49146  13.755  16.282  10.838 -0.1834 -0.0665 -0.1305
33338ION     NA49147  10.370   9.779   9.922 -0.0237  0.2090  0.0490
33339ION     NA49148   4.992   3.594  10.490 -0.0169 -0.1672  0.1211
33340ION     NA49149  15.433  12.483  10.564 -0.0603 -0.0473 -0.0302
33341ION     NA49150   5.392  18.094  10.358 -0.0233  0.1303 -0.0154
33342ION     NA49151  12.293  14.470   6.020 -0.0486 -0.2107 -0.1942
33343ION     NA49152   2.458  16.408  11.071  0.2175  0.0108 -0.2311
33344ION     NA49153   4.956  14.511   5.898 -0.0422  0.0008 -0.0465
33345ION     NA49154  13.264  14.647  10.467  0.0190  0.0105 -0.1456
33346ION     NA49155   5.448  16.135  13.747  0.1188  0.0411 -0.0127
33347ION     NA49156  12.397  14.261  10.436 -0.0160  0.0370  0.2375
33348ION     NA49157  15.511  17.146   0.311 -0.1571 -0.0308 -0.0990
33349ION     NA49158  14.987   2.460  10.732  0.1884 -0.0894  0.4965
33350ION     NA49159  16.363  12.294  10.590 -0.2345  0.0887 -0.1117
33351ION     NA49160   5.949  11.844  10.210 -0.5056  0.3405  0.0190
33352ION     NA49161  13.514   6.804   5.757 -0.0591 -0.1836 -0.0661
33353ION     NA49162  15.290  10.076  10.307  0.0216  0.1544 -0.4079
33354ION     NA49163   6.309  13.130   5.014  0.1104  0.2294 -0.4142
33355ION     NA49164  17.631   5.629  10.547 -0.2626  0.0824 -0.0449
33356ION     NA49165   9.744  12.984  10.339 -0.0679 -0.1040  0.1701
33357ION     NA49166  12.495  10.983   9.801 -0.0247 -0.2597 -0.3139
33358ION     NA49167  11.108   8.438   5.465 -0.1837  0.0252  0.0645
33359ION     NA49168  10.156  15.861  10.684 -0.2563 -0.3506  0.1980
33360ION     NA49169   5.849  13.694   3.418  0.1922 -0.1666 -0.6093
33361ION     NA49170  14.821   9.277  10.224  0.0491 -0.1934 -0.2296
33362ION     NA49171  10.781  11.019   5.401  0.2065  0.2795 -0.1404
33363ION     NA49172   4.757   5.034   5.933  0.2299  0.2554 -0.0957
33364ION     NA49173   3.541   7.623   3.884 -0.2583  0.0124 -0.0266
33365ION     NA49174   4.812   9.452  11.621 -0.1151 -0.2911 -0.0546
33366ION     NA49175  17.976   0.506   0.859  0.3037 -0.0611  0.1701
33367ION     NA49176   6.287  16.200  10.529  0.4292  0.0251 -0.1353
33368ION     NA49177  10.165  13.787   5.997 -0.0458  0.1040  0.3876
33369ION     NA49178   4.997  15.941   3.157 -0.0072 -0.0374 -0.2457
33370ION     NA49179   6.740   8.391  10.517  0.0944  0.2202  0.1485
33371ION     NA49180  10.155  17.143  10.336  0.1586 -0.1810 -0.1132
33372ION     NA49181   9.961  12.974  10.761 -0.0047  0.1179 -0.0273
33373ION     NA49182  13.997  15.995   5.430 -0.2932 -0.2649  0.1472
33374ION     NA49183  14.210  14.091  10.426  0.0248 -0.0379  0.2088
33375ION     NA49184  13.789  18.176  10.600  0.0704  0.0320  0.0660
33376ION     NA49185   8.908   0.863   9.939 -0.4766  0.0835 -0.4230
33377ION     NA49186  17.026   8.427   5.737  0.1678 -0.2044 -0.1442
33378ION     NA49187   2.044  15.715  10.151 -0.0722 -0.0623  0.0773
33379ION     NA49188   8.921  14.077   2.917 -0.1143 -0.0565  0.1238
33380ION     NA49189  14.385  13.541   1.623 -0.0728 -0.1137 -0.3151
33381ION     NA49190  12.857   5.103  10.398  0.0760 -0.0436  0.0258
33382ION     NA49191  17.365   9.860  10.335  0.1131 -0.0625  0.2789
33383ION     NA49192  11.748  16.560  10.784 -0.0364 -0.0332  0.1891
33384ION     NA49193   6.967  17.994  10.037 -0.1271  0.0751 -0.1957
33385ION     NA49194  10.596   3.209   9.914 -0.0537 -0.0676 -0.1839
33386ION     NA49195   6.635  12.458   5.823  0.1214  0.1290  0.2374
33387ION     NA49196  12.443  13.431  10.371  0.1766  0.1341  0.0759
33388ION     NA49197  13.083   5.609  10.522  0.1924 -0.3365 -0.1252
33389ION     NA49198   6.052  18.052  10.061 -0.2510  0.1481  0.1122
33390ION     NA49199  11.750  13.605   0.872  0.1397  0.0212 -0.1709
33391ION     NA49200  13.630   4.693  10.375 -0.1878 -0.1722 -0.2397
33392ION     NA49201   0.055  13.799   5.810 -0.3301 -0.0426  0.1462
33393ION     NA49202   0.122  15.629   5.488 -0.2597  0.2846  0.2877
33394ION     NA49203  14.274  17.261  15.700  0.1522 -0.0820  0.1293
33395ION     NA49204   7.769  13.146  16.118  0.0013  0.1543  0.1626
33396ION     NA49205   4.393   1.487   2.253  0.5043  0.0679 -0.0938
33397ION     NA49206   4.582   8.067  10.420  0.2248  0.2781  0.2238
33398ION     NA49207  16.522   9.939  10.158  0.0141 -0.0384  0.0713
  18.21931  18.21931  16.36486
